Title
81404
    1CHL1    C3    1   3.803   3.887   9.517 -0.6976 -0.0069  0.5232
    1CHL1    H3    2   3.780   3.780   9.539  1.7088 -0.0352  3.0507
    1CHL1    O3    3   3.860   3.947   9.629  0.0563 -0.2406 -0.1654
    1CHL1   H3'    4   3.926   3.888   9.665  0.6206 -1.0051 -2.3688
    1CHL1    C4    5   3.905   3.884   9.401  0.3887  0.4174 -0.2204
    1CHL1   H4A    6   3.943   3.988   9.390 -0.5104  0.6925 -0.8383
    1CHL1   H4B    7   3.997   3.828   9.427 -0.8995 -1.4727  0.3106
    1CHL1    C5    8   3.849   3.836   9.264  0.5823  0.1222 -0.0677
    1CHL1    C6    9   3.904   3.727   9.209 -0.1669  0.0553  0.1432
    1CHL1    H6   10   3.996   3.684   9.250 -0.5148  1.3474  2.3526
    1CHL1    C7   11   3.857   3.666   9.075  0.0869 -0.2036  0.1991
    1CHL1   H7A   12   3.949   3.661   9.012 -0.8954 -1.6556 -1.1568
    1CHL1   H7B   13   3.825   3.561   9.092  1.9004 -0.6822  0.7914
    1CHL1    C8   14   3.751   3.759   9.000  0.5092 -0.3922 -0.3859
    1CHL1    H8   15   3.809   3.849   8.970 -0.7667  1.5086  2.6410
    1CHL1   C14   16   3.686   3.676   8.890  0.2248 -0.1989 -0.0156
    1CHL1   H14   17   3.636   3.596   8.949 -2.6628  0.5658 -1.3199
    1CHL1   C15   18   3.764   3.598   8.790 -0.2621  0.1832 -0.1744
    1CHL1  H15A   19   3.853   3.647   8.746 -0.7570  0.6696 -0.6503
    1CHL1  H15B   20   3.799   3.503   8.835  0.9290 -0.0468 -1.5549
    1CHL1   C16   21   3.668   3.585   8.667 -0.3694  0.1728 -0.1158
    1CHL1  H16A   22   3.718   3.657   8.598 -0.7827  1.0402  0.4838
    1CHL1  H16B   23   3.656   3.486   8.618  2.2734  0.8908 -2.3622
    1CHL1   C17   24   3.537   3.642   8.718  0.1011  0.0555 -0.0520
    1CHL1   H17   25   3.487   3.557   8.768 -0.0272  0.1903  0.0501
    1CHL1   C13   26   3.576   3.750   8.819 -0.2964  0.3506  0.7499
    1CHL1   C18   27   3.635   3.879   8.752  0.4140  0.3718 -0.2304
    1CHL1  H18A   28   3.721   3.851   8.688 -0.6922  0.9582 -2.0232
    1CHL1  H18B   29   3.551   3.925   8.695  1.0934  0.0302 -1.5271
    1CHL1  H18C   30   3.666   3.951   8.831 -0.8567 -1.1824  1.7505
    1CHL1   C12   31   3.468   3.793   8.923 -0.5402  0.0010 -0.1420
    1CHL1  H12A   32   3.389   3.859   8.881  1.0888  1.3451 -1.1889
    1CHL1  H12B   33   3.423   3.700   8.964 -0.7984  0.1348 -0.1222
    1CHL1   C11   34   3.526   3.865   9.049  0.5647 -0.5526  0.2860
    1CHL1  H11A   35   3.556   3.968   9.017 -0.5833 -0.1770  0.3741
    1CHL1  H11B   36   3.450   3.883   9.128  1.3331  1.6469  0.5728
    1CHL1    C9   37   3.653   3.807   9.109  0.2573 -0.1849  0.4587
    1CHL1    H9   38   3.621   3.709   9.151  0.7368 -2.0825 -3.4399
    1CHL1   C10   39   3.722   3.897   9.217  0.3773  0.0761  0.2213
    1CHL1   C19   40   3.745   4.039   9.170  0.6675  0.6500  0.2420
    1CHL1  H19A   41   3.794   4.097   9.251  1.3835  0.3888 -0.0049
    1CHL1  H19B   42   3.810   4.049   9.080  1.4673 -1.9674  0.4826
    1CHL1  H19C   43   3.650   4.094   9.154 -1.0479 -2.8797 -2.2592
    1CHL1    C1   44   3.620   3.910   9.337  0.8514  0.0996  0.2595
    1CHL1   H1A   45   3.535   3.967   9.294  0.3626 -1.0645 -0.3254
    1CHL1   H1B   46   3.572   3.812   9.356 -4.2823  2.2724 -0.7903
    1CHL1    C2   47   3.680   3.967   9.468  0.5502 -0.0843 -0.7123
    1CHL1   H2A   48   3.611   3.962   9.555 -1.4422  2.7757 -2.0452
    1CHL1   H2B   49   3.707   4.074   9.453  1.7612 -0.3470 -0.4896
    1CHL1   C20   50   3.431   3.674   8.602 -0.0382 -0.3059  0.3106
    1CHL1   H20   51   3.467   3.769   8.558  2.9842 -1.2643  0.6193
    1CHL1   C21   52   3.295   3.689   8.668 -0.0145  0.1801 -0.4353
    1CHL1  H21A   53   3.271   3.770   8.740 -2.4462 -0.3935 -0.5614
    1CHL1  H21B   54   3.280   3.590   8.716  2.6002 -1.1937 -2.2874
    1CHL1  H21C   55   3.216   3.704   8.591  0.5164  0.7594 -0.8800
    1CHL1   C22   56   3.426   3.566   8.487  0.2996 -0.3466  0.5401
    1CHL1  H22A   57   3.526   3.528   8.458 -0.7283 -0.3393 -3.1704
    1CHL1  H22B   58   3.363   3.489   8.537  1.3446 -1.9200 -0.5342
    1CHL1   C23   59   3.351   3.622   8.360 -0.6949 -0.1170 -0.0034
    1CHL1  H23A   60   3.249   3.638   8.400  0.0958  1.3010  1.4786
    1CHL1  H23B   61   3.398   3.715   8.321 -1.4179  0.5009  0.5934
    1CHL1   C24   62   3.338   3.526   8.241  0.1936 -0.0641  0.0532
    1CHL1  H24A   63   3.440   3.491   8.215 -0.2764  1.3659 -4.0549
    1CHL1  H24B   64   3.281   3.435   8.271  0.1630 -0.8749 -2.3441
    1CHL1   C25   65   3.277   3.590   8.116 -0.4230  0.0229  0.6825
    1CHL1   H25   66   3.185   3.644   8.148  1.6493  3.9961  0.1953
    1CHL1   C26   67   3.362   3.699   8.046  0.3296  1.0289  0.5308
    1CHL1  H26A   68   3.299   3.753   7.972  1.3097  0.1471 -0.9863
    1CHL1  H26B   69   3.396   3.780   8.114 -1.1453 -0.3359  2.9373
    1CHL1  H26C   70   3.441   3.655   7.981  0.8714 -1.5523  2.8682
    1CHL1   C27   71   3.245   3.477   8.014  0.1353  0.1953 -0.1992
    1CHL1  H27A   72   3.153   3.424   8.046  0.6900 -0.6843 -0.0354
    1CHL1  H27B   73   3.228   3.521   7.914  2.5291  0.0544 -0.6974
    1CHL1  H27C   74   3.335   3.412   8.015  1.1861  1.6343 -0.0827
    2CHL1    C3   75   3.319   2.778   9.221  0.2024 -0.4481  0.0073
    2CHL1    H3   76   3.211   2.803   9.218  0.4735  0.6240 -3.8135
    2CHL1    O3   77   3.353   2.835   9.350  0.0681  0.0943  0.0282
    2CHL1   H3'   78   3.268   2.864   9.383  0.4351  3.1583 -1.4613
    2CHL1    C4   79   3.339   2.628   9.229 -0.4114  0.6077 -0.0072
    2CHL1   H4A   80   3.443   2.614   9.267  0.1402  0.9149 -1.3741
    2CHL1   H4B   81   3.267   2.592   9.305  1.6292  1.4302  2.3726
    2CHL1    C5   82   3.338   2.550   9.097  0.2063 -0.4733 -0.5094
    2CHL1    C6   83   3.254   2.446   9.067 -0.4602  0.4473  0.0851
    2CHL1    H6   84   3.194   2.401   9.147 -1.5718 -2.3069 -2.2161
    2CHL1    C7   85   3.235   2.383   8.933  0.4965 -0.0529 -0.4147
    2CHL1   H7A   86   3.230   2.273   8.949 -0.2053 -0.1660 -1.3884
    2CHL1   H7B   87   3.138   2.405   8.885  0.5876  0.5714 -0.3105
    2CHL1    C8   88   3.352   2.420   8.845 -0.3768  1.0651 -0.1684
    2CHL1    H8   89   3.440   2.367   8.886 -0.1587  0.7233 -1.0524
    2CHL1   C14   90   3.321   2.372   8.706  0.2398 -0.2854  0.3839
    2CHL1   H14   91   3.224   2.425   8.688  0.6152  1.1268  2.3262
    2CHL1   C15   92   3.290   2.224   8.688 -0.4662 -0.3276 -0.3368
    2CHL1  H15A   93   3.372   2.163   8.732  1.1357  0.1319 -2.5626
    2CHL1  H15B   94   3.187   2.205   8.726 -0.0523 -0.3200  0.7966
    2CHL1   C16   95   3.309   2.202   8.534  1.1679  0.2903  0.0753
    2CHL1  H16A   96   3.362   2.106   8.519 -1.9087 -1.4819  0.0489
    2CHL1  H16B   97   3.207   2.190   8.491  1.1780 -0.2385  0.2058
    2CHL1   C17   98   3.374   2.332   8.479 -0.8646  0.3733 -0.2385
    2CHL1   H17   99   3.295   2.403   8.447 -0.0971  0.8198 -1.1873
    2CHL1   C13  100   3.428   2.411   8.605 -0.3881 -0.5516 -0.0994
    2CHL1   C18  101   3.558   2.350   8.641 -0.3797  0.0272 -0.5887
    2CHL1  H18A  102   3.547   2.239   8.640  1.2854 -0.1504 -0.9812
    2CHL1  H18B  103   3.631   2.386   8.566 -2.8218 -0.7274 -3.4097
    2CHL1  H18C  104   3.592   2.374   8.744 -0.1987  0.6355 -0.7891
    2CHL1   C12  105   3.427   2.568   8.591  1.1274 -0.5364  0.0497
    2CHL1  H12A  106   3.499   2.604   8.514  0.2384 -0.0143 -0.5491
    2CHL1  H12B  107   3.331   2.609   8.553  2.3368  1.3422 -1.1097
    2CHL1   C11  108   3.476   2.621   8.731  0.1000 -0.5403  0.0853
    2CHL1  H11A  109   3.576   2.579   8.754  0.8888  1.9327  1.4115
    2CHL1  H11B  110   3.480   2.732   8.731 -2.7813 -0.4087 -0.3074
    2CHL1    C9  111   3.379   2.575   8.851 -0.2274 -0.1478 -0.2219
    2CHL1    H9  112   3.281   2.619   8.822 -1.0401 -1.1654  0.9424
    2CHL1   C10  113   3.421   2.624   8.985 -0.8733 -0.3223  0.4425
    2CHL1   C19  114   3.578   2.606   8.994 -0.4230 -0.6678 -0.1571
    2CHL1  H19A  115   3.639   2.678   8.935  2.9612 -3.5681 -0.3478
    2CHL1  H19B  116   3.605   2.611   9.101 -2.0936 -1.3826  0.3177
    2CHL1  H19C  117   3.595   2.501   8.961  3.1210 -0.7057  1.5785
    2CHL1    C1  118   3.387   2.773   8.991  0.3015  0.7793  0.2526
    2CHL1   H1A  119   3.446   2.818   8.908 -0.6700  0.8287 -0.4159
    2CHL1   H1B  120   3.280   2.782   8.964  0.6147 -0.5458 -1.5152
    2CHL1    C2  121   3.413   2.846   9.120 -0.5254 -0.1957  0.1093
    2CHL1   H2A  122   3.380   2.952   9.115  1.6824  0.5362  0.6252
    2CHL1   H2B  123   3.519   2.847   9.153 -0.5231  0.3769  0.1003
    2CHL1   C20  124   3.463   2.313   8.356  0.3368 -0.4926  0.1189
    2CHL1   H20  125   3.543   2.242   8.386  1.3980  1.1830  1.2864
    2CHL1   C21  126   3.530   2.448   8.312  0.4512 -0.2795 -0.0594
    2CHL1  H21A  127   3.460   2.529   8.280 -0.5704 -1.9193 -2.1026
    2CHL1  H21B  128   3.601   2.428   8.229  1.4862 -1.7012  1.1428
    2CHL1  H21C  129   3.601   2.480   8.391  0.9311  0.2552 -0.6993
    2CHL1   C22  130   3.377   2.255   8.240  0.3662  0.3268 -0.3117
    2CHL1  H22A  131   3.338   2.155   8.268  1.2778  0.1281  0.2673
    2CHL1  H22B  132   3.286   2.319   8.235  1.5837  2.2989  1.6950
    2CHL1   C23  133   3.439   2.229   8.096  0.1371 -0.2577  0.3721
    2CHL1  H23A  134   3.513   2.309   8.076  1.4822 -1.0239  2.1070
    2CHL1  H23B  135   3.487   2.129   8.089  0.0044 -0.2994  0.0266
    2CHL1   C24  136   3.323   2.239   7.991  0.2410  0.1781 -0.4179
    2CHL1  H24A  137   3.229   2.200   8.035  0.1963  2.8573  1.9686
    2CHL1  H24B  138   3.297   2.347   7.985  1.2921  0.3786 -1.6723
    2CHL1   C25  139   3.340   2.187   7.848 -0.4053  0.2116 -0.6561
    2CHL1   H25  140   3.438   2.218   7.807  0.1836 -0.2544  0.3676
    2CHL1   C26  141   3.329   2.039   7.832  0.6804 -0.2334  0.2800
    2CHL1  H26A  142   3.237   2.003   7.881 -0.4576  0.5062 -1.2656
    2CHL1  H26B  143   3.323   2.023   7.722  1.0828  0.9664  0.0726
    2CHL1  H26C  144   3.425   1.999   7.873  0.0850 -0.3372  1.5902
    2CHL1   C27  145   3.238   2.267   7.769  0.3232 -0.1969  0.1231
    2CHL1  H27A  146   3.253   2.377   7.774 -1.4283  0.0965 -0.7667
    2CHL1  H27B  147   3.249   2.249   7.660  1.3352 -0.7553  0.3065
    2CHL1  H27C  148   3.138   2.242   7.809  0.9383 -1.0495  1.1355
    3CHL1    C3  149   5.540   2.961   9.349  0.0451 -0.4084 -0.0999
    3CHL1    H3  150   5.497   2.859   9.334  0.0545 -0.5188  0.6252
    3CHL1    O3  151   5.572   2.983   9.484 -0.4636  0.6899 -0.0509
    3CHL1   H3'  152   5.595   3.076   9.493  0.3455  0.5587 -0.7118
    3CHL1    C4  153   5.652   2.987   9.248 -0.1174 -0.5468 -0.7757
    3CHL1   H4A  154   5.678   3.095   9.250 -1.0712 -0.2017 -3.9524
    3CHL1   H4B  155   5.748   2.935   9.269 -0.3200 -1.4332 -1.9761
    3CHL1    C5  156   5.603   2.953   9.109  0.5712  0.4476 -0.2062
    3CHL1    C6  157   5.666   2.856   9.042  0.7102  0.2636 -0.4304
    3CHL1    H6  158   5.752   2.812   9.096 -1.4032 -0.7415  2.2291
    3CHL1    C7  159   5.651   2.814   8.898  0.4666 -0.7332 -0.4617
    3CHL1   H7A  160   5.749   2.819   8.846  0.4238 -0.1324 -0.4909
    3CHL1   H7B  161   5.619   2.708   8.900  1.3914 -1.0014  1.7177
    3CHL1    C8  162   5.549   2.912   8.823  0.0488  0.3657  0.2991
    3CHL1    H8  163   5.592   2.999   8.769 -1.6944  0.5810 -0.7770
    3CHL1   C14  164   5.480   2.826   8.713 -0.6095  0.1800  0.6940
    3CHL1   H14  165   5.433   2.743   8.770  1.6621 -2.1666 -0.7219
    3CHL1   C15  166   5.574   2.753   8.616  0.2386  0.4091  0.4705
    3CHL1  H15A  167   5.655   2.819   8.580  1.4677 -0.8106  0.9725
    3CHL1  H15B  168   5.627   2.673   8.672  1.4588  0.0021 -1.2228
    3CHL1   C16  169   5.466   2.706   8.515  0.0226 -0.4232 -0.3690
    3CHL1  H16A  170   5.511   2.734   8.417  1.1099 -1.6652 -0.2462
    3CHL1  H16B  171   5.448   2.598   8.536 -2.0885  0.1085  0.6137
    3CHL1   C17  172   5.336   2.790   8.532  0.5664  0.2715 -0.6454
    3CHL1   H17  173   5.265   2.730   8.593  1.1694  0.8509  0.6584
    3CHL1   C13  174   5.381   2.899   8.633 -0.2878 -0.2258 -0.1088
    3CHL1   C18  175   5.437   3.012   8.545  0.6371  0.2361  0.5499
    3CHL1  H18A  176   5.353   3.070   8.499  1.1302  0.1334 -0.4894
    3CHL1  H18B  177   5.495   3.085   8.606 -0.2151  1.5570 -0.1966
    3CHL1  H18C  178   5.503   2.979   8.463 -1.7716  0.8227 -1.7085
    3CHL1   C12  179   5.274   2.957   8.723  0.5757  0.5517  0.1227
    3CHL1  H12A  180   5.206   3.017   8.659  0.9812 -2.1097 -2.9412
    3CHL1  H12B  181   5.216   2.869   8.759 -0.7802  0.8059 -1.3792
    3CHL1   C11  182   5.335   3.037   8.839  0.8003  0.7794 -0.3019
    3CHL1  H11A  183   5.381   3.125   8.788  0.9177  0.5753 -0.5428
    3CHL1  H11B  184   5.255   3.079   8.905  0.2033  1.2802 -1.3254
    3CHL1    C9  185   5.436   2.953   8.920  0.6375  0.3882 -0.1960
    3CHL1    H9  186   5.386   2.858   8.948  2.3464 -0.2842  0.5930
    3CHL1   C10  187   5.479   3.024   9.050  0.1144  0.1955  0.8068
    3CHL1   C19  188   5.522   3.166   9.005 -0.6600 -0.0039 -0.6407
    3CHL1  H19A  189   5.592   3.168   8.919  1.5316 -0.8587  1.0733
    3CHL1  H19B  190   5.436   3.229   8.974 -0.5532  0.4828  0.0671
    3CHL1  H19C  191   5.580   3.216   9.085 -0.8451  1.4492 -1.3937
    3CHL1    C1  192   5.374   3.017   9.164  0.7007  0.6413 -1.0318
    3CHL1   H1A  193   5.286   3.081   9.144 -0.3936 -0.7258 -0.6303
    3CHL1   H1B  194   5.335   2.914   9.151  1.6541 -0.0341  1.1388
    3CHL1    C2  195   5.423   3.046   9.310 -0.1937  0.6812 -0.2961
    3CHL1   H2A  196   5.343   3.045   9.387 -0.3661  0.6347 -0.4759
    3CHL1   H2B  197   5.461   3.150   9.318 -0.3386  0.5752  2.2736
    3CHL1   C20  198   5.272   2.824   8.389 -0.0528 -0.0964 -0.2805
    3CHL1   H20  199   5.329   2.905   8.340  2.8165 -0.7210  1.8645
    3CHL1   C21  200   5.133   2.880   8.414 -0.3488 -0.1515 -0.2259
    3CHL1  H21A  201   5.085   2.908   8.318  0.7639 -2.3306 -1.4703
    3CHL1  H21B  202   5.137   2.975   8.472  1.1771  1.5832 -3.0400
    3CHL1  H21C  203   5.074   2.803   8.467  1.8064  0.0053  2.4979
    3CHL1   C22  204   5.265   2.694   8.301 -0.4692  1.1242  0.0036
    3CHL1  H22A  205   5.364   2.645   8.291 -0.8695  0.2432  0.2251
    3CHL1  H22B  206   5.219   2.619   8.370  2.0837 -0.4893  0.0066
    3CHL1   C23  207   5.209   2.728   8.155 -0.6825  0.4272  0.0389
    3CHL1  H23A  208   5.102   2.756   8.169 -0.6679  0.2715  0.4747
    3CHL1  H23B  209   5.258   2.822   8.121 -1.1391  1.3865  1.9780
    3CHL1   C24  210   5.226   2.616   8.057  0.1504 -0.0650  0.2375
    3CHL1  H24A  211   5.330   2.578   8.052  0.2636  0.4264 -1.5145
    3CHL1  H24B  212   5.171   2.524   8.086 -0.0869 -0.4097 -1.2866
    3CHL1   C25  213   5.191   2.675   7.923  0.6419 -0.7889 -0.3623
    3CHL1   H25  214   5.095   2.731   7.923  0.5911 -0.8710 -1.3769
    3CHL1   C26  215   5.292   2.775   7.871 -0.3052 -0.3363  0.2848
    3CHL1  H26A  216   5.268   2.882   7.888 -0.3786 -0.2695 -0.2505
    3CHL1  H26B  217   5.389   2.748   7.917  0.0925  1.9111  0.8378
    3CHL1  H26C  218   5.301   2.760   7.762 -1.9038 -3.1104  0.4730
    3CHL1   C27  219   5.173   2.559   7.822 -0.0779  0.2276  0.0785
    3CHL1  H27A  220   5.079   2.511   7.857 -2.1683  1.8065 -3.0779
    3CHL1  H27B  221   5.160   2.592   7.717  0.9712 -2.7717 -1.0661
    3CHL1  H27C  222   5.250   2.479   7.826 -0.5132 -0.0856  3.1961
    4CHL1    C3  223   4.964   3.276   9.443  0.7043 -0.2086  0.0067
    4CHL1    H3  224   4.859   3.272   9.407  0.6043  2.6314 -0.1644
    4CHL1    O3  225   4.987   3.234   9.576 -0.1013 -0.5326 -0.1451
    4CHL1   H3'  226   5.082   3.221   9.583 -0.0917 -0.4755 -0.1707
    4CHL1    C4  227   5.047   3.189   9.349 -0.6001 -0.3752  0.5986
    4CHL1   H4A  228   5.154   3.180   9.377  0.0360  2.1820 -0.9173
    4CHL1   H4B  229   5.011   3.084   9.354 -1.1931 -0.2310 -0.5395
    4CHL1    C5  230   5.042   3.240   9.204  0.3271 -0.0352  0.3693
    4CHL1    C6  231   4.982   3.171   9.112 -0.5047  0.1935  0.8075
    4CHL1    H6  232   4.951   3.068   9.137 -1.8942  0.2423 -0.6290
    4CHL1    C7  233   4.982   3.211   8.961 -0.7031  0.6652 -0.1459
    4CHL1   H7A  234   5.007   3.123   8.897  1.4078  1.4744 -0.4671
    4CHL1   H7B  235   4.875   3.223   8.932 -0.8787 -0.0919  0.1574
    4CHL1    C8  236   5.064   3.331   8.920 -0.2535 -0.4743 -0.4728
    4CHL1    H8  237   5.169   3.299   8.906 -0.1290 -0.6208  0.6824
    4CHL1   C14  238   5.014   3.383   8.784 -0.0703 -0.6100 -0.4613
    4CHL1   H14  239   4.907   3.401   8.809  0.2355 -0.9815  1.1598
    4CHL1   C15  240   5.010   3.285   8.664  0.0177  0.1039 -0.0838
    4CHL1  H15A  241   5.103   3.230   8.639  1.3704  1.3856  1.9905
    4CHL1  H15B  242   4.927   3.212   8.678  0.9236 -1.1106 -0.9285
    4CHL1   C16  243   4.988   3.377   8.550  0.0014  0.1843  0.7619
    4CHL1  H16A  244   5.066   3.352   8.475  0.5194  0.1303  1.3182
    4CHL1  H16B  245   4.885   3.355   8.513  0.4959  1.0740 -1.1842
    4CHL1   C17  246   5.000   3.522   8.603 -0.1177 -1.0310  0.2494
    4CHL1   H17  247   4.900   3.566   8.625  0.1711 -0.4058  0.3266
    4CHL1   C13  248   5.076   3.505   8.737 -0.0680 -0.2260  0.2065
    4CHL1   C18  249   5.226   3.482   8.711 -0.1202  0.4439 -0.0826
    4CHL1  H18A  250   5.269   3.573   8.664  0.9289  0.2007  0.3924
    4CHL1  H18B  251   5.292   3.467   8.799  1.5321 -0.3301 -1.4245
    4CHL1  H18C  252   5.255   3.400   8.641 -1.7431 -0.4825  0.3003
    4CHL1   C12  253   5.032   3.611   8.844 -0.2394 -0.0911 -0.2727
    4CHL1  H12A  254   5.085   3.704   8.814  0.0282 -1.1065 -3.1081
    4CHL1  H12B  255   4.924   3.632   8.849 -0.2654  0.4508 -2.7219
    4CHL1   C11  256   5.091   3.563   8.980 -0.4351 -0.2574  0.5672
    4CHL1  H11A  257   5.202   3.561   8.969 -0.5592 -1.7932 -0.3742
    4CHL1  H11B  258   5.066   3.646   9.050  0.1544  1.3169 -1.0468
    4CHL1    C9  259   5.035   3.432   9.025 -0.3381  0.2866  0.5230
    4CHL1    H9  260   4.925   3.438   9.033 -0.7124 -0.5525 -3.0768
    4CHL1   C10  261   5.075   3.388   9.173 -0.2621 -0.2330  0.1774
    4CHL1   C19  262   5.229   3.401   9.200  0.8838  0.5116  0.0462
    4CHL1  H19A  263   5.278   3.340   9.121  1.1853  0.2000  0.4744
    4CHL1  H19B  264   5.261   3.507   9.195 -0.7955  1.0810  0.8131
    4CHL1  H19C  265   5.249   3.364   9.303  1.5981  1.0424  0.0991
    4CHL1    C1  266   5.006   3.469   9.279 -0.6100 -0.4599 -0.0565
    4CHL1   H1A  267   5.067   3.562   9.278  1.6619 -1.8011  3.3818
    4CHL1   H1B  268   4.902   3.492   9.248  0.0659  0.3964 -1.7263
    4CHL1    C2  269   5.015   3.423   9.431 -0.2581  0.0074  0.3798
    4CHL1   H2A  270   4.952   3.475   9.507  1.9544  1.0394  1.5530
    4CHL1   H2B  271   5.118   3.434   9.470  0.1192  0.5034 -0.7623
    4CHL1   C20  272   5.050   3.616   8.493 -0.7005 -0.3775 -0.3304
    4CHL1   H20  273   5.156   3.597   8.467 -0.7799 -0.6443 -0.4643
    4CHL1   C21  274   5.061   3.765   8.540 -0.1117 -0.1919 -0.2404
    4CHL1  H21A  275   4.961   3.814   8.542 -1.1666 -2.1018 -3.1119
    4CHL1  H21B  276   5.120   3.825   8.468 -0.3696  0.0244 -0.2742
    4CHL1  H21C  277   5.110   3.790   8.636  0.3147 -0.1720 -0.4612
    4CHL1   C22  278   4.966   3.602   8.366  0.5520 -0.3655  0.3136
    4CHL1  H22A  279   4.952   3.494   8.342 -1.1419 -0.2252  0.6611
    4CHL1  H22B  280   4.868   3.645   8.395 -0.0660 -0.9076 -0.9598
    4CHL1   C23  281   5.026   3.673   8.244  0.4281 -0.2333  0.4592
    4CHL1  H23A  282   5.033   3.779   8.275 -0.9921 -0.9029  3.3136
    4CHL1  H23B  283   5.133   3.645   8.231  0.3419  0.2789 -1.4937
    4CHL1   C24  284   4.944   3.664   8.123 -0.0407 -0.4618 -0.6096
    4CHL1  H24A  285   4.953   3.565   8.074  1.5435 -0.6332  0.0111
    4CHL1  H24B  286   4.837   3.674   8.154  0.6227  0.1546  1.5540
    4CHL1   C25  287   4.982   3.777   8.020  0.1032 -0.1087  0.3386
    4CHL1   H25  288   5.089   3.763   7.991 -0.1605  1.3565 -1.4578
    4CHL1   C26  289   4.901   3.733   7.904 -0.3525  0.0651 -0.1622
    4CHL1  H26A  290   4.923   3.629   7.871 -2.3000 -0.0102 -1.3256
    4CHL1  H26B  291   4.797   3.733   7.943  0.7398 -0.7213  2.8388
    4CHL1  H26C  292   4.906   3.794   7.811 -1.0354 -0.9931 -0.9186
    4CHL1   C27  293   4.951   3.921   8.064  0.3090  0.4939  0.4485
    4CHL1  H27A  294   4.846   3.933   8.098 -0.1697 -0.6586 -0.5631
    4CHL1  H27B  295   5.013   3.940   8.154  0.0949  0.7443  0.5415
    4CHL1  H27C  296   4.981   3.995   7.987  0.7137 -2.0911 -1.9849
    5CHL1    C3  297   4.643   2.776   9.573  0.8000 -0.2016  0.3067
    5CHL1    H3  298   4.711   2.696   9.609 -0.3227 -0.3938  2.0616
    5CHL1    O3  299   4.565   2.827   9.680  0.1053  0.9009 -0.0927
    5CHL1   H3'  300   4.535   2.915   9.656 -0.8032  0.1847 -1.6069
    5CHL1    C4  301   4.723   2.891   9.508 -0.5327 -0.7501  0.2620
    5CHL1   H4A  302   4.653   2.967   9.467 -1.4498 -1.3076  0.7883
    5CHL1   H4B  303   4.793   2.938   9.581 -1.0107 -0.7946  0.7576
    5CHL1    C5  304   4.802   2.829   9.396  0.0252  0.1021  0.0759
    5CHL1    C6  305   4.935   2.825   9.388  0.0182  0.1795  0.0508
    5CHL1    H6  306   4.996   2.876   9.464  0.3586 -0.0643 -0.0561
    5CHL1    C7  307   5.014   2.761   9.280 -0.6978  0.3832  0.3228
    5CHL1   H7A  308   5.099   2.823   9.245 -2.4206  2.3333 -0.5133
    5CHL1   H7B  309   5.056   2.665   9.319  0.1197  0.7873  0.4478
    5CHL1    C8  310   4.932   2.740   9.152  0.3405  0.5335 -0.0888
    5CHL1    H8  311   4.914   2.836   9.099  1.5845  0.1361 -1.2891
    5CHL1   C14  312   5.008   2.640   9.061 -0.0773 -0.4821 -0.2128
    5CHL1   H14  313   5.013   2.549   9.125  1.5795  0.4376  1.0018
    5CHL1   C15  314   5.157   2.673   9.039  0.5042 -0.2138 -0.6799
    5CHL1  H15A  315   5.161   2.780   9.012 -2.1452  0.7904  2.6024
    5CHL1  H15B  316   5.208   2.648   9.134 -0.6357  0.4955  0.1259
    5CHL1   C16  317   5.194   2.588   8.913 -0.2506 -0.2814  0.4569
    5CHL1  H16A  318   5.231   2.652   8.830 -4.1966  2.1585  0.5031
    5CHL1  H16B  319   5.261   2.502   8.937  2.0646  1.2090 -0.5055
    5CHL1   C17  320   5.057   2.521   8.872  0.7455 -0.1734  0.3594
    5CHL1   H17  321   5.061   2.422   8.922  1.1144 -0.5031 -0.2965
    5CHL1   C13  322   4.947   2.601   8.931  0.3352 -0.5854 -0.1007
    5CHL1   C18  323   4.917   2.725   8.842 -0.1592 -0.2099 -0.5721
    5CHL1  H18A  324   4.854   2.687   8.759 -0.9367 -0.8854  0.3249
    5CHL1  H18B  325   4.856   2.805   8.889 -1.1668  0.3352 -2.7395
    5CHL1  H18C  326   5.008   2.782   8.814 -0.5767  0.7450 -0.0206
    5CHL1   C12  327   4.815   2.530   8.973  0.2213 -0.6320 -0.0737
    5CHL1  H12A  328   4.755   2.501   8.884  2.5897 -1.6147 -1.4087
    5CHL1  H12B  329   4.854   2.434   9.013  0.6423 -0.7581 -0.7697
    5CHL1   C11  330   4.723   2.605   9.070 -0.4233 -0.6617 -0.3106
    5CHL1  H11A  331   4.688   2.689   9.006 -1.9603 -0.0915  1.2560
    5CHL1  H11B  332   4.636   2.542   9.098 -1.0083 -0.0381 -0.7137
    5CHL1    C9  333   4.804   2.668   9.194  0.2210  0.6258 -0.6392
    5CHL1    H9  334   4.840   2.585   9.259 -0.6428  0.5931 -0.1980
    5CHL1   C10  335   4.710   2.748   9.292 -0.6986  0.0899  0.0495
    5CHL1   C19  336   4.619   2.839   9.202  0.6515  0.1737  0.1795
    5CHL1  H19A  337   4.686   2.895   9.134 -1.8563  3.6289  0.4302
    5CHL1  H19B  338   4.552   2.776   9.138 -0.4153  1.9778 -0.5419
    5CHL1  H19C  339   4.554   2.892   9.274 -0.8539 -1.4602  0.0816
    5CHL1    C1  340   4.610   2.641   9.365 -1.0423 -0.4757 -0.5033
    5CHL1   H1A  341   4.531   2.606   9.295 -0.5402 -0.2598 -1.1904
    5CHL1   H1B  342   4.667   2.556   9.408 -2.4939 -0.4295  1.5836
    5CHL1    C2  343   4.538   2.716   9.482  1.2039  0.6784  0.1653
    5CHL1   H2A  344   4.482   2.639   9.540 -1.2711  0.8389 -1.9118
    5CHL1   H2B  345   4.465   2.792   9.447  1.2685  1.9312  2.6093
    5CHL1   C20  346   5.043   2.485   8.725  0.1785 -0.2508 -0.1895
    5CHL1   H20  347   5.039   2.583   8.673 -0.5589 -0.3180 -0.2738
    5CHL1   C21  348   4.917   2.403   8.692 -0.1906  0.5389  0.1400
    5CHL1  H21A  349   4.918   2.383   8.582  4.3597 -1.1373  0.3952
    5CHL1  H21B  350   4.826   2.464   8.708 -0.7624  0.0590 -1.1928
    5CHL1  H21C  351   4.921   2.309   8.750 -1.8166  1.3647  1.6263
    5CHL1   C22  352   5.171   2.406   8.668  0.3445 -0.8876 -0.7862
    5CHL1  H22A  353   5.250   2.483   8.660 -0.0242 -0.5381 -1.0709
    5CHL1  H22B  354   5.196   2.333   8.748  0.8461  1.6484  1.4673
    5CHL1   C23  355   5.162   2.345   8.526  0.3468  0.4946 -0.9606
    5CHL1  H23A  356   5.086   2.264   8.519  0.2079  0.3895  1.4950
    5CHL1  H23B  357   5.124   2.424   8.457 -1.0416  0.3999 -0.3324
    5CHL1   C24  358   5.292   2.287   8.460 -0.2354  1.1286  0.3429
    5CHL1  H24A  359   5.294   2.302   8.350  2.1798 -2.6410 -0.1850
    5CHL1  H24B  360   5.367   2.363   8.490 -0.4590  1.2128  0.7002
    5CHL1   C25  361   5.331   2.138   8.489 -0.5229 -0.9257  0.2668
    5CHL1   H25  362   5.434   2.134   8.447  0.3023 -0.2956  2.1882
    5CHL1   C26  363   5.329   2.100   8.636 -1.0085 -0.2679  0.5015
    5CHL1  H26A  364   5.403   2.019   8.652  0.8287  0.7179 -2.3702
    5CHL1  H26B  365   5.367   2.178   8.706 -1.5936  0.3139  0.1716
    5CHL1  H26C  366   5.231   2.070   8.678 -1.7425 -0.0902 -1.0411
    5CHL1   C27  367   5.248   2.037   8.414  0.6437  0.1669  0.2020
    5CHL1  H27A  368   5.293   1.936   8.409  1.6381  0.6947 -2.8991
    5CHL1  H27B  369   5.147   2.020   8.457  0.7285  0.4947  0.5295
    5CHL1  H27C  370   5.219   2.068   8.311 -1.0379 -0.9949  0.3027
    6CHL1    C3  371   3.046   5.872   9.440  0.2646  0.1561  0.1522
    6CHL1    H3  372   3.111   5.796   9.391  1.1479  0.9165  0.1338
    6CHL1    O3  373   3.041   5.851   9.580  0.0509  0.3990 -0.1546
    6CHL1   H3'  374   3.036   5.755   9.586  3.5629  0.2006  0.7773
    6CHL1    C4  375   3.091   6.012   9.411 -0.8549 -0.1562 -0.7590
    6CHL1   H4A  376   3.018   6.081   9.458  0.1174  0.5265 -0.2259
    6CHL1   H4B  377   3.186   6.033   9.465 -0.5629  0.6045 -1.5556
    6CHL1    C5  378   3.112   6.025   9.263 -0.1930 -0.2468 -0.8966
    6CHL1    C6  379   3.226   6.081   9.219  0.2569  0.5118  0.4771
    6CHL1    H6  380   3.286   6.121   9.301  0.2919  1.1503  0.1415
    6CHL1    C7  381   3.262   6.098   9.075  0.5158  0.5156  0.7730
    6CHL1   H7A  382   3.311   6.197   9.064 -0.3959  1.1476  2.1521
    6CHL1   H7B  383   3.338   6.029   9.033 -0.4221  0.7400 -1.3158
    6CHL1    C8  384   3.134   6.077   8.984  0.6492 -0.9932 -0.0144
    6CHL1    H8  385   3.075   6.171   8.987  1.6169 -0.3827  0.1779
    6CHL1   C14  386   3.169   6.067   8.833 -0.3206  0.0405 -0.4693
    6CHL1   H14  387   3.210   5.964   8.824  0.7182  0.5644 -2.0658
    6CHL1   C15  388   3.284   6.158   8.782  0.6655  0.1045 -0.0788
    6CHL1  H15A  389   3.267   6.262   8.819  0.4071  0.2453 -0.5851
    6CHL1  H15B  390   3.381   6.128   8.826 -0.1718 -1.0339  1.0489
    6CHL1   C16  391   3.263   6.153   8.629  0.2280  0.0193 -0.4180
    6CHL1  H16A  392   3.230   6.251   8.590  0.7193  0.3082 -0.1080
    6CHL1  H16B  393   3.354   6.113   8.580 -0.5946 -2.0888 -0.3129
    6CHL1   C17  394   3.135   6.063   8.595  0.1051 -0.6640  0.4791
    6CHL1   H17  395   3.175   5.961   8.575 -0.2330 -0.9120  1.0468
    6CHL1   C13  396   3.057   6.065   8.732 -0.1742 -0.1482 -0.5639
    6CHL1   C18  397   2.975   6.194   8.744  0.4159 -0.2973 -0.1665
    6CHL1  H18A  398   2.901   6.194   8.662  1.7070  0.0753 -1.3572
    6CHL1  H18B  399   2.926   6.215   8.841 -1.5295  1.5993 -1.5134
    6CHL1  H18C  400   3.038   6.281   8.714 -1.1224  1.3292  1.2145
    6CHL1   C12  401   2.967   5.948   8.764  0.3190  0.4617  0.1565
    6CHL1  H12A  402   2.875   5.940   8.702  0.1708  1.0597  0.3030
    6CHL1  H12B  403   3.038   5.863   8.752  0.2940 -0.2210  4.1460
    6CHL1   C11  404   2.928   5.951   8.911  0.4010 -0.3127  0.1135
    6CHL1  H11A  405   2.846   6.025   8.924  0.2551 -0.2463 -1.0906
    6CHL1  H11B  406   2.865   5.863   8.939 -0.3681 -0.1264 -0.9613
    6CHL1    C9  407   3.046   5.955   9.020  0.2281  0.0027  0.2248
    6CHL1    H9  408   3.108   5.863   9.011  0.8338  0.5011 -0.9403
    6CHL1   C10  409   3.000   5.973   9.170  0.1618 -0.6640 -0.0892
    6CHL1   C19  410   2.885   6.069   9.167  0.6516  0.1883  0.0267
    6CHL1  H19A  411   2.911   6.152   9.097  2.3480 -0.0754  0.3099
    6CHL1  H19B  412   2.789   6.024   9.136  1.1522 -2.2998  1.9140
    6CHL1  H19C  413   2.856   6.099   9.270 -1.3163 -0.7835 -0.2385
    6CHL1    C1  414   2.942   5.843   9.215 -0.3440  1.0714 -0.1790
    6CHL1   H1A  415   2.858   5.812   9.150  0.9249 -1.1298 -0.8065
    6CHL1   H1B  416   3.006   5.754   9.198 -1.1385  0.3889  0.3389
    6CHL1    C2  417   2.911   5.836   9.364 -0.1255 -0.3367 -0.2832
    6CHL1   H2A  418   2.878   5.732   9.386  2.3363 -1.5520 -2.1080
    6CHL1   H2B  419   2.827   5.896   9.405  0.8925  1.5207 -0.8946
    6CHL1   C20  420   3.079   6.115   8.451  0.7173  0.0148 -0.0932
    6CHL1   H20  421   3.054   6.222   8.466  2.8727  0.4118  0.7737
    6CHL1   C21  422   2.957   6.034   8.410 -0.0446  0.6959 -0.7548
    6CHL1  H21A  423   2.907   6.060   8.314 -0.6338  0.5135 -0.5026
    6CHL1  H21B  424   2.883   6.023   8.493  0.3942 -0.3813 -0.5030
    6CHL1  H21C  425   2.983   5.927   8.400  1.3837  0.3275  5.1324
    6CHL1   C22  426   3.175   6.109   8.335  0.3212 -0.2135  0.1644
    6CHL1  H22A  427   3.273   6.160   8.354 -0.9661  1.7280  1.8017
    6CHL1  H22B  428   3.194   6.003   8.307  2.1827  0.0081  0.4896
    6CHL1   C23  429   3.136   6.181   8.202  0.1043  0.2337  0.1921
    6CHL1  H23A  430   3.198   6.141   8.119 -0.1001  0.4182 -0.0496
    6CHL1  H23B  431   3.035   6.158   8.160  1.0887 -1.7313 -1.1801
    6CHL1   C24  432   3.145   6.330   8.196 -0.3353  0.5472  0.9266
    6CHL1  H24A  433   3.062   6.357   8.266  1.1471  0.7416  2.6428
    6CHL1  H24B  434   3.243   6.368   8.233  0.3994 -0.5319  0.1112
    6CHL1   C25  435   3.128   6.404   8.060  0.7695 -0.5071 -0.1885
    6CHL1   H25  436   3.104   6.324   7.987 -1.6546 -0.7252  0.7726
    6CHL1   C26  437   2.996   6.490   8.065 -0.2801  0.0082 -0.0606
    6CHL1  H26A  438   2.911   6.423   8.090 -0.3328  0.9465  2.4773
    6CHL1  H26B  439   3.005   6.571   8.140  0.1087 -1.4964  1.5640
    6CHL1  H26C  440   2.985   6.529   7.962  3.2328  0.3479 -0.3778
    6CHL1   C27  441   3.247   6.486   8.016  0.0168  0.5907 -0.2879
    6CHL1  H27A  442   3.237   6.523   7.912 -1.6676 -2.4439 -1.3017
    6CHL1  H27B  443   3.261   6.576   8.080 -0.2507  0.2483  0.2673
    6CHL1  H27C  444   3.338   6.423   8.023 -1.0335 -1.0512 -1.0286
    7CHL1    C3  445   4.980   1.365   9.265 -0.1270 -0.1627  0.6390
    7CHL1    H3  446   4.927   1.268   9.265  1.7724 -1.2378 -2.2811
    7CHL1    O3  447   5.024   1.380   9.401 -0.0709  0.7036 -0.2470
    7CHL1   H3'  448   5.090   1.310   9.404 -0.1650  0.4570 -2.6938
    7CHL1    C4  449   5.104   1.374   9.171  0.1815 -0.2464  0.5419
    7CHL1   H4A  450   5.162   1.465   9.197 -2.4515  1.4213  0.7503
    7CHL1   H4B  451   5.171   1.288   9.192  0.5987  0.2875  1.3851
    7CHL1    C5  452   5.066   1.376   9.024  0.3328  0.3832 -0.2470
    7CHL1    C6  453   5.110   1.280   8.940  0.5270  0.0754 -0.3366
    7CHL1    H6  454   5.186   1.209   8.976  2.1468  0.9076 -2.0588
    7CHL1    C7  455   5.078   1.280   8.793 -0.7188  0.5965 -0.7873
    7CHL1   H7A  456   5.171   1.295   8.734 -0.0145 -0.3708  0.0481
    7CHL1   H7B  457   5.015   1.194   8.760  1.1125 -0.4170 -1.7238
    7CHL1    C8  458   4.997   1.411   8.753 -0.3160  0.3271  0.2502
    7CHL1    H8  459   5.070   1.493   8.737 -2.0179  1.3755 -2.3132
    7CHL1   C14  460   4.931   1.393   8.618  0.4671  0.0993 -0.7346
    7CHL1   H14  461   4.855   1.316   8.641  0.9134 -0.6293 -1.6810
    7CHL1   C15  462   5.014   1.322   8.503  0.6679 -0.3849 -0.0154
    7CHL1  H15A  463   5.122   1.347   8.487  0.8879 -0.8583  0.7156
    7CHL1  H15B  464   5.015   1.214   8.527  1.8232 -0.7522 -1.6730
    7CHL1   C16  465   4.935   1.361   8.373  0.5041 -0.0409  0.8899
    7CHL1  H16A  466   5.002   1.423   8.310  1.5847 -1.0012  1.0701
    7CHL1  H16B  467   4.897   1.266   8.329 -1.6703 -0.0930  2.8221
    7CHL1   C17  468   4.815   1.454   8.426  0.2772  0.6028 -0.5726
    7CHL1   H17  469   4.734   1.382   8.451  2.2908 -1.1800  0.9922
    7CHL1   C13  470   4.860   1.507   8.559  0.1416  0.3029 -0.0458
    7CHL1   C18  471   4.956   1.620   8.532 -0.4120  0.0670  0.6889
    7CHL1  H18A  472   4.898   1.701   8.484  0.5396  0.6945  0.5946
    7CHL1  H18B  473   5.002   1.659   8.625  0.0237 -1.7542  1.2534
    7CHL1  H18C  474   5.038   1.586   8.464 -1.1706 -0.4974  0.0493
    7CHL1   C12  475   4.747   1.549   8.658 -0.3648 -0.3150  0.2696
    7CHL1  H12A  476   4.693   1.638   8.620  2.6029 -0.0111 -3.4579
    7CHL1  H12B  477   4.675   1.466   8.672  0.4068 -1.1965 -0.8832
    7CHL1   C11  478   4.802   1.578   8.798 -0.2447  0.0784  0.1573
    7CHL1  H11A  479   4.862   1.672   8.803  0.8371 -0.5635 -0.4488
    7CHL1  H11B  480   4.715   1.582   8.867 -0.4120 -2.4788  0.1397
    7CHL1    C9  481   4.893   1.458   8.854 -0.5876  0.0836  0.0891
    7CHL1    H9  482   4.815   1.379   8.856 -1.6238  1.1155  1.4878
    7CHL1   C10  483   4.958   1.484   8.989  0.1396  0.2286 -0.7676
    7CHL1   C19  484   5.024   1.623   8.999  0.4526  0.4116 -0.7372
    7CHL1  H19A  485   5.108   1.637   8.927  0.9226  1.6435  0.0354
    7CHL1  H19B  486   4.947   1.701   8.983 -0.3625  0.1734  1.7720
    7CHL1  H19C  487   5.060   1.643   9.102  0.2303  0.1471 -0.6097
    7CHL1    C1  488   4.837   1.483   9.094 -0.7277 -0.2240  0.0080
    7CHL1   H1A  489   4.775   1.574   9.075 -1.5183 -0.2648  2.2712
    7CHL1   H1B  490   4.780   1.389   9.083  0.6782 -1.3821  2.2766
    7CHL1    C2  491   4.881   1.479   9.238 -0.3485  0.1264 -0.2721
    7CHL1   H2A  492   4.797   1.462   9.309  0.2729  0.7534  0.6213
    7CHL1   H2B  493   4.935   1.573   9.262  2.2342 -0.3471 -3.9169
    7CHL1   C20  494   4.759   1.545   8.315  0.3741 -0.0401  0.5861
    7CHL1   H20  495   4.803   1.647   8.313  0.2102  0.0177 -1.1136
    7CHL1   C21  496   4.605   1.567   8.344 -0.4512  0.4904  0.4023
    7CHL1  H21A  497   4.565   1.648   8.279  1.2813  1.4476  0.5016
    7CHL1  H21B  498   4.588   1.594   8.450 -0.8908  0.9126  0.2300
    7CHL1  H21C  499   4.558   1.470   8.317  3.3048 -0.9392 -1.4255
    7CHL1   C22  500   4.773   1.472   8.179 -0.3091 -0.6250  0.3170
    7CHL1  H22A  501   4.878   1.483   8.145 -1.0653  0.1327 -1.8249
    7CHL1  H22B  502   4.753   1.362   8.186  1.0294 -0.8297  1.0945
    7CHL1   C23  503   4.686   1.540   8.068  0.0552 -0.3241  0.6231
    7CHL1  H23A  504   4.577   1.523   8.078 -0.6156  1.1754 -3.4076
    7CHL1  H23B  505   4.702   1.649   8.062 -3.0106  0.2020  1.1459
    7CHL1   C24  506   4.727   1.475   7.931 -0.0380  0.3146 -0.0459
    7CHL1  H24A  507   4.837   1.484   7.917  0.0558 -2.5828 -1.5629
    7CHL1  H24B  508   4.717   1.365   7.950  0.5013  0.4428  1.0770
    7CHL1   C25  509   4.641   1.509   7.817  0.4271 -0.5726 -0.3651
    7CHL1   H25  510   4.650   1.616   7.787  2.9468  0.1706  2.7887
    7CHL1   C26  511   4.686   1.439   7.687 -0.0862 -0.3315 -0.6230
    7CHL1  H26A  512   4.670   1.329   7.698  3.5313 -1.0696 -1.8994
    7CHL1  H26B  513   4.638   1.480   7.596  0.6216  0.6534 -0.5526
    7CHL1  H26C  514   4.797   1.443   7.677  0.0676  1.6025  1.5399
    7CHL1   C27  515   4.487   1.486   7.842  0.3089  0.4342  0.1675
    7CHL1  H27A  516   4.445   1.566   7.908  0.9451 -0.7490  2.0659
    7CHL1  H27B  517   4.429   1.488   7.748 -0.4292 -1.1025  0.5707
    7CHL1  H27C  518   4.468   1.389   7.894 -0.6760 -1.0714 -2.9168
    8CHL1    C3  519   5.640   3.555   9.392 -0.6257 -0.9679  0.5113
    8CHL1    H3  520   5.739   3.506   9.396  0.0042  0.3540  1.6075
    8CHL1    O3  521   5.597   3.548   9.528  0.0029  0.6646  0.0112
    8CHL1   H3'  522   5.654   3.610   9.574  0.6225  1.4708 -1.8004
    8CHL1    C4  523   5.646   3.697   9.338  0.3790  0.7841  0.8379
    8CHL1   H4A  524   5.550   3.751   9.352  1.5254  2.3550  3.1034
    8CHL1   H4B  525   5.727   3.738   9.402  2.8410 -3.9397  0.9259
    8CHL1    C5  526   5.681   3.705   9.198  0.0610 -0.0283  0.1804
    8CHL1    C6  527   5.783   3.780   9.164  0.2953  0.6177 -0.1027
    8CHL1    H6  528   5.840   3.827   9.245 -0.6577 -1.9531  2.1387
    8CHL1    C7  529   5.821   3.810   9.016  0.2247  0.1857  0.2921
    8CHL1   H7A  530   5.832   3.920   9.007  0.7125  0.0038 -1.3808
    8CHL1   H7B  531   5.918   3.769   8.980 -0.4460 -1.9198  0.8103
    8CHL1    C8  532   5.709   3.760   8.920  0.1701 -0.6781  0.3008
    8CHL1    H8  533   5.629   3.835   8.938 -1.1639 -2.4150  1.7176
    8CHL1   C14  534   5.752   3.766   8.773 -0.0857 -0.5906  0.1053
    8CHL1   H14  535   5.826   3.684   8.763 -2.2555 -2.6963  0.7716
    8CHL1   C15  536   5.816   3.893   8.717 -0.4412 -0.3936 -0.3092
    8CHL1  H15A  537   5.760   3.979   8.760 -1.6790 -1.6551  0.6268
    8CHL1  H15B  538   5.923   3.895   8.746 -0.3323  1.0062 -0.7211
    8CHL1   C16  539   5.794   3.888   8.567 -0.2402  0.5835 -0.6326
    8CHL1  H16A  540   5.741   3.982   8.544  2.0127  1.7611 -1.1556
    8CHL1  H16B  541   5.888   3.876   8.508 -0.0321 -2.4101  0.2038
    8CHL1   C17  542   5.711   3.766   8.535 -0.0623 -1.1373 -0.6448
    8CHL1   H17  543   5.786   3.686   8.520  1.6566  0.1395  0.8219
    8CHL1   C13  544   5.642   3.727   8.670 -0.1596  0.3570 -1.2726
    8CHL1   C18  545   5.511   3.808   8.700 -0.5782 -0.0944  0.7292
    8CHL1  H18A  546   5.549   3.912   8.693 -0.1822 -0.3642 -1.3825
    8CHL1  H18B  547   5.441   3.789   8.616 -1.5989  2.1153  1.0434
    8CHL1  H18C  548   5.473   3.783   8.801 -3.8049  0.5578 -0.2717
    8CHL1   C12  549   5.620   3.583   8.700 -0.4483  0.0949 -0.1730
    8CHL1  H12A  550   5.544   3.534   8.636  1.3743  0.5194 -2.7685
    8CHL1  H12B  551   5.712   3.522   8.681  0.9706  2.2040 -0.2303
    8CHL1   C11  552   5.574   3.559   8.846 -0.7219  0.1931  0.1631
    8CHL1  H11A  553   5.470   3.597   8.850 -0.6175  0.4350  0.6439
    8CHL1  H11B  554   5.574   3.451   8.872 -0.8842  0.8146  2.8738
    8CHL1    C9  555   5.660   3.624   8.959 -0.2908 -0.5418  0.0124
    8CHL1    H9  556   5.751   3.561   8.956  0.4547  0.4378  1.2915
    8CHL1   C10  557   5.596   3.627   9.101  0.4332 -0.1748 -0.1617
    8CHL1   C19  558   5.456   3.694   9.097 -0.5049  0.5916 -0.0028
    8CHL1  H19A  559   5.463   3.798   9.058 -0.5050  1.8100  3.1415
    8CHL1  H19B  560   5.387   3.632   9.035 -1.0362  2.4326 -1.3076
    8CHL1  H19C  561   5.404   3.701   9.195  0.8473  1.7141  0.6476
    8CHL1    C1  562   5.575   3.481   9.155 -0.1628  0.1768  0.0548
    8CHL1   H1A  563   5.487   3.445   9.098 -0.2214  0.5822 -0.1101
    8CHL1   H1B  564   5.657   3.407   9.137  0.2655 -0.0367  2.6555
    8CHL1    C2  565   5.540   3.474   9.311  0.6001 -0.3962  0.3875
    8CHL1   H2A  566   5.555   3.369   9.345 -1.6143 -0.2485  1.8956
    8CHL1   H2B  567   5.439   3.513   9.335 -0.5135 -2.4109 -0.8886
    8CHL1   C20  568   5.626   3.775   8.406 -0.2219 -0.4229  0.0878
    8CHL1   H20  569   5.565   3.684   8.422 -1.1556 -0.0603 -1.3399
    8CHL1   C21  570   5.720   3.761   8.287 -0.0762  0.3535  0.0760
    8CHL1  H21A  571   5.787   3.673   8.293  0.7449  1.0016  0.4938
    8CHL1  H21B  572   5.788   3.848   8.291 -2.1125  2.0909 -1.5907
    8CHL1  H21C  573   5.660   3.758   8.193 -3.1469  0.1435  1.9726
    8CHL1   C22  574   5.531   3.897   8.386 -0.0529  0.6307  0.3594
    8CHL1  H22A  575   5.495   3.946   8.479  2.7304  0.6860  1.4760
    8CHL1  H22B  576   5.588   3.976   8.331  0.4149  1.0318  1.4017
    8CHL1   C23  577   5.404   3.872   8.304  0.6721  0.5195  0.5977
    8CHL1  H23A  578   5.441   3.848   8.202 -0.8584  3.6127 -0.7470
    8CHL1  H23B  579   5.340   3.794   8.351 -0.6089  0.3475 -1.4001
    8CHL1   C24  580   5.308   3.989   8.281  0.6603  0.5130  0.1855
    8CHL1  H24A  581   5.222   3.949   8.223 -1.3896  1.1524  2.6798
    8CHL1  H24B  582   5.269   4.026   8.378  1.0118  0.6250  0.2821
    8CHL1   C25  583   5.362   4.117   8.214 -0.0946 -0.3406  0.0017
    8CHL1   H25  584   5.468   4.127   8.247 -0.5038  0.8976  0.9164
    8CHL1   C26  585   5.362   4.116   8.061  0.3393  0.0704 -0.0204
    8CHL1  H26A  586   5.256   4.091   8.037 -0.1567  2.0092  0.0972
    8CHL1  H26B  587   5.383   4.210   8.006  3.6292 -1.4307 -1.5201
    8CHL1  H26C  588   5.429   4.037   8.020  0.3684  0.7948 -1.3982
    8CHL1   C27  589   5.278   4.237   8.260  0.8154  0.5605 -0.3495
    8CHL1  H27A  590   5.329   4.326   8.217  1.3156  1.0790  1.2919
    8CHL1  H27B  591   5.181   4.238   8.206  0.2369 -2.5955  0.5379
    8CHL1  H27C  592   5.261   4.247   8.370 -1.0215  1.1131 -0.6524
    9CHL1    C3  593   3.136   6.375   9.468 -0.0712 -0.2514  0.2345
    9CHL1    H3  594   3.193   6.285   9.437 -1.0713 -0.5641 -0.7137
    9CHL1    O3  595   3.083   6.368   9.602  0.5071 -0.2620  0.1045
    9CHL1   H3'  596   3.053   6.458   9.613  0.0675 -0.7313  3.0166
    9CHL1    C4  597   3.226   6.492   9.461 -0.0013  0.0162  1.0117
    9CHL1   H4A  598   3.196   6.587   9.511  0.7530  0.9054 -0.2071
    9CHL1   H4B  599   3.315   6.460   9.519  2.8406  1.0056 -2.6381
    9CHL1    C5  600   3.263   6.527   9.316 -0.2642 -0.9983  0.1253
    9CHL1    C6  601   3.393   6.537   9.289 -0.2264 -0.5453 -0.3283
    9CHL1    H6  602   3.461   6.510   9.372  0.0506  0.8942 -0.0714
    9CHL1    C7  603   3.446   6.579   9.153  0.4214  0.0062 -0.4726
    9CHL1   H7A  604   3.523   6.658   9.167 -0.8844  1.4193 -1.2009
    9CHL1   H7B  605   3.483   6.490   9.098 -3.1618 -0.3460 -2.4346
    9CHL1    C8  606   3.331   6.626   9.054  0.5214  0.6131 -0.1054
    9CHL1    H8  607   3.299   6.726   9.091 -3.2864 -1.1673  1.6955
    9CHL1   C14  608   3.380   6.622   8.914 -1.0045 -1.1785  0.1782
    9CHL1   H14  609   3.405   6.516   8.891  0.5173 -1.1569  1.5881
    9CHL1   C15  610   3.512   6.700   8.884 -0.2893  0.8490  0.4026
    9CHL1  H15A  611   3.495   6.802   8.925 -0.9660  1.8835 -2.3608
    9CHL1  H15B  612   3.606   6.662   8.929  0.0273 -0.9009 -1.7047
    9CHL1   C16  613   3.513   6.706   8.730  0.7936 -0.8026  0.1543
    9CHL1  H16A  614   3.516   6.813   8.700 -1.4722 -1.0084 -0.9199
    9CHL1  H16B  615   3.594   6.655   8.674  0.9080 -0.0185 -0.4035
    9CHL1   C17  616   3.365   6.656   8.688 -0.8255 -0.1507  0.4948
    9CHL1   H17  617   3.380   6.547   8.678  0.8873  0.0048  1.2316
    9CHL1   C13  618   3.274   6.665   8.811 -0.1824 -0.4089 -0.3228
    9CHL1   C18  619   3.230   6.811   8.829  0.1810 -0.7854 -0.5071
    9CHL1  H18A  620   3.204   6.841   8.933  0.3807 -0.4100 -0.5647
    9CHL1  H18B  621   3.315   6.881   8.811  1.1069 -1.9648 -0.7816
    9CHL1  H18C  622   3.153   6.830   8.752  1.1090 -0.5348 -1.3924
    9CHL1   C12  623   3.163   6.559   8.814  0.1854 -0.3487  0.5326
    9CHL1  H12A  624   3.083   6.574   8.738  1.9532  1.8998 -0.9424
    9CHL1  H12B  625   3.213   6.462   8.796 -0.2532 -0.4272 -0.2876
    9CHL1   C11  626   3.102   6.561   8.957  0.4502 -0.6375  0.0910
    9CHL1  H11A  627   3.062   6.662   8.981  1.2740 -0.5919  1.3668
    9CHL1  H11B  628   3.019   6.488   8.966  1.5974 -2.0139 -0.2918
    9CHL1    C9  629   3.210   6.537   9.066  0.4621 -0.1565 -0.0903
    9CHL1    H9  630   3.250   6.434   9.054  0.4542  0.0001 -1.5200
    9CHL1   C10  631   3.151   6.537   9.212  0.4357 -0.2165  0.9989
    9CHL1   C19  632   3.075   6.672   9.252  0.6047 -0.0453  0.3192
    9CHL1  H19A  633   3.140   6.761   9.250  1.8250 -0.9479 -1.7642
    9CHL1  H19B  634   2.992   6.684   9.179  1.7843 -0.9516 -1.2043
    9CHL1  H19C  635   3.038   6.667   9.357  1.5219  1.4524  0.7335
    9CHL1    C1  636   3.060   6.414   9.232  0.0097 -0.2690  0.1952
    9CHL1   H1A  637   2.970   6.413   9.166  1.0605  3.3501 -1.3996
    9CHL1   H1B  638   3.116   6.323   9.203 -0.4970 -1.1007  1.7962
    9CHL1    C2  639   3.017   6.391   9.374  0.3238 -0.0333 -0.6351
    9CHL1   H2A  640   2.951   6.302   9.386  0.5669 -0.0078  0.9123
    9CHL1   H2B  641   2.959   6.483   9.396  1.5365  0.8038 -0.9180
    9CHL1   C20  642   3.312   6.701   8.551 -0.3478 -0.8651  0.0276
    9CHL1   H20  643   3.201   6.698   8.563 -0.1458  1.9937  3.0327
    9CHL1   C21  644   3.328   6.585   8.454  0.2254  0.5038  0.4536
    9CHL1  H21A  645   3.290   6.603   8.351 -1.8957 -2.3122  0.6713
    9CHL1  H21B  646   3.259   6.504   8.487  1.6234 -1.0651 -0.4107
    9CHL1  H21C  647   3.430   6.548   8.434 -0.3645 -0.1886 -1.3971
    9CHL1   C22  648   3.373   6.839   8.506  0.8848 -0.2089  0.0958
    9CHL1  H22A  649   3.354   6.912   8.587 -2.2532 -0.8896  0.0402
    9CHL1  H22B  650   3.484   6.843   8.499  0.8358  0.1746 -0.5024
    9CHL1   C23  651   3.316   6.895   8.374 -0.0003 -0.8101  0.0250
    9CHL1  H23A  652   3.322   6.813   8.299  1.3788 -1.1441  0.4872
    9CHL1  H23B  653   3.212   6.931   8.381  0.5969  0.8780  0.4390
    9CHL1   C24  654   3.396   7.020   8.329  0.4116  0.3381  0.4980
    9CHL1  H24A  655   3.363   7.107   8.390 -2.4912  0.9459 -1.8192
    9CHL1  H24B  656   3.504   7.000   8.342  0.6597  1.9798  1.1571
    9CHL1   C25  657   3.360   7.059   8.181 -0.2375  0.8912  0.2345
    9CHL1   H25  658   3.394   6.977   8.114 -0.4300  1.7414 -0.9362
    9CHL1   C26  659   3.215   7.096   8.166 -0.5537  0.1681 -0.7997
    9CHL1  H26A  660   3.190   7.162   8.252  0.0138 -0.3560 -0.2346
    9CHL1  H26B  661   3.195   7.137   8.064  1.4696  0.9826 -0.8923
    9CHL1  H26C  662   3.148   7.010   8.186 -0.2506  0.5246  1.9300
    9CHL1   C27  663   3.444   7.186   8.145  0.3708 -0.3469 -0.2047
    9CHL1  H27A  664   3.430   7.208   8.037  2.0117  1.4940 -0.0644
    9CHL1  H27B  665   3.432   7.278   8.205  0.1096 -1.0263  0.7873
    9CHL1  H27C  666   3.553   7.164   8.155  0.2764 -1.3241 -1.1612
   10CHL1    C3  667   0.748   4.413   9.560 -0.2752  0.1666  0.4239
   10CHL1    H3  668   0.658   4.373   9.509 -0.5700  0.8034  0.4344
   10CHL1    O3  669   0.731   4.407   9.700  0.3810 -0.3432 -0.5258
   10CHL1   H3'  670   0.804   4.450   9.745 -0.2571  0.4953 -0.2662
   10CHL1    C4  671   0.878   4.352   9.525  0.4440 -0.8263 -0.5689
   10CHL1   H4A  672   0.963   4.382   9.590  1.0109  2.2396 -2.6256
   10CHL1   H4B  673   0.859   4.243   9.531 -1.8583 -0.3574  1.1256
   10CHL1    C5  674   0.912   4.394   9.385  0.0500  0.1228 -0.1175
   10CHL1    C6  675   0.951   4.301   9.297  0.3955 -0.6630 -0.1114
   10CHL1    H6  676   0.959   4.197   9.331  0.5440 -0.4877  0.4052
   10CHL1    C7  677   0.972   4.332   9.155 -0.3052 -0.9650 -0.6858
   10CHL1   H7A  678   1.045   4.274   9.094 -2.1752 -0.1773 -3.7702
   10CHL1   H7B  679   0.879   4.307   9.100  0.2703  1.0741 -2.6597
   10CHL1    C8  680   1.000   4.484   9.107  0.3476  0.2321 -0.3580
   10CHL1    H8  681   1.102   4.516   9.139 -0.8477  2.3209  1.4984
   10CHL1   C14  682   0.991   4.498   8.959 -0.3528  0.3222  0.0175
   10CHL1   H14  683   0.887   4.468   8.932  0.1765 -3.0918  1.4895
   10CHL1   C15  684   1.079   4.423   8.865  0.4551 -0.4583  0.3584
   10CHL1  H15A  685   1.186   4.431   8.897  0.0704 -0.3809  1.6647
   10CHL1  H15B  686   1.031   4.323   8.863 -2.4544  0.9036  0.5601
   10CHL1   C16  687   1.051   4.498   8.730  0.0802 -0.4430 -0.0759
   10CHL1  H16A  688   1.155   4.525   8.701 -0.1206  0.0416 -0.3716
   10CHL1  H16B  689   1.007   4.441   8.645 -1.3341  0.5718 -0.0420
   10CHL1   C17  690   0.975   4.632   8.761 -0.1328  0.3789  0.3432
   10CHL1   H17  691   0.870   4.611   8.732 -0.3011 -0.7342  1.6868
   10CHL1   C13  692   0.995   4.645   8.914  0.5270  0.4516  0.2826
   10CHL1   C18  693   1.140   4.701   8.946 -0.0164 -0.0259  0.0563
   10CHL1  H18A  694   1.209   4.661   8.869  1.7378  1.7603  0.6565
   10CHL1  H18B  695   1.136   4.811   8.933 -0.7156  0.1689  1.8120
   10CHL1  H18C  696   1.178   4.673   9.046 -3.6978 -1.5367  1.1388
   10CHL1   C12  697   0.889   4.731   8.984  0.2766 -0.0882 -0.7865
   10CHL1  H12A  698   0.890   4.840   8.960  1.7551 -0.0281 -0.4769
   10CHL1  H12B  699   0.791   4.683   8.964 -0.6904  0.4816  2.4040
   10CHL1   C11  700   0.888   4.717   9.133 -0.3446 -0.5248 -0.1656
   10CHL1  H11A  701   0.988   4.758   9.158  0.1953 -0.6587 -2.0500
   10CHL1  H11B  702   0.804   4.775   9.177 -2.3064 -3.2339 -0.1751
   10CHL1    C9  703   0.893   4.569   9.180  0.2216  0.6226  0.2789
   10CHL1    H9  704   0.799   4.527   9.140 -0.8529  1.5873  1.7374
   10CHL1   C10  705   0.887   4.543   9.338 -0.5775  0.8096  0.4111
   10CHL1   C19  706   1.009   4.621   9.395 -0.5535 -0.5902 -0.2054
   10CHL1  H19A  707   1.097   4.581   9.341  2.1065  2.3022  1.7984
   10CHL1  H19B  708   1.006   4.729   9.367  0.2419 -0.1224  1.4884
   10CHL1  H19C  709   1.020   4.612   9.505 -1.3359 -2.3992 -0.2649
   10CHL1    C1  710   0.747   4.600   9.394 -0.2026 -0.5226 -0.6106
   10CHL1   H1A  711   0.756   4.710   9.382  3.0360 -0.7545 -0.6986
   10CHL1   H1B  712   0.666   4.559   9.330  2.1263 -2.4402 -2.3943
   10CHL1    C2  713   0.736   4.566   9.543  0.3524 -0.2233  0.6817
   10CHL1   H2A  714   0.644   4.618   9.577  0.1616 -0.2966  0.2739
   10CHL1   H2B  715   0.820   4.615   9.596  0.6390 -0.5794  0.5569
   10CHL1   C20  716   1.021   4.744   8.667  0.4013 -0.2217  0.3604
   10CHL1   H20  717   1.128   4.762   8.689  0.8746 -0.5851 -1.5016
   10CHL1   C21  718   0.936   4.875   8.679  0.0048  0.0180  0.3054
   10CHL1  H21A  719   0.826   4.863   8.664  0.1109 -0.1405 -0.3514
   10CHL1  H21B  720   0.974   4.952   8.609  1.3650  0.9538  2.0405
   10CHL1  H21C  721   0.938   4.916   8.782 -2.9391  1.6017 -0.1991
   10CHL1   C22  722   1.027   4.703   8.512  0.4302 -0.7819 -0.4006
   10CHL1  H22A  723   1.045   4.791   8.446  3.5934 -0.3610  0.9369
   10CHL1  H22B  724   1.108   4.628   8.502  0.3089 -1.1935  1.5263
   10CHL1   C23  725   0.900   4.628   8.461 -0.0820  0.8728  0.7470
   10CHL1  H23A  726   0.894   4.532   8.517  0.4837  0.3092 -0.1324
   10CHL1  H23B  727   0.814   4.691   8.491 -0.7101 -0.4250  1.6864
   10CHL1   C24  728   0.906   4.607   8.322  0.4796 -0.6117  0.0066
   10CHL1  H24A  729   1.005   4.563   8.298  0.4900 -0.4179 -0.3080
   10CHL1  H24B  730   0.833   4.530   8.291 -0.7434  1.2875 -2.0144
   10CHL1   C25  731   0.854   4.722   8.238 -0.4220  0.2409  0.4685
   10CHL1   H25  732   0.919   4.808   8.263  2.6958 -2.0745  0.6072
   10CHL1   C26  733   0.871   4.705   8.085 -0.2655  0.3256 -0.1671
   10CHL1  H26A  734   0.977   4.681   8.060  0.1873  0.7913  1.2146
   10CHL1  H26B  735   0.804   4.619   8.066 -0.1249 -0.0539  1.0131
   10CHL1  H26C  736   0.848   4.803   8.037 -0.0032  0.8851  0.8324
   10CHL1   C27  737   0.708   4.775   8.262 -0.6680  0.4558  0.5826
   10CHL1  H27A  738   0.683   4.853   8.188  0.0394  0.3212  0.2026
   10CHL1  H27B  739   0.637   4.690   8.253 -0.7406  0.7056 -1.3922
   10CHL1  H27C  740   0.696   4.827   8.360 -0.4434 -1.3736  1.6185
   11CHL1    C3  741   2.601   1.111   9.457  0.7085  0.0582 -0.7335
   11CHL1    H3  742   2.542   1.202   9.481 -0.1618 -1.5383  3.5047
   11CHL1    O3  743   2.648   1.061   9.580 -0.6262  0.2960 -0.3557
   11CHL1   H3'  744   2.704   1.132   9.613 -0.4457  0.7279 -1.5856
   11CHL1    C4  745   2.503   1.004   9.403  0.4015 -0.0226  0.8067
   11CHL1   H4A  746   2.555   0.906   9.413  2.3710  1.0031  0.8363
   11CHL1   H4B  747   2.416   1.002   9.473 -0.0183  1.6443  0.3466
   11CHL1    C5  748   2.463   1.018   9.256  0.2402 -0.1359 -0.9056
   11CHL1    C6  749   2.340   1.024   9.210  0.1582  0.6605  0.0419
   11CHL1    H6  750   2.260   1.020   9.286  1.9174 -0.9578  1.8816
   11CHL1    C7  751   2.299   1.032   9.062  0.3675  0.0778 -0.5707
   11CHL1   H7A  752   2.210   0.972   9.034 -1.0189  1.6554  0.3168
   11CHL1   H7B  753   2.273   1.139   9.046  0.3621  0.5270  2.2712
   11CHL1    C8  754   2.413   0.993   8.963  0.0561 -0.4080 -0.8949
   11CHL1    H8  755   2.422   0.883   8.974  0.6997 -0.2937 -0.1765
   11CHL1   C14  756   2.386   1.021   8.821  0.8260 -0.7243  0.7435
   11CHL1   H14  757   2.366   1.130   8.814  0.6497 -0.5552  3.2205
   11CHL1   C15  758   2.261   0.951   8.756  0.5453 -0.3279  0.1952
   11CHL1  H15A  759   2.259   0.840   8.768 -2.1859 -0.0890  2.4626
   11CHL1  H15B  760   2.164   0.996   8.787  1.5585  0.6841  1.9873
   11CHL1   C16  761   2.292   0.976   8.605 -0.0085 -0.2208 -0.1420
   11CHL1  H16A  762   2.298   0.880   8.550 -0.5422 -0.2223 -0.2007
   11CHL1  H16B  763   2.224   1.035   8.540  0.4204 -1.9540 -2.2112
   11CHL1   C17  764   2.444   1.036   8.590  0.2925 -0.1257  0.3590
   11CHL1   H17  765   2.428   1.146   8.584 -1.4856 -0.2555  2.0643
   11CHL1   C13  766   2.505   1.001   8.723  0.2370 -0.0393  1.2648
   11CHL1   C18  767   2.545   0.853   8.733  0.3854  0.8046  0.4548
   11CHL1  H18A  768   2.631   0.833   8.665 -0.4357 -0.3122 -0.2755
   11CHL1  H18B  769   2.575   0.826   8.836  3.3752 -0.2092 -0.6359
   11CHL1  H18C  770   2.457   0.791   8.706 -0.4548  2.1547  0.0433
   11CHL1   C12  771   2.617   1.098   8.770  0.1547  0.0718 -0.7521
   11CHL1  H12A  772   2.701   1.105   8.698  0.0391 -0.2167 -0.9149
   11CHL1  H12B  773   2.575   1.201   8.779  1.3277  0.3546  1.8046
   11CHL1   C11  774   2.661   1.061   8.919  0.0227  0.2415  0.7271
   11CHL1  H11A  775   2.702   0.958   8.908  2.1651  1.3082 -1.6822
   11CHL1  H11B  776   2.748   1.122   8.952  1.1575  0.9430 -3.2907
   11CHL1    C9  777   2.542   1.066   9.016 -0.4903  0.6042  0.3540
   11CHL1    H9  778   2.496   1.168   9.017 -0.3814  0.6701 -0.9341
   11CHL1   C10  779   2.581   1.031   9.162 -0.4432  0.0476  0.4674
   11CHL1   C19  780   2.666   0.899   9.165  0.0535  0.3874 -0.2736
   11CHL1  H19A  781   2.617   0.809   9.122 -0.1926  0.2681  0.2547
   11CHL1  H19B  782   2.753   0.916   9.098  0.4384  1.7033  0.5376
   11CHL1  H19C  783   2.710   0.867   9.262 -0.8359  0.4955  0.1665
   11CHL1    C1  784   2.682   1.143   9.213 -0.2441 -0.4913  0.5960
   11CHL1   H1A  785   2.779   1.147   9.159 -0.1887  1.6393  0.8155
   11CHL1   H1B  786   2.635   1.240   9.185 -0.6339 -0.9924 -0.5166
   11CHL1    C2  787   2.719   1.138   9.367 -0.3282  0.1390 -0.3575
   11CHL1   H2A  788   2.771   1.235   9.385 -1.0671  0.1993  1.5919
   11CHL1   H2B  789   2.803   1.067   9.383  0.2218  0.6899 -0.7847
   11CHL1   C20  790   2.510   0.979   8.462  0.1554  0.6515 -0.1579
   11CHL1   H20  791   2.517   0.868   8.467 -1.1976  0.5406 -0.5405
   11CHL1   C21  792   2.655   1.038   8.456  0.0201  0.4089  0.3647
   11CHL1  H21A  793   2.708   1.024   8.360 -2.2097  0.0392 -0.8288
   11CHL1  H21B  794   2.722   0.992   8.532 -2.4895 -0.6963  1.9550
   11CHL1  H21C  795   2.651   1.148   8.471 -1.1379  0.1816  1.7868
   11CHL1   C22  796   2.422   1.001   8.333 -0.7053  0.2621 -0.2085
   11CHL1  H22A  797   2.333   0.937   8.352  0.2942 -0.7495  1.1839
   11CHL1  H22B  798   2.399   1.108   8.316 -1.2235  0.3919  1.2402
   11CHL1   C23  799   2.483   0.942   8.205  0.2606 -0.7889 -0.3253
   11CHL1  H23A  800   2.573   0.998   8.170 -1.2379  0.9285 -1.4778
   11CHL1  H23B  801   2.524   0.841   8.229 -1.1507 -1.6668 -1.5356
   11CHL1   C24  802   2.385   0.933   8.081  0.8271  0.0616 -0.6189
   11CHL1  H24A  803   2.360   1.041   8.075  0.3467 -0.0057  0.1085
   11CHL1  H24B  804   2.441   0.901   7.991  3.9040  0.9321  0.8980
   11CHL1   C25  805   2.247   0.863   8.105  0.8636  0.5009  0.2466
   11CHL1   H25  806   2.206   0.937   8.177  1.6584  1.3622 -0.1641
   11CHL1   C26  807   2.160   0.854   7.976  0.3863 -0.4316  0.2213
   11CHL1  H26A  808   2.055   0.824   7.997  0.8210 -2.1545 -0.0150
   11CHL1  H26B  809   2.162   0.952   7.923  1.1190  0.2570  1.4843
   11CHL1  H26C  810   2.212   0.781   7.911  0.5143 -0.4639  0.3589
   11CHL1   C27  811   2.259   0.722   8.167  0.6425  0.5630  0.3335
   11CHL1  H27A  812   2.279   0.712   8.276  0.6229  0.0342  0.2908
   11CHL1  H27B  813   2.160   0.675   8.154  1.3591 -1.0309  0.5253
   11CHL1  H27C  814   2.326   0.653   8.112 -0.9478 -0.3516 -0.4815
   12CHL1    C3  815   0.657   2.777   9.352  0.0207  0.0737  0.8339
   12CHL1    H3  816   0.684   2.883   9.372  3.6885 -0.2273 -1.9552
   12CHL1    O3  817   0.639   2.712   9.479 -0.2954 -0.0281 -0.6358
   12CHL1   H3'  818   0.567   2.757   9.524  0.8317  1.2599 -0.0775
   12CHL1    C4  819   0.511   2.784   9.296  0.2250  0.1176  0.2507
   12CHL1   H4A  820   0.468   2.682   9.299  2.1968 -0.7039  1.2308
   12CHL1   H4B  821   0.450   2.847   9.364 -0.3562 -1.2839  1.0345
   12CHL1    C5  822   0.504   2.828   9.145  0.3752  0.8258 -1.1656
   12CHL1    C6  823   0.419   2.919   9.108 -0.1412 -0.6250  0.3511
   12CHL1    H6  824   0.362   2.970   9.187 -0.4563  0.5038 -0.6000
   12CHL1    C7  825   0.397   2.962   8.964  0.7068 -0.4234 -0.3689
   12CHL1   H7A  826   0.290   2.973   8.940  0.4247  2.6101  2.0292
   12CHL1   H7B  827   0.440   3.064   8.952 -3.2640  1.3096 -0.5879
   12CHL1    C8  828   0.467   2.865   8.864 -0.5316 -0.3022 -0.3327
   12CHL1    H8  829   0.397   2.779   8.855 -0.6735 -0.0122 -2.1723
   12CHL1   C14  830   0.472   2.917   8.720  0.2346 -0.3606  0.2071
   12CHL1   H14  831   0.546   2.999   8.719  1.2912 -1.2833  0.9747
   12CHL1   C15  832   0.338   2.963   8.657  0.1373  0.0290  0.6577
   12CHL1  H15A  833   0.256   2.890   8.673 -1.0586  1.4761  1.2503
   12CHL1  H15B  834   0.314   3.060   8.705  1.0204  0.6177 -0.0694
   12CHL1   C16  835   0.368   2.971   8.507  0.1392  0.1724 -0.0205
   12CHL1  H16A  836   0.283   2.927   8.451 -0.5444  0.8267  0.5055
   12CHL1  H16B  837   0.370   3.079   8.481  0.2639  0.4076  0.9650
   12CHL1   C17  838   0.506   2.895   8.487 -0.4502 -0.1037 -0.0539
   12CHL1   H17  839   0.588   2.970   8.486  1.3228 -2.0194 -2.7390
   12CHL1   C13  840   0.534   2.821   8.621 -0.3140 -1.0501 -0.8954
   12CHL1   C18  841   0.454   2.687   8.620 -0.1471  0.3557 -0.3483
   12CHL1  H18A  842   0.463   2.631   8.715 -0.1636 -0.6546 -0.9314
   12CHL1  H18B  843   0.344   2.704   8.611 -0.4210 -0.9558  0.4173
   12CHL1  H18C  844   0.476   2.618   8.536 -3.0346 -0.6959 -0.2955
   12CHL1   C12  845   0.684   2.806   8.665  0.8393  0.2398 -0.5304
   12CHL1  H12A  846   0.741   2.735   8.602 -3.3083 -2.4851 -1.3945
   12CHL1  H12B  847   0.737   2.903   8.651  1.3620  0.1092  0.5204
   12CHL1   C11  848   0.691   2.756   8.809 -0.8764 -0.0696 -0.4680
   12CHL1  H11A  849   0.664   2.650   8.789  0.7430 -0.6606  0.3372
   12CHL1  H11B  850   0.799   2.742   8.831 -0.6673 -0.2173 -1.5771
   12CHL1    C9  851   0.613   2.825   8.910  0.4168 -0.9213  0.1594
   12CHL1    H9  852   0.656   2.926   8.928 -0.9789  0.0955 -2.0234
   12CHL1   C10  853   0.608   2.754   9.056 -0.5905 -0.0415  0.5675
   12CHL1   C19  854   0.576   2.608   9.037 -0.1555 -0.2307 -0.6200
   12CHL1  H19A  855   0.658   2.555   8.983  0.2116 -1.3963  1.0379
   12CHL1  H19B  856   0.568   2.564   9.138 -0.7588  0.1409 -0.5069
   12CHL1  H19C  857   0.478   2.597   8.986 -1.5319 -2.4825  2.3810
   12CHL1    C1  858   0.752   2.764   9.120  0.7621 -0.6486  0.2624
   12CHL1   H1A  859   0.825   2.712   9.054 -0.2771  0.7784 -2.0912
   12CHL1   H1B  860   0.780   2.871   9.117 -0.6485 -0.2672  0.3290
   12CHL1    C2  861   0.761   2.704   9.259  0.0105  0.4854 -0.4089
   12CHL1   H2A  862   0.868   2.697   9.287 -0.5826 -0.7827  1.6618
   12CHL1   H2B  863   0.727   2.599   9.243 -0.9628  0.0097  3.9459
   12CHL1   C20  864   0.507   2.825   8.353  0.7473  0.0105 -0.2391
   12CHL1   H20  865   0.432   2.743   8.351  1.4426 -0.6467  0.4079
   12CHL1   C21  866   0.645   2.767   8.328  0.0669  0.5953  0.2352
   12CHL1  H21A  867   0.655   2.676   8.391  0.4661  0.3106 -0.2310
   12CHL1  H21B  868   0.729   2.839   8.342  1.3964 -1.1391  1.4004
   12CHL1  H21C  869   0.661   2.739   8.222  1.3579 -0.6948  0.7478
   12CHL1   C22  870   0.488   2.932   8.244  0.9817  0.2048  0.6752
   12CHL1  H22A  871   0.402   2.998   8.268 -0.0337 -0.9140  0.1621
   12CHL1  H22B  872   0.576   3.000   8.243  2.0778 -1.1972  0.4726
   12CHL1   C23  873   0.464   2.864   8.099 -0.6501  0.1338 -0.4527
   12CHL1  H23A  874   0.564   2.852   8.053 -0.5628  1.8028 -0.7477
   12CHL1  H23B  875   0.414   2.765   8.110 -1.2158  0.5609  1.0543
   12CHL1   C24  876   0.378   2.945   7.998 -0.1183  0.3982  0.6714
   12CHL1  H24A  877   0.276   2.902   8.007  0.4337 -0.9493  0.5442
   12CHL1  H24B  878   0.373   3.049   8.037  2.5509  1.3854 -1.3951
   12CHL1   C25  879   0.426   2.950   7.849 -0.2576 -0.5619  0.1491
   12CHL1   H25  880   0.524   3.003   7.843 -0.1715 -0.8028 -0.7288
   12CHL1   C26  881   0.442   2.814   7.784  0.0446  0.3323  0.8914
   12CHL1  H26A  882   0.468   2.808   7.676 -0.7398  1.5309  0.6185
   12CHL1  H26B  883   0.526   2.755   7.826  0.5991  1.0774  0.8356
   12CHL1  H26C  884   0.347   2.757   7.790 -0.1412  0.3481 -1.4561
   12CHL1   C27  885   0.335   3.041   7.758 -0.4536  0.3993 -0.5442
   12CHL1  H27A  886   0.228   3.014   7.772 -1.0227  2.2021 -1.3263
   12CHL1  H27B  887   0.348   3.150   7.775 -3.5055  0.6163  0.8895
   12CHL1  H27C  888   0.361   3.019   7.652  0.0598  2.8095 -0.9319
   13CHL1    C3  889   6.156   4.254   9.539 -0.4786 -0.7133  0.1508
   13CHL1    H3  890   6.181   4.354   9.579  3.4560 -1.7129  0.4865
   13CHL1    O3  891   6.142   4.172   9.656 -0.1196  0.4390  0.6251
   13CHL1   H3'  892   6.064   4.209   9.697  1.6010  3.4288  1.3242
   13CHL1    C4  893   6.022   4.266   9.463 -0.7918 -0.6191 -0.0051
   13CHL1   H4A  894   5.957   4.176   9.476 -1.7456 -0.1850 -1.6764
   13CHL1   H4B  895   5.959   4.341   9.515  0.1230 -0.6302  1.1344
   13CHL1    C5  896   6.024   4.305   9.318  0.4719  0.6367 -0.4648
   13CHL1    C6  897   5.949   4.405   9.271  1.0234  0.0861 -0.0199
   13CHL1    H6  898   5.871   4.452   9.333 -0.4830 -1.3298 -0.7983
   13CHL1    C7  899   5.940   4.442   9.124  0.1287 -0.1439  0.1460
   13CHL1   H7A  900   5.837   4.449   9.085 -0.5073  1.7134  2.0646
   13CHL1   H7B  901   5.985   4.544   9.125 -0.7975  0.2636  1.1814
   13CHL1    C8  902   6.006   4.342   9.033  0.1831 -0.0513 -0.1267
   13CHL1    H8  903   5.925   4.266   9.023  0.6000 -0.5064 -0.0803
   13CHL1   C14  904   6.038   4.418   8.898 -0.1416  0.2511 -0.5891
   13CHL1   H14  905   6.112   4.493   8.932 -1.8210  2.5307 -1.8561
   13CHL1   C15  906   5.927   4.494   8.833  0.4856  0.0759 -0.4860
   13CHL1  H15A  907   5.837   4.430   8.821 -0.3474  1.2298 -0.4922
   13CHL1  H15B  908   5.903   4.592   8.879  2.6256  0.1659  0.5104
   13CHL1   C16  909   5.986   4.518   8.687  0.3271 -0.2300  0.5140
   13CHL1  H16A  910   5.912   4.475   8.616 -0.4753  0.4363  0.9437
   13CHL1  H16B  911   5.992   4.626   8.662  1.7237  0.2540  2.7249
   13CHL1   C17  912   6.121   4.441   8.684  0.5513 -0.5079  0.6575
   13CHL1   H17  913   6.199   4.509   8.725  0.0707 -0.1229  0.9395
   13CHL1   C13  914   6.109   4.330   8.792  0.3272 -0.4956  0.1530
   13CHL1   C18  915   6.028   4.207   8.758  0.8843  0.4898 -0.3270
   13CHL1  H18A  916   6.094   4.131   8.712  0.0104 -0.2270 -0.4333
   13CHL1  H18B  917   5.988   4.159   8.850  0.8871  2.5196  0.7524
   13CHL1  H18C  918   5.938   4.239   8.701  0.2194  1.2368  1.1109
   13CHL1   C12  919   6.233   4.283   8.854 -0.4375 -0.3506 -0.1951
   13CHL1  H12A  920   6.306   4.228   8.790 -3.2066 -3.1456 -1.0467
   13CHL1  H12B  921   6.295   4.369   8.888 -1.4647  0.6224 -0.7525
   13CHL1   C11  922   6.208   4.206   8.986 -0.3365  0.6164  1.2327
   13CHL1  H11A  923   6.149   4.114   8.968  0.1334  0.7735 -1.3254
   13CHL1  H11B  924   6.303   4.172   9.032 -0.5239 -0.7853  0.5990
   13CHL1    C9  925   6.138   4.291   9.086 -0.6583 -0.3325 -0.1285
   13CHL1    H9  926   6.202   4.380   9.101 -1.0874 -0.2100  0.9836
   13CHL1   C10  927   6.130   4.237   9.234  0.1620  0.0864 -0.2225
   13CHL1   C19  928   6.104   4.097   9.224  0.0248 -0.1032 -0.0354
   13CHL1  H19A  929   6.083   4.037   9.316 -0.0480 -1.6641 -1.0423
   13CHL1  H19B  930   6.016   4.082   9.159 -0.4500 -0.6110  0.7137
   13CHL1  H19C  931   6.187   4.040   9.177 -0.4993 -2.0406  1.3006
   13CHL1    C1  932   6.265   4.251   9.307 -0.0152 -0.0151  0.4785
   13CHL1   H1A  933   6.352   4.220   9.245 -0.0924 -1.3662  1.0375
   13CHL1   H1B  934   6.293   4.358   9.321 -0.8272  0.1494  0.8575
   13CHL1    C2  935   6.268   4.193   9.452 -0.4764  0.0286  0.4288
   13CHL1   H2A  936   6.367   4.222   9.494 -0.9161 -1.6715  2.7601
   13CHL1   H2B  937   6.269   4.082   9.461  3.0805  0.0823  1.8171
   13CHL1   C20  938   6.168   4.415   8.541 -0.5102 -0.2214 -0.0135
   13CHL1   H20  939   6.255   4.347   8.548 -0.3611 -0.2074 -1.4913
   13CHL1   C21  940   6.218   4.551   8.487 -0.6766 -0.1906 -0.7994
   13CHL1  H21A  941   6.318   4.575   8.531 -1.3913 -0.8338  1.2095
   13CHL1  H21B  942   6.161   4.642   8.516  1.8169  1.4367 -0.7765
   13CHL1  H21C  943   6.235   4.552   8.377  0.8767 -3.0973 -0.6358
   13CHL1   C22  944   6.079   4.345   8.436  0.4563  0.1986 -0.7378
   13CHL1  H22A  945   6.017   4.271   8.490  0.1425  1.0999  0.1626
   13CHL1  H22B  946   6.002   4.408   8.387  1.6180  1.1357 -1.4130
   13CHL1   C23  947   6.156   4.264   8.330  0.0603 -0.3882 -0.5655
   13CHL1  H23A  948   6.230   4.321   8.271  2.8985 -1.5351  1.7606
   13CHL1  H23B  949   6.220   4.183   8.371 -0.6784  1.0683  3.7165
   13CHL1   C24  950   6.060   4.188   8.234 -0.1122 -0.0178  0.2163
   13CHL1  H24A  951   5.998   4.121   8.298  0.5889 -0.2621  0.6458
   13CHL1  H24B  952   5.990   4.265   8.195  1.3905  1.7251  0.8709
   13CHL1   C25  953   6.129   4.106   8.120  0.8559  0.0944  0.7676
   13CHL1   H25  954   6.193   4.183   8.072 -0.2254  1.1000  0.9137
   13CHL1   C26  955   6.220   3.995   8.169 -0.2711  0.2771 -0.0821
   13CHL1  H26A  956   6.155   3.944   8.244  2.0098  0.2282  1.9329
   13CHL1  H26B  957   6.253   3.927   8.087  0.2263  0.9182 -0.4183
   13CHL1  H26C  958   6.307   4.030   8.229 -0.6419  1.4225 -0.2206
   13CHL1   C27  959   6.021   4.048   8.026  0.5749 -0.4688  0.4053
   13CHL1  H27A  960   5.944   4.116   7.983  2.7582  0.0250 -2.9005
   13CHL1  H27B  961   6.067   3.983   7.949 -0.2260 -1.2620  0.5889
   13CHL1  H27C  962   5.957   3.979   8.086  0.0685 -1.3378 -1.1182
   14CHL1    C3  963   4.408   0.806   9.565  0.2361  0.2564 -0.2589
   14CHL1    H3  964   4.477   0.722   9.545 -0.0719 -0.7043  2.5148
   14CHL1    O3  965   4.395   0.799   9.710 -0.1859  0.1057  0.1025
   14CHL1   H3'  966   4.317   0.849   9.732  0.8886  3.2187 -2.7905
   14CHL1    C4  967   4.467   0.935   9.535  0.3539  0.8318 -0.3222
   14CHL1   H4A  968   4.394   1.015   9.562  0.6125  0.3700  1.9052
   14CHL1   H4B  969   4.549   0.943   9.610 -0.8966 -0.4553  1.2310
   14CHL1    C5  970   4.505   0.953   9.394 -0.5678  0.5716  0.4579
   14CHL1    C6  971   4.631   0.983   9.356 -0.4432  0.1208  0.7428
   14CHL1    H6  972   4.707   1.007   9.432  0.2709 -1.7633  0.6351
   14CHL1    C7  973   4.672   0.995   9.213  0.1848 -0.1753  0.1524
   14CHL1   H7A  974   4.725   1.093   9.203 -0.4256  0.0364 -1.0088
   14CHL1   H7B  975   4.744   0.917   9.178 -0.0319 -0.1204 -0.4135
   14CHL1    C8  976   4.550   1.008   9.116 -0.8624 -0.1666 -0.9366
   14CHL1    H8  977   4.506   1.109   9.128  0.0079  0.4370 -2.6039
   14CHL1   C14  978   4.611   0.999   8.973  1.0870  0.9282 -0.2317
   14CHL1   H14  979   4.664   0.902   8.963 -1.1636 -0.3862  0.1178
   14CHL1   C15  980   4.725   1.094   8.929 -0.1163 -0.8901  0.3955
   14CHL1  H15A  981   4.699   1.198   8.955 -0.9304 -0.5840 -1.5798
   14CHL1  H15B  982   4.829   1.072   8.963 -0.3206 -2.2893  0.1387
   14CHL1   C16  983   4.722   1.074   8.776 -0.4289  0.0403  0.0234
   14CHL1  H16A  984   4.704   1.176   8.735 -1.0188 -0.0081  0.1584
   14CHL1  H16B  985   4.816   1.036   8.730  0.5377  0.7687  1.3740
   14CHL1   C17  986   4.596   0.986   8.740  0.3864  0.1137 -0.1092
   14CHL1   H17  987   4.634   0.881   8.736  0.3326  0.1421 -3.3455
   14CHL1   C13  988   4.504   0.999   8.866  0.6711  0.2869 -0.0319
   14CHL1   C18  989   4.441   1.138   8.859  0.2829  0.7585  0.5492
   14CHL1  H18A  990   4.400   1.159   8.960 -0.2206  0.6782  0.3624
   14CHL1  H18B  991   4.502   1.220   8.815  2.4861 -1.8753 -1.4943
   14CHL1  H18C  992   4.357   1.137   8.787 -0.8555  2.7658  1.7795
   14CHL1   C12  993   4.400   0.885   8.897 -0.0789 -0.2316 -0.8629
   14CHL1  H12A  994   4.310   0.910   8.837 -2.7098  1.1167  3.4021
   14CHL1  H12B  995   4.450   0.790   8.870  1.6811  0.9209 -1.7872
   14CHL1   C11  996   4.340   0.892   9.040 -0.7418 -0.5400  0.4689
   14CHL1  H11A  997   4.272   0.979   9.027  0.6250  0.4711  0.0107
   14CHL1  H11B  998   4.267   0.809   9.049  0.7253 -1.6961  1.9343
   14CHL1    C9  999   4.440   0.907   9.151 -0.3274  0.3720  0.7766
   14CHL1    H9 1000   4.494   0.810   9.144  0.8149  1.0941 -0.8027
   14CHL1   C10 1001   4.389   0.920   9.298  0.5578 -0.6358  0.4427
   14CHL1   C19 1002   4.294   1.043   9.304 -0.3411  0.1751 -0.3346
   14CHL1  H19A 1003   4.259   1.066   9.407  0.7894  0.8335 -0.0914
   14CHL1  H19B 1004   4.350   1.133   9.272 -0.7630  0.3165 -0.6800
   14CHL1  H19C 1005   4.200   1.022   9.248  1.0339 -1.2883 -2.1368
   14CHL1    C1 1006   4.327   0.784   9.344 -0.2585 -0.3117  0.6334
   14CHL1   H1A 1007   4.251   0.758   9.267 -0.2651 -0.3496  0.6532
   14CHL1   H1B 1008   4.405   0.705   9.336  1.2437  0.9729  2.1596
   14CHL1    C2 1009   4.277   0.781   9.491 -0.4700  0.9555  0.4052
   14CHL1   H2A 1010   4.243   0.678   9.516 -0.1711 -0.0759 -3.1801
   14CHL1   H2B 1011   4.199   0.859   9.505 -0.1884  1.0196  1.6136
   14CHL1   C20 1012   4.535   1.007   8.602 -0.3022  0.1408  0.3676
   14CHL1   H20 1013   4.501   1.112   8.599 -1.9826 -0.3687  0.5356
   14CHL1   C21 1014   4.427   0.907   8.587  0.0928 -0.1351  0.1924
   14CHL1  H21A 1015   4.335   0.944   8.637 -1.5024 -1.0728 -2.0260
   14CHL1  H21B 1016   4.453   0.812   8.639  0.7551  0.2611  0.6017
   14CHL1  H21C 1017   4.399   0.882   8.483 -0.5090 -1.5546  0.6820
   14CHL1   C22 1018   4.646   0.984   8.493 -0.5559  0.0182 -0.0392
   14CHL1  H22A 1019   4.737   1.040   8.524 -1.1452  0.9514 -0.0027
   14CHL1  H22B 1020   4.665   0.875   8.484  0.5249  0.1178  0.8821
   14CHL1   C23 1021   4.609   1.036   8.349 -0.3522  0.8608 -0.1534
   14CHL1  H23A 1022   4.508   0.998   8.326  1.0160 -1.5749 -2.3868
   14CHL1  H23B 1023   4.601   1.147   8.352 -1.4550  0.7672  0.5595
   14CHL1   C24 1024   4.698   0.991   8.229 -0.4574  0.2887  0.1402
   14CHL1  H24A 1025   4.801   0.978   8.269 -0.3233 -0.5234 -0.4566
   14CHL1  H24B 1026   4.664   0.888   8.204 -0.7029  0.3486  0.2299
   14CHL1   C25 1027   4.695   1.081   8.109  0.7131  0.1200  0.6380
   14CHL1   H25 1028   4.689   1.187   8.141  3.5812  0.7222 -0.6490
   14CHL1   C26 1029   4.821   1.063   8.020  0.1503 -0.3968  0.3086
   14CHL1  H26A 1030   4.819   0.959   7.980  2.0022 -0.3237 -0.0499
   14CHL1  H26B 1031   4.811   1.132   7.933 -2.3870 -1.6702 -0.4649
   14CHL1  H26C 1032   4.913   1.079   8.080  0.2270  1.3693 -0.2614
   14CHL1   C27 1033   4.568   1.050   8.030  0.1646 -0.8611 -0.0131
   14CHL1  H27A 1034   4.566   1.065   7.920  0.8365  1.0590  0.2242
   14CHL1  H27B 1035   4.543   0.942   8.043  0.9141 -1.1195 -0.6874
   14CHL1  H27C 1036   4.484   1.113   8.065  1.7428  0.7808  0.8952
   15CHL1    C3 1037   3.878   0.492   9.360 -0.4263  0.1775  0.0650
   15CHL1    H3 1038   3.839   0.594   9.338  1.2551  0.3376 -2.4328
   15CHL1    O3 1039   3.834   0.440   9.484 -0.3034  0.1622 -0.0701
   15CHL1   H3' 1040   3.885   0.361   9.503 -0.4437  0.0501 -0.1663
   15CHL1    C4 1041   3.836   0.401   9.251  0.1680  0.2265  0.3341
   15CHL1   H4A 1042   3.860   0.295   9.274  1.7652  0.6618  0.7052
   15CHL1   H4B 1043   3.725   0.406   9.243  0.1711  1.7441  1.0780
   15CHL1    C5 1044   3.897   0.445   9.122  0.4122 -0.4443 -0.1014
   15CHL1    C6 1045   3.819   0.463   9.012 -0.6116 -0.3761  0.4352
   15CHL1    H6 1046   3.710   0.459   9.021 -0.7991  0.7139 -0.9873
   15CHL1    C7 1047   3.874   0.474   8.870 -0.3208  0.4385 -0.6566
   15CHL1   H7A 1048   3.817   0.408   8.800  0.6132 -0.8476 -0.2314
   15CHL1   H7B 1049   3.857   0.578   8.835 -0.5428  0.9289  0.8786
   15CHL1    C8 1050   4.021   0.428   8.862  0.0835  0.4634 -0.1916
   15CHL1    H8 1051   4.030   0.318   8.856  0.6025  0.4326  1.0479
   15CHL1   C14 1052   4.074   0.480   8.726  0.0040  0.3771  0.1293
   15CHL1   H14 1053   4.059   0.590   8.737 -2.6452 -0.1024  1.6668
   15CHL1   C15 1054   3.992   0.438   8.598  0.0687 -0.2204 -0.3273
   15CHL1  H15A 1055   3.961   0.331   8.597  1.7736 -0.7232 -0.0380
   15CHL1  H15B 1056   3.907   0.507   8.578 -0.0652 -0.2178  0.2212
   15CHL1   C16 1057   4.101   0.463   8.491 -0.4196  0.6119 -0.7720
   15CHL1  H16A 1058   4.117   0.363   8.445 -0.4293  1.0998 -1.8539
   15CHL1  H16B 1059   4.068   0.539   8.417 -1.4989  1.9510  1.0318
   15CHL1   C17 1060   4.236   0.500   8.554  0.5663 -0.2191 -0.2894
   15CHL1   H17 1061   4.247   0.610   8.566  0.4768  0.0632 -2.6176
   15CHL1   C13 1062   4.220   0.449   8.697 -0.2694 -0.4528  0.2006
   15CHL1   C18 1063   4.244   0.296   8.691 -0.1552 -0.8534 -0.4676
   15CHL1  H18A 1064   4.220   0.267   8.795 -0.9502 -1.0125 -0.6961
   15CHL1  H18B 1065   4.182   0.230   8.626 -2.6300  3.1498 -2.3643
   15CHL1  H18C 1066   4.351   0.264   8.688  0.2809  0.1727  2.9213
   15CHL1   C12 1067   4.303   0.507   8.811 -0.0006  0.0613  0.5228
   15CHL1  H12A 1068   4.408   0.473   8.796 -0.3964  0.1153 -2.6138
   15CHL1  H12B 1069   4.293   0.614   8.783 -2.8593 -1.1429 -3.4276
   15CHL1   C11 1070   4.258   0.476   8.957 -0.3369 -0.6700  0.2873
   15CHL1  H11A 1071   4.297   0.376   8.987 -1.3214 -0.7453  1.3281
   15CHL1  H11B 1072   4.305   0.546   9.029  0.9105 -0.2164 -0.9441
   15CHL1    C9 1073   4.099   0.485   8.974 -0.7835 -0.2468 -0.5385
   15CHL1    H9 1074   4.067   0.592   8.975  0.5703  0.1717  0.1687
   15CHL1   C10 1075   4.055   0.439   9.114 -0.3955  0.0183 -0.0519
   15CHL1   C19 1076   4.103   0.298   9.147  0.0989 -0.0472  0.1000
   15CHL1  H19A 1077   4.081   0.260   9.250 -0.3384  1.6023  0.6248
   15CHL1  H19B 1078   4.063   0.223   9.076  1.3180 -2.3186  1.7377
   15CHL1  H19C 1079   4.213   0.287   9.133 -0.2172 -0.3371 -2.3241
   15CHL1    C1 1080   4.092   0.536   9.225  0.0629 -0.1772 -0.3627
   15CHL1   H1A 1081   4.203   0.538   9.236 -0.2132  3.3177  2.4631
   15CHL1   H1B 1082   4.070   0.643   9.205 -0.0370  0.0194  0.7540
   15CHL1    C2 1083   4.029   0.503   9.365 -0.4242 -0.2086  0.0047
   15CHL1   H2A 1084   4.064   0.588   9.428 -0.0013 -0.5945  0.2931
   15CHL1   H2B 1085   4.075   0.414   9.413  0.9717  1.7860  2.5688
   15CHL1   C20 1086   4.358   0.455   8.470  0.9041 -0.1314  0.6967
   15CHL1   H20 1087   4.389   0.350   8.493  2.2478  0.1183  0.0766
   15CHL1   C21 1088   4.476   0.545   8.511 -0.4087 -0.0075 -0.8010
   15CHL1  H21A 1089   4.501   0.520   8.616 -1.5140  0.9362 -0.3024
   15CHL1  H21B 1090   4.447   0.652   8.507  2.2850  0.8312  1.0471
   15CHL1  H21C 1091   4.558   0.541   8.436 -1.4053  0.0657 -1.9198
   15CHL1   C22 1092   4.342   0.451   8.313  0.5978 -0.0495 -0.4848
   15CHL1  H22A 1093   4.245   0.410   8.278 -0.4385  2.2502 -0.4357
   15CHL1  H22B 1094   4.347   0.555   8.272  1.1589  0.3099  0.4656
   15CHL1   C23 1095   4.449   0.371   8.246 -0.5915 -0.2932 -0.1458
   15CHL1  H23A 1096   4.552   0.402   8.273 -0.6154  0.9787 -1.4541
   15CHL1  H23B 1097   4.445   0.270   8.291 -2.7537  0.0172  0.3909
   15CHL1   C24 1098   4.432   0.358   8.096 -1.0560 -0.2305  0.4264
   15CHL1  H24A 1099   4.322   0.344   8.090 -1.0391 -0.2629  0.2029
   15CHL1  H24B 1100   4.445   0.453   8.040  0.8514 -0.0119  1.2282
   15CHL1   C25 1101   4.511   0.244   8.024  0.2824  0.1973  0.5031
   15CHL1   H25 1102   4.507   0.149   8.081  2.2008  0.3713  0.9658
   15CHL1   C26 1103   4.453   0.217   7.883 -0.3497  0.3982  0.3213
   15CHL1  H26A 1104   4.374   0.139   7.892 -0.9103  0.9350  0.0418
   15CHL1  H26B 1105   4.411   0.309   7.838 -0.9962  1.2956  2.6865
   15CHL1  H26C 1106   4.532   0.175   7.817 -0.7842 -0.0524  0.0796
   15CHL1   C27 1107   4.659   0.288   8.001  0.1920 -0.3130 -0.2450
   15CHL1  H27A 1108   4.724   0.207   7.962  2.7367  2.2276 -1.4431
   15CHL1  H27B 1109   4.668   0.386   7.949  1.3758  0.5868  1.5965
   15CHL1  H27C 1110   4.697   0.308   8.103 -1.0013 -0.9154  0.3318
   16CHL1    C3 1111   5.047   0.838   9.386 -0.6985 -0.0999  0.6972
   16CHL1    H3 1112   5.006   0.941   9.378 -1.5059 -0.4324  0.4178
   16CHL1    O3 1113   5.011   0.774   9.505 -0.0320  0.0219 -0.3772
   16CHL1   H3' 1114   5.053   0.687   9.502  0.0511 -0.0861  2.1920
   16CHL1    C4 1115   4.981   0.747   9.279  0.3474  0.2438  0.4101
   16CHL1   H4A 1116   5.018   0.646   9.306  1.2450  0.0751 -1.3846
   16CHL1   H4B 1117   4.871   0.739   9.291  0.1861  0.2817 -0.8760
   16CHL1    C5 1118   5.039   0.778   9.140 -0.0163 -0.3055 -0.1431
   16CHL1    C6 1119   4.957   0.800   9.034 -0.5935  0.2803 -0.5293
   16CHL1    H6 1120   4.850   0.794   9.062 -0.1235  1.1157  1.5491
   16CHL1    C7 1121   5.001   0.839   8.895 -0.0794 -0.0617 -0.8736
   16CHL1   H7A 1122   4.951   0.784   8.813 -0.7760  1.0028 -1.1628
   16CHL1   H7B 1123   4.980   0.948   8.886 -0.7261  0.0558  1.6594
   16CHL1    C8 1124   5.153   0.823   8.870  0.3372 -0.5246 -0.7463
   16CHL1    H8 1125   5.162   0.714   8.853 -2.1672 -1.0308  0.8473
   16CHL1   C14 1126   5.201   0.906   8.758 -0.3754 -0.2851  0.2204
   16CHL1   H14 1127   5.199   1.012   8.790  1.3906  0.1160 -0.9804
   16CHL1   C15 1128   5.118   0.896   8.636 -0.4212 -0.5460  0.2348
   16CHL1  H15A 1129   5.104   0.790   8.605  2.9146 -0.9800  0.1022
   16CHL1  H15B 1130   5.017   0.941   8.642  0.2611  1.0756 -0.2833
   16CHL1   C16 1131   5.203   0.963   8.528  0.1936  0.2034 -0.4856
   16CHL1  H16A 1132   5.210   0.903   8.434  0.3586  1.5017 -1.3109
   16CHL1  H16B 1133   5.165   1.064   8.502 -1.5244 -0.2859  0.0714
   16CHL1   C17 1134   5.337   0.988   8.590 -0.1657  0.0320  0.7167
   16CHL1   H17 1135   5.329   1.094   8.623  0.0544 -0.0283  0.9685
   16CHL1   C13 1136   5.347   0.885   8.712 -1.0127 -0.1186 -0.3503
   16CHL1   C18 1137   5.365   0.739   8.665  0.6671 -0.2043 -0.2947
   16CHL1  H18A 1138   5.348   0.672   8.752 -0.3252  2.4677  1.6498
   16CHL1  H18B 1139   5.295   0.713   8.582  1.7307  0.4092 -1.4008
   16CHL1  H18C 1140   5.466   0.733   8.619  0.0250  1.0502 -1.9091
   16CHL1   C12 1141   5.432   0.927   8.826 -0.2542 -0.2168  0.3799
   16CHL1  H12A 1142   5.538   0.903   8.805  0.0970  2.0236 -0.5197
   16CHL1  H12B 1143   5.419   1.037   8.840  2.2659  0.0621  0.8271
   16CHL1   C11 1144   5.391   0.857   8.956  0.7805  0.2971 -0.5460
   16CHL1  H11A 1145   5.415   0.749   8.947  0.7308  0.3821 -1.9039
   16CHL1  H11B 1146   5.436   0.905   9.045  0.4395  0.7020 -0.5870
   16CHL1    C9 1147   5.240   0.868   8.990 -0.0120 -0.5864 -0.2370
   16CHL1    H9 1148   5.215   0.976   9.003  2.3662 -0.2034  1.6040
   16CHL1   C10 1149   5.191   0.800   9.125  0.3360 -0.3856 -0.0598
   16CHL1   C19 1150   5.257   0.663   9.135 -0.1699  0.0929 -0.5458
   16CHL1  H19A 1151   5.224   0.580   9.068 -1.5256 -0.1460  0.3924
   16CHL1  H19B 1152   5.367   0.665   9.124 -0.0754 -3.1309 -0.6798
   16CHL1  H19C 1153   5.242   0.621   9.237  2.1568 -0.8033 -0.5412
   16CHL1    C1 1154   5.248   0.891   9.244  0.3735  0.4535 -0.1893
   16CHL1   H1A 1155   5.358   0.893   9.253  0.6615 -2.7798 -1.8968
   16CHL1   H1B 1156   5.212   0.995   9.232  0.5554  0.7941  2.0829
   16CHL1    C2 1157   5.198   0.844   9.383  0.1283  0.9588 -0.3530
   16CHL1   H2A 1158   5.231   0.916   9.461  1.9350 -2.4677  2.1679
   16CHL1   H2B 1159   5.239   0.746   9.414 -1.5663 -0.3343 -2.0334
   16CHL1   C20 1160   5.453   0.991   8.486  0.5912  0.7894  0.6316
   16CHL1   H20 1161   5.456   0.888   8.446  1.2680  0.3616  1.7565
   16CHL1   C21 1162   5.590   1.024   8.551  0.4925  0.3043  0.4307
   16CHL1  H21A 1163   5.623   0.941   8.617 -2.1026 -0.5133  0.7714
   16CHL1  H21B 1164   5.583   1.115   8.614 -3.5921  0.0554  0.5092
   16CHL1  H21C 1165   5.670   1.027   8.474  0.1589 -2.7519 -0.0806
   16CHL1   C22 1166   5.427   1.088   8.360 -0.4869  0.2177 -0.0868
   16CHL1  H22A 1167   5.329   1.067   8.314 -0.6012 -0.3106  0.3890
   16CHL1  H22B 1168   5.427   1.195   8.389 -0.7741 -0.0401  0.8675
   16CHL1   C23 1169   5.533   1.083   8.245  0.2476  0.1245  0.2798
   16CHL1  H23A 1170   5.628   1.109   8.296  0.3377 -0.0674  0.2127
   16CHL1  H23B 1171   5.538   0.975   8.219 -1.2958  0.0768  0.1356
   16CHL1   C24 1172   5.497   1.180   8.124 -0.0622  0.4770 -0.4371
   16CHL1  H24A 1173   5.429   1.121   8.059 -3.0620  2.3011  0.9529
   16CHL1  H24B 1174   5.448   1.275   8.154 -1.3055  0.0162 -0.9637
   16CHL1   C25 1175   5.614   1.201   8.028  0.1824  0.1255  0.2014
   16CHL1   H25 1176   5.656   1.098   8.022  1.0258  0.5417 -1.3545
   16CHL1   C26 1177   5.571   1.260   7.895 -0.0733 -0.0612  0.4189
   16CHL1  H26A 1178   5.497   1.192   7.848 -1.6723  1.6717  0.3513
   16CHL1  H26B 1179   5.526   1.358   7.923 -2.5747 -0.5044 -1.8320
   16CHL1  H26C 1180   5.657   1.273   7.825 -0.2360 -1.0188  0.0408
   16CHL1   C27 1181   5.723   1.293   8.092  0.5450 -0.0967  0.2049
   16CHL1  H27A 1182   5.724   1.273   8.201  0.6878 -1.8439 -0.1116
   16CHL1  H27B 1183   5.825   1.282   8.049  0.2414  0.8781 -0.7870
   16CHL1  H27C 1184   5.692   1.400   8.082  0.6949 -0.0838 -0.1071
   17CHL1    C3 1185   1.504   5.905   9.491 -0.0917 -0.0637  0.3171
   17CHL1    H3 1186   1.431   5.821   9.487 -0.6794  0.4008  1.3288
   17CHL1    O3 1187   1.514   5.934   9.632  0.0562 -0.1482 -0.2368
   17CHL1   H3' 1188   1.597   5.981   9.643  0.1007  0.0914 -1.5043
   17CHL1    C4 1189   1.649   5.860   9.444  0.2782 -0.7020  0.0042
   17CHL1   H4A 1190   1.726   5.938   9.458  0.3459 -1.1153  1.9959
   17CHL1   H4B 1191   1.669   5.771   9.508 -0.4287 -1.2263 -0.4849
   17CHL1    C5 1192   1.638   5.819   9.300  0.2571  0.4321 -0.0351
   17CHL1    C6 1193   1.675   5.696   9.256 -0.4099  0.2810 -0.1048
   17CHL1    H6 1194   1.713   5.624   9.329 -2.6139 -0.8383 -0.0060
   17CHL1    C7 1195   1.682   5.644   9.116 -0.4813 -0.9242  0.4435
   17CHL1   H7A 1196   1.778   5.590   9.100 -0.0710 -0.0768  0.0058
   17CHL1   H7B 1197   1.600   5.570   9.099 -1.1465 -0.6611  2.3710
   17CHL1    C8 1198   1.665   5.766   9.020 -0.9849  0.4196  0.4209
   17CHL1    H8 1199   1.760   5.823   9.015  0.8036 -2.1522  3.2576
   17CHL1   C14 1200   1.645   5.716   8.873  0.1067 -0.4034 -0.8826
   17CHL1   H14 1201   1.545   5.669   8.871  0.3474 -0.9581 -0.1777
   17CHL1   C15 1202   1.737   5.610   8.817  0.1762 -0.4379 -0.2414
   17CHL1  H15A 1203   1.838   5.632   8.859  0.6996  0.3997 -1.8749
   17CHL1  H15B 1204   1.706   5.507   8.844  1.3257 -0.7387 -0.0181
   17CHL1   C16 1205   1.719   5.624   8.662  1.0407 -0.9626  0.6250
   17CHL1  H16A 1206   1.820   5.651   8.625  0.8116 -1.6644 -0.5234
   17CHL1  H16B 1207   1.695   5.525   8.618  1.0247 -0.9777  0.6661
   17CHL1   C17 1208   1.619   5.753   8.639 -0.2598 -0.4052  0.4418
   17CHL1   H17 1209   1.511   5.728   8.640 -0.6113  0.9419 -1.4095
   17CHL1   C13 1210   1.628   5.828   8.771 -0.2502  0.1705  0.0535
   17CHL1   C18 1211   1.749   5.919   8.760  0.2522  0.2094 -0.2632
   17CHL1  H18A 1212   1.839   5.872   8.715 -0.1315 -1.6129  0.7956
   17CHL1  H18B 1213   1.726   6.012   8.705  0.1863  0.9057  0.9165
   17CHL1  H18C 1214   1.783   5.950   8.861 -0.3681 -0.6837  0.2295
   17CHL1   C12 1215   1.507   5.909   8.816  0.3791  0.5394 -0.1641
   17CHL1  H12A 1216   1.465   5.991   8.753  0.6014  0.0558 -0.9370
   17CHL1  H12B 1217   1.424   5.836   8.807  1.4434 -0.4662 -1.8683
   17CHL1   C11 1218   1.517   5.966   8.959  0.8455  0.0997  0.3794
   17CHL1  H11A 1219   1.597   6.043   8.953 -0.6150  1.6299  0.2961
   17CHL1  H11B 1220   1.423   6.019   8.986 -0.6240 -2.1892 -0.0449
   17CHL1    C9 1221   1.550   5.858   9.065 -0.1837  0.4625 -0.5064
   17CHL1    H9 1222   1.459   5.795   9.079 -1.3641  1.7105 -2.4092
   17CHL1   C10 1223   1.575   5.928   9.206  0.0836  0.2899 -0.3710
   17CHL1   C19 1224   1.698   6.031   9.194 -0.3372 -0.4312 -0.7152
   17CHL1  H19A 1225   1.657   6.114   9.132 -3.4963  1.5171  3.6943
   17CHL1  H19B 1226   1.730   6.076   9.290 -0.6956 -0.5903 -0.5190
   17CHL1  H19C 1227   1.785   5.987   9.141 -0.3724 -1.8857  0.3965
   17CHL1    C1 1228   1.442   5.982   9.259 -0.5078  0.2326  1.4115
   17CHL1   H1A 1229   1.394   6.062   9.198  2.4852  0.5237 -0.7088
   17CHL1   H1B 1230   1.384   5.888   9.253  1.3264 -0.9355  1.4148
   17CHL1    C2 1231   1.439   6.017   9.408 -1.0606 -0.0852 -0.1949
   17CHL1   H2A 1232   1.334   6.038   9.437 -1.4105  1.0555 -2.1329
   17CHL1   H2B 1233   1.504   6.105   9.430  2.5147 -2.4297 -0.8856
   17CHL1   C20 1234   1.656   5.822   8.498 -0.0495  0.2007  0.4427
   17CHL1   H20 1235   1.752   5.876   8.517 -1.0126  1.3591  2.2285
   17CHL1   C21 1236   1.551   5.930   8.464 -0.2625 -0.1127 -0.2711
   17CHL1  H21A 1237   1.560   5.964   8.358  0.2615  1.4761  0.2659
   17CHL1  H21B 1238   1.555   6.014   8.537  1.3421 -0.7411  0.3897
   17CHL1  H21C 1239   1.449   5.886   8.464 -0.0337 -0.6998  1.7939
   17CHL1   C22 1240   1.689   5.730   8.373 -0.3783 -0.5471  0.4927
   17CHL1  H22A 1241   1.731   5.800   8.298  1.0301  1.7540  3.3302
   17CHL1  H22B 1242   1.759   5.646   8.398 -1.3734 -1.1519  1.2736
   17CHL1   C23 1243   1.560   5.666   8.313  0.3380 -0.3726  0.0072
   17CHL1  H23A 1244   1.496   5.632   8.397  0.5352  0.2037  0.3939
   17CHL1  H23B 1245   1.503   5.731   8.244  2.5401 -0.2116 -1.7143
   17CHL1   C24 1246   1.590   5.543   8.224 -0.8295  0.3430 -0.2638
   17CHL1  H24A 1247   1.641   5.469   8.290 -0.0901  1.9429  1.0079
   17CHL1  H24B 1248   1.494   5.492   8.199  0.3670 -1.7252 -0.8246
   17CHL1   C25 1249   1.680   5.563   8.100 -0.2419 -0.0231 -0.4753
   17CHL1   H25 1250   1.782   5.593   8.132 -0.0202 -0.2870 -0.9236
   17CHL1   C26 1251   1.700   5.425   8.024 -0.3303  0.0259  0.4597
   17CHL1  H26A 1252   1.730   5.352   8.102 -1.3637  0.1869  1.0154
   17CHL1  H26B 1253   1.612   5.400   7.961 -0.9511 -3.8974  2.7722
   17CHL1  H26C 1254   1.790   5.443   7.961 -0.1112 -2.8847 -0.1037
   17CHL1   C27 1255   1.625   5.668   8.000 -0.9358  0.7950 -0.7162
   17CHL1  H27A 1256   1.707   5.683   7.927  3.0549 -0.4427  3.2446
   17CHL1  H27B 1257   1.537   5.629   7.945  1.3029 -1.3952 -2.8702
   17CHL1  H27C 1258   1.601   5.765   8.047  0.1422  0.5540  0.3524
   18CHL1    C3 1259   0.507   3.955   9.407  0.3085 -0.0781  0.5708
   18CHL1    H3 1260   0.406   3.996   9.384  0.9021  0.3274 -1.4071
   18CHL1    O3 1261   0.516   3.943   9.548  0.6285  0.0413  0.5480
   18CHL1   H3' 1262   0.605   3.917   9.572  1.0764  1.2570  0.2700
   18CHL1    C4 1263   0.516   3.812   9.345 -0.1863 -0.3400 -0.2313
   18CHL1   H4A 1264   0.616   3.774   9.376  0.4503 -0.3952 -2.3255
   18CHL1   H4B 1265   0.446   3.743   9.397  1.5252 -1.1997  1.0132
   18CHL1    C5 1266   0.505   3.818   9.195  0.3944 -0.0585  0.0293
   18CHL1    C6 1267   0.399   3.765   9.128  0.1614 -0.7104  0.1738
   18CHL1    H6 1268   0.327   3.711   9.191 -1.0531 -0.7209 -1.2087
   18CHL1    C7 1269   0.373   3.770   8.985 -0.5026 -0.4049 -0.1365
   18CHL1   H7A 1270   0.356   3.668   8.944 -0.5751 -0.1267 -0.8129
   18CHL1   H7B 1271   0.289   3.836   8.955 -1.0172 -1.2684 -0.6451
   18CHL1    C8 1272   0.504   3.816   8.904  0.3670 -0.2700 -0.0956
   18CHL1    H8 1273   0.578   3.733   8.900  1.2505  0.3806  1.9709
   18CHL1   C14 1274   0.465   3.861   8.759  0.2631 -0.2447 -0.5303
   18CHL1   H14 1275   0.395   3.948   8.763  1.4444  0.7763 -1.7913
   18CHL1   C15 1276   0.397   3.765   8.660  0.0507  0.4701 -0.6427
   18CHL1  H15A 1277   0.460   3.675   8.673  0.3440  0.6997 -0.4653
   18CHL1  H15B 1278   0.288   3.743   8.668  0.2149 -0.6964 -1.5566
   18CHL1   C16 1279   0.415   3.832   8.526  0.4162  0.1589 -0.0933
   18CHL1  H16A 1280   0.457   3.764   8.450 -0.2458 -0.9795  0.5566
   18CHL1  H16B 1281   0.317   3.866   8.487  0.2554 -0.7882 -0.5256
   18CHL1   C17 1282   0.519   3.948   8.543 -0.1663  0.3824  0.1117
   18CHL1   H17 1283   0.461   4.041   8.563 -1.6887 -0.2534 -1.2407
   18CHL1   C13 1284   0.584   3.921   8.680 -0.8723 -0.6713 -0.3802
   18CHL1   C18 1285   0.690   3.814   8.656  0.4538 -0.3286 -0.4144
   18CHL1  H18A 1286   0.653   3.725   8.602  1.5576 -0.5324 -0.8513
   18CHL1  H18B 1287   0.775   3.848   8.593  0.7458  0.5443  0.4302
   18CHL1  H18C 1288   0.718   3.770   8.755 -1.1558  0.7803  0.5526
   18CHL1   C12 1289   0.646   4.047   8.753  0.1061  0.4042  0.4791
   18CHL1  H12A 1290   0.726   4.105   8.701  0.2410  0.6791  0.9829
   18CHL1  H12B 1291   0.569   4.126   8.765 -0.3057 -0.1052  1.2546
   18CHL1   C11 1292   0.689   4.008   8.895  0.9164 -0.6131  0.1572
   18CHL1  H11A 1293   0.786   3.954   8.899  0.5915 -1.0940  2.1366
   18CHL1  H11B 1294   0.715   4.102   8.949 -1.1875 -0.2735  0.6205
   18CHL1    C9 1295   0.578   3.934   8.979 -0.3331 -0.4167 -0.3793
   18CHL1    H9 1296   0.503   4.016   8.978 -1.3065 -1.2847  0.3761
   18CHL1   C10 1297   0.616   3.909   9.124 -0.1007 -0.3075 -0.0521
   18CHL1   C19 1298   0.753   3.839   9.131 -0.3436 -0.2326 -0.0966
   18CHL1  H19A 1299   0.737   3.734   9.100 -0.0671 -0.6814  1.2365
   18CHL1  H19B 1300   0.838   3.877   9.071 -1.0446  1.1949 -0.2055
   18CHL1  H19C 1301   0.771   3.824   9.240  0.0527  0.4213 -0.0643
   18CHL1    C1 1302   0.621   4.051   9.195 -0.3619 -0.8553 -0.0677
   18CHL1   H1A 1303   0.719   4.095   9.165 -0.1119 -0.6237  1.0838
   18CHL1   H1B 1304   0.538   4.111   9.152  0.9469  1.3784  0.4358
   18CHL1    C2 1305   0.619   4.048   9.347  0.1726  0.7307 -0.3385
   18CHL1   H2A 1306   0.605   4.153   9.383 -1.0325  0.4379  0.0513
   18CHL1   H2B 1307   0.718   4.022   9.391  0.9694  3.9140 -0.0960
   18CHL1   C20 1308   0.607   3.966   8.415 -0.0712  0.3792  0.6171
   18CHL1   H20 1309   0.671   3.875   8.416 -0.1917  0.2715 -0.8299
   18CHL1   C21 1310   0.704   4.096   8.431 -0.2329 -1.0051 -0.5143
   18CHL1  H21A 1311   0.655   4.194   8.450  0.4605 -0.6409 -0.6157
   18CHL1  H21B 1312   0.761   4.115   8.338  0.1095 -2.1112 -0.5385
   18CHL1  H21C 1313   0.773   4.069   8.513 -0.7315 -0.0247  0.2378
   18CHL1   C22 1314   0.537   3.968   8.277  0.9202  0.0859  0.4438
   18CHL1  H22A 1315   0.449   3.900   8.276  2.4432 -1.9474 -0.8568
   18CHL1  H22B 1316   0.503   4.073   8.262  0.8263 -0.1918 -1.3713
   18CHL1   C23 1317   0.627   3.916   8.162  0.3903  0.0546  0.3820
   18CHL1  H23A 1318   0.735   3.940   8.165  0.4017  0.2264 -1.2892
   18CHL1  H23B 1319   0.619   3.806   8.170  0.1184  0.1173  1.0595
   18CHL1   C24 1320   0.582   3.965   8.022 -0.1968 -0.4361  0.0276
   18CHL1  H24A 1321   0.636   3.904   7.947  4.4619  1.2209  1.8565
   18CHL1  H24B 1322   0.472   3.954   8.014 -0.1769 -0.2720 -0.5018
   18CHL1   C25 1323   0.601   4.118   7.989  0.3481 -0.4967  0.2461
   18CHL1   H25 1324   0.532   4.171   8.058  0.7660  0.0307  0.2635
   18CHL1   C26 1325   0.740   4.178   8.014  0.6778 -0.5707  1.1524
   18CHL1  H26A 1326   0.764   4.175   8.122  2.8067 -0.2218  0.7202
   18CHL1  H26B 1327   0.812   4.116   7.956  0.4702 -0.1420  0.4262
   18CHL1  H26C 1328   0.745   4.286   7.986  1.6270 -0.5588  1.3508
   18CHL1   C27 1329   0.557   4.131   7.846 -0.2433  0.4715  0.2510
   18CHL1  H27A 1330   0.566   4.232   7.801 -2.0735  1.0326  1.0944
   18CHL1  H27B 1331   0.612   4.068   7.774  0.2128  0.0645  0.9483
   18CHL1  H27C 1332   0.452   4.096   7.835 -0.5741  0.4382  3.1620
   19CHL1    C3 1333   4.599   6.461   9.528  0.0529  0.5424 -0.0199
   19CHL1    H3 1334   4.575   6.566   9.501  2.9095  0.7951 -1.7842
   19CHL1    O3 1335   4.610   6.451   9.671  0.1781  0.2993 -0.4770
   19CHL1   H3' 1336   4.667   6.374   9.681  0.0508 -0.1121 -2.7174
   19CHL1    C4 1337   4.472   6.387   9.476  0.0277 -0.3792 -0.2994
   19CHL1   H4A 1338   4.466   6.281   9.509  0.0664  0.4516  2.4670
   19CHL1   H4B 1339   4.388   6.444   9.521 -0.3757  0.1180 -1.6517
   19CHL1    C5 1340   4.458   6.391   9.326  0.4392 -0.5457  0.1065
   19CHL1    C6 1341   4.347   6.431   9.265  0.2971  0.4148 -0.2933
   19CHL1    H6 1342   4.265   6.460   9.332  1.3056 -2.4397  2.2780
   19CHL1    C7 1343   4.321   6.439   9.116 -0.1396 -0.5085 -1.0907
   19CHL1   H7A 1344   4.228   6.388   9.082 -0.2166 -1.0492 -0.0822
   19CHL1   H7B 1345   4.312   6.546   9.088 -0.9414  0.0416  1.2184
   19CHL1    C8 1346   4.433   6.360   9.043  0.0516 -0.0727  0.3818
   19CHL1    H8 1347   4.408   6.252   9.054  0.1964  0.2703  5.0890
   19CHL1   C14 1348   4.425   6.397   8.894 -0.0161  0.1828 -0.0440
   19CHL1   H14 1349   4.431   6.507   8.899 -1.5247  0.2389  1.1627
   19CHL1   C15 1350   4.293   6.387   8.813  0.2873  0.4961 -0.1853
   19CHL1  H15A 1351   4.254   6.286   8.835  1.4214  0.2038  0.5090
   19CHL1  H15B 1352   4.211   6.461   8.830 -0.3985 -0.4665  0.8199
   19CHL1   C16 1353   4.343   6.401   8.667 -1.6972  0.7077 -0.8028
   19CHL1  H16A 1354   4.298   6.319   8.608  0.4446 -1.1135 -0.0080
   19CHL1  H16B 1355   4.302   6.493   8.620  0.6067  1.4710 -1.3964
   19CHL1   C17 1356   4.506   6.409   8.672  0.6484 -1.2090  0.5358
   19CHL1   H17 1357   4.523   6.519   8.679 -4.6231 -0.3443  2.0460
   19CHL1   C13 1358   4.538   6.341   8.808 -0.1672  0.1251  0.1281
   19CHL1   C18 1359   4.526   6.188   8.803  0.0512  0.5052 -0.4765
   19CHL1  H18A 1360   4.505   6.134   8.898 -2.0213  0.2378 -1.0651
   19CHL1  H18B 1361   4.433   6.168   8.745 -0.0821 -1.5676  0.4103
   19CHL1  H18C 1362   4.614   6.141   8.755  0.5901 -0.3406  1.2838
   19CHL1   C12 1363   4.678   6.377   8.865 -0.7600  0.5309  0.0940
   19CHL1  H12A 1364   4.763   6.323   8.818 -1.7145 -0.4651 -0.5337
   19CHL1  H12B 1365   4.686   6.488   8.861  1.0870  0.3177 -4.3776
   19CHL1   C11 1366   4.691   6.328   9.012 -0.1627 -0.7179 -0.2337
   19CHL1  H11A 1367   4.690   6.217   9.011  0.7802 -0.7621  1.2404
   19CHL1  H11B 1368   4.789   6.356   9.057  0.4205 -1.0059 -1.3198
   19CHL1    C9 1369   4.576   6.392   9.096 -0.3682 -0.6063  0.6833
   19CHL1    H9 1370   4.604   6.499   9.087  0.6335 -0.8023  1.4522
   19CHL1   C10 1371   4.588   6.359   9.241 -0.0056 -0.4898 -0.0539
   19CHL1   C19 1372   4.601   6.203   9.254  0.4070  1.0480  0.5122
   19CHL1  H19A 1373   4.706   6.171   9.239  0.9388  1.4609  2.9795
   19CHL1  H19B 1374   4.580   6.170   9.358 -0.9686 -0.2586 -0.1841
   19CHL1  H19C 1375   4.530   6.145   9.193  1.7081 -1.3451  1.1953
   19CHL1    C1 1376   4.708   6.432   9.303 -0.4018  0.2937 -0.1622
   19CHL1   H1A 1377   4.804   6.395   9.261 -1.5404 -0.1774 -2.4549
   19CHL1   H1B 1378   4.699   6.543   9.294 -2.0927  0.1724 -0.2253
   19CHL1    C2 1379   4.720   6.411   9.457 -0.1933  0.0737  0.1142
   19CHL1   H2A 1380   4.808   6.473   9.482 -1.2945  1.0582  1.6503
   19CHL1   H2B 1381   4.736   6.304   9.485  0.0484  0.3378  1.0023
   19CHL1   C20 1382   4.565   6.344   8.543  0.1643 -0.4747  0.3326
   19CHL1   H20 1383   4.554   6.233   8.550 -1.3565 -0.1604  3.4074
   19CHL1   C21 1384   4.711   6.398   8.528  0.2214  0.1280 -0.3359
   19CHL1  H21A 1385   4.771   6.366   8.616  0.0796 -2.9670 -1.2751
   19CHL1  H21B 1386   4.718   6.508   8.521  0.4290  0.1903  0.7080
   19CHL1  H21C 1387   4.777   6.354   8.451  0.5495 -0.0738  0.0557
   19CHL1   C22 1388   4.498   6.389   8.414 -0.6728 -0.2760  0.3567
   19CHL1  H22A 1389   4.392   6.357   8.421 -0.7089 -0.3071 -0.3354
   19CHL1  H22B 1390   4.495   6.500   8.409 -0.5729 -0.2871  0.0385
   19CHL1   C23 1391   4.548   6.333   8.281  0.0200  0.3045 -0.1284
   19CHL1  H23A 1392   4.648   6.376   8.259  0.5798 -0.9907 -0.2115
   19CHL1  H23B 1393   4.574   6.224   8.280 -0.6613  0.1419 -1.3539
   19CHL1   C24 1394   4.461   6.342   8.152 -0.1437  0.0592 -0.5023
   19CHL1  H24A 1395   4.507   6.298   8.061  0.8395 -0.6416  0.3109
   19CHL1  H24B 1396   4.375   6.273   8.162 -1.3145  1.5192 -0.3755
   19CHL1   C25 1397   4.434   6.486   8.110  0.2796  0.4772  0.3454
   19CHL1   H25 1398   4.402   6.538   8.203  0.2478 -1.5296  1.4813
   19CHL1   C26 1399   4.554   6.552   8.049 -0.0304  0.4414 -0.8452
   19CHL1  H26A 1400   4.576   6.506   7.950 -1.3007  1.0628 -1.4183
   19CHL1  H26B 1401   4.540   6.657   8.018 -1.5705  0.3655 -0.4350
   19CHL1  H26C 1402   4.642   6.542   8.116 -0.2693  3.3950 -0.0318
   19CHL1   C27 1403   4.321   6.482   8.007 -0.7227  0.1097  0.5353
   19CHL1  H27A 1404   4.364   6.447   7.911  1.1739 -2.3037  2.1825
   19CHL1  H27B 1405   4.234   6.418   8.033 -3.0905  2.9637 -0.0701
   19CHL1  H27C 1406   4.280   6.584   7.994  1.3308  0.8024 -0.6492
   20CHL1    C3 1407   0.780   1.144   9.422 -0.2472  0.3001 -0.4153
   20CHL1    H3 1408   0.737   1.047   9.388 -0.0636  0.0611  0.0257
   20CHL1    O3 1409   0.788   1.125   9.562  0.2206 -0.0136  0.1516
   20CHL1   H3' 1410   0.699   1.115   9.596 -0.0407 -0.1283 -0.5524
   20CHL1    C4 1411   0.915   1.165   9.367  0.5510 -0.4479  0.8515
   20CHL1   H4A 1412   0.967   1.244   9.425 -0.0069  0.5515  0.0078
   20CHL1   H4B 1413   0.972   1.074   9.394  0.3510  0.1373  3.4089
   20CHL1    C5 1414   0.933   1.196   9.223 -0.3139 -0.0956  0.9339
   20CHL1    C6 1415   1.009   1.125   9.144 -0.0296  0.4626 -0.3001
   20CHL1    H6 1416   1.054   1.030   9.176 -0.1562  0.2980 -0.6031
   20CHL1    C7 1417   1.016   1.145   8.993  0.1550  0.1065  0.7373
   20CHL1   H7A 1418   1.117   1.127   8.952 -0.2289  1.3720 -0.8192
   20CHL1   H7B 1419   0.950   1.073   8.939  0.2502 -0.5892  1.5417
   20CHL1    C8 1420   0.955   1.286   8.946  0.0090  0.4771  0.3428
   20CHL1    H8 1421   1.034   1.355   8.981 -1.2089  1.8462  0.4156
   20CHL1   C14 1422   0.930   1.294   8.795 -0.4155 -0.2154  0.2124
   20CHL1   H14 1423   0.845   1.223   8.783  0.3083 -0.8036 -1.6638
   20CHL1   C15 1424   1.039   1.248   8.705 -0.0062 -0.0869  0.0103
   20CHL1  H15A 1425   1.131   1.300   8.741 -0.1122  0.3832 -0.3978
   20CHL1  H15B 1426   1.060   1.139   8.702  1.7378  0.2481 -0.7926
   20CHL1   C16 1427   0.998   1.301   8.565  0.4018 -0.2196  0.2442
   20CHL1  H16A 1428   1.081   1.368   8.535 -0.1135  1.4776  2.4731
   20CHL1  H16B 1429   0.985   1.216   8.494  2.3185 -0.2664 -0.0735
   20CHL1   C17 1430   0.866   1.381   8.595  0.8028  0.3031 -0.2504
   20CHL1   H17 1431   0.777   1.314   8.592  1.7169 -0.8731 -4.2271
   20CHL1   C13 1432   0.871   1.425   8.741 -0.0988 -0.6926 -0.2109
   20CHL1   C18 1433   0.959   1.553   8.767  0.5662 -0.4263 -0.3011
   20CHL1  H18A 1434   0.990   1.546   8.874 -1.7738 -0.3436  0.3973
   20CHL1  H18B 1435   1.051   1.551   8.705  1.3689  1.0398  0.7917
   20CHL1  H18C 1436   0.894   1.638   8.736  0.0665  0.1806  2.2543
   20CHL1   C12 1437   0.742   1.443   8.808  0.2380 -0.4803  0.1464
   20CHL1  H12A 1438   0.684   1.533   8.777  1.6724  1.4813  2.8045
   20CHL1  H12B 1439   0.688   1.349   8.787 -1.8316  1.0269 -1.5589
   20CHL1   C11 1440   0.754   1.445   8.963 -0.6223 -0.2898  0.4479
   20CHL1  H11A 1441   0.822   1.525   8.998  0.1503 -0.6218 -0.2898
   20CHL1  H11B 1442   0.661   1.478   9.015 -0.5460 -0.0185  0.4152
   20CHL1    C9 1443   0.826   1.316   9.018 -0.2883  0.6028 -0.4020
   20CHL1    H9 1444   0.766   1.226   8.990  3.3417 -2.1706  0.3253
   20CHL1   C10 1445   0.842   1.311   9.170  0.2469 -0.1529  0.2579
   20CHL1   C19 1446   0.893   1.450   9.227 -0.0472  0.4386  0.3571
   20CHL1  H19A 1447   0.992   1.474   9.183 -0.4776  0.1125 -0.7925
   20CHL1  H19B 1448   0.824   1.536   9.219 -2.5601 -1.5105  0.5889
   20CHL1  H19C 1449   0.903   1.437   9.337  2.3136  0.6010  0.1905
   20CHL1    C1 1450   0.697   1.297   9.233 -0.1215 -0.7935 -0.2369
   20CHL1   H1A 1451   0.639   1.392   9.230 -0.0322 -0.7852 -2.9827
   20CHL1   H1B 1452   0.638   1.230   9.168 -0.3094  0.2848 -1.2007
   20CHL1    C2 1453   0.684   1.258   9.383 -0.4654 -0.5489  0.0653
   20CHL1   H2A 1454   0.579   1.235   9.412 -0.8862  1.2467  0.0462
   20CHL1   H2B 1455   0.713   1.343   9.448 -0.3967 -0.8972  0.4913
   20CHL1   C20 1456   0.832   1.501   8.497  0.0336 -0.1062 -0.5149
   20CHL1   H20 1457   0.802   1.584   8.563 -2.2969 -1.5143  0.2275
   20CHL1   C21 1458   0.728   1.462   8.400  0.0535 -0.7940 -0.4056
   20CHL1  H21A 1459   0.640   1.409   8.442  0.0525 -0.6049 -0.1672
   20CHL1  H21B 1460   0.752   1.374   8.336 -1.1318 -0.1902 -1.7188
   20CHL1  H21C 1461   0.700   1.546   8.333 -0.5526 -0.7957 -0.1553
   20CHL1   C22 1462   0.960   1.551   8.427 -0.7673  0.2304 -0.3222
   20CHL1  H22A 1463   1.036   1.592   8.497  0.2856 -0.4547 -1.0286
   20CHL1  H22B 1464   1.008   1.471   8.366  1.1009  0.4741  0.7755
   20CHL1   C23 1465   0.938   1.668   8.327 -0.2556  0.0956  0.2025
   20CHL1  H23A 1466   0.878   1.629   8.242 -1.8026  3.3173 -0.2323
   20CHL1  H23B 1467   0.870   1.739   8.380  0.2843  0.9082 -0.1939
   20CHL1   C24 1468   1.060   1.740   8.276 -0.9780 -0.0907  0.5764
   20CHL1  H24A 1469   1.118   1.797   8.351 -2.2256  1.0973  0.6508
   20CHL1  H24B 1470   1.136   1.666   8.244  1.3085  3.4438 -2.5898
   20CHL1   C25 1471   1.027   1.837   8.155  0.3738 -0.5335  0.4117
   20CHL1   H25 1472   0.944   1.901   8.191  0.0491 -1.1693  0.8039
   20CHL1   C26 1473   1.147   1.921   8.117 -0.6651 -0.7631 -0.2877
   20CHL1  H26A 1474   1.233   1.855   8.094 -0.5891 -0.4888 -0.7834
   20CHL1  H26B 1475   1.123   1.987   8.031 -3.4773 -1.0376  0.2233
   20CHL1  H26C 1476   1.173   1.983   8.206  0.2223  0.1445 -1.1786
   20CHL1   C27 1477   0.974   1.771   8.026  0.3351  0.3350 -0.1480
   20CHL1  H27A 1478   0.883   1.712   8.047  1.0384 -0.2537  1.3854
   20CHL1  H27B 1479   0.948   1.846   7.949 -1.2595 -0.1938 -0.1286
   20CHL1  H27C 1480   1.044   1.700   7.976 -0.2915 -0.0595 -0.4620
   21CHL1    C3 1481   7.018   3.517   9.636  0.1749 -0.0438  0.0657
   21CHL1    H3 1482   7.128   3.510   9.638  0.1899  0.4674  2.1475
   21CHL1    O3 1483   6.957   3.480   9.757  0.4040  0.0418 -0.0205
   21CHL1   H3' 1484   6.863   3.472   9.740  0.4047  0.1108 -0.0558
   21CHL1    C4 1485   6.996   3.670   9.614  0.5049  0.4255 -0.0858
   21CHL1   H4A 1486   6.886   3.689   9.622  0.6112  1.3409 -0.7655
   21CHL1   H4B 1487   7.043   3.727   9.697  0.2204 -1.5563  1.4887
   21CHL1    C5 1488   7.047   3.712   9.478 -0.0624 -0.5709 -0.6302
   21CHL1    C6 1489   7.134   3.808   9.459  0.5872 -0.0896 -0.1610
   21CHL1    H6 1490   7.171   3.867   9.544 -2.2208  1.1915  0.2187
   21CHL1    C7 1491   7.182   3.865   9.330  0.3740  0.0280 -0.0119
   21CHL1   H7A 1492   7.185   3.976   9.339 -0.6382  0.1451 -1.0137
   21CHL1   H7B 1493   7.286   3.833   9.310  1.5019  3.6462 -0.3399
   21CHL1    C8 1494   7.092   3.815   9.211  0.5383  0.0203  0.1312
   21CHL1    H8 1495   6.996   3.869   9.230  0.7698  1.7106 -3.2046
   21CHL1   C14 1496   7.150   3.840   9.077 -0.0004 -0.4656  0.2747
   21CHL1   H14 1497   7.242   3.778   9.074 -0.3039 -0.9444  0.6921
   21CHL1   C15 1498   7.206   3.983   9.047 -0.0352 -0.1560 -0.0321
   21CHL1  H15A 1499   7.154   4.070   9.092 -1.1305 -2.0941  2.5661
   21CHL1  H15B 1500   7.311   3.990   9.082 -0.6581 -0.1076  1.8832
   21CHL1   C16 1501   7.212   3.980   8.897 -0.6551 -0.3199  0.2393
   21CHL1  H16A 1502   7.155   4.067   8.858  0.8264 -0.8764 -3.3387
   21CHL1  H16B 1503   7.319   3.986   8.870  0.0762 -0.6014  2.9229
   21CHL1   C17 1504   7.155   3.849   8.840  1.0238 -0.6351  0.4051
   21CHL1   H17 1505   7.231   3.768   8.833  1.7951  0.2355 -1.4646
   21CHL1   C13 1506   7.066   3.797   8.955  0.0220  0.6664 -0.4740
   21CHL1   C18 1507   6.933   3.867   8.954  0.1697 -0.2229 -0.2132
   21CHL1  H18A 1508   6.876   3.848   8.861  1.6125 -4.5930 -0.3418
   21CHL1  H18B 1509   6.872   3.846   9.045 -0.5664 -0.0794 -0.6710
   21CHL1  H18C 1510   6.953   3.976   8.957  3.2348 -0.6795 -1.9062
   21CHL1   C12 1511   7.050   3.638   8.967 -0.2709 -0.7168 -0.1129
   21CHL1  H12A 1512   6.977   3.595   8.895 -1.0413  0.0103  0.2109
   21CHL1  H12B 1513   7.150   3.591   8.956 -0.5390 -1.5242  0.8651
   21CHL1   C11 1514   6.988   3.597   9.102  0.0246 -0.1728 -0.3854
   21CHL1  H11A 1515   6.884   3.637   9.092  0.1156  0.1413 -0.0932
   21CHL1  H11B 1516   6.993   3.487   9.117  0.3660  0.0717  1.3947
   21CHL1    C9 1517   7.056   3.669   9.228 -0.5918  0.6221  0.0988
   21CHL1    H9 1518   7.154   3.618   9.233 -0.3894  0.4657 -3.8881
   21CHL1   C10 1519   6.986   3.639   9.363 -0.3516  0.2884  0.7434
   21CHL1   C19 1520   6.837   3.677   9.352  0.6143  0.1063 -0.4399
   21CHL1  H19A 1521   6.781   3.665   9.447 -0.7208  1.1544 -1.0676
   21CHL1  H19B 1522   6.830   3.781   9.314  1.6468  0.1275 -0.5709
   21CHL1  H19C 1523   6.779   3.615   9.280 -0.5922  1.1045 -0.3373
   21CHL1    C1 1524   7.006   3.487   9.389  0.1519  0.4956 -0.2189
   21CHL1   H1A 1525   6.963   3.425   9.308  0.3354  1.9041 -1.4031
   21CHL1   H1B 1526   7.116   3.475   9.389  0.1832  0.6490  1.0670
   21CHL1    C2 1527   6.959   3.434   9.524  0.5901 -0.5821  0.1424
   21CHL1   H2A 1528   6.992   3.329   9.539  1.8898 -0.6245 -2.6431
   21CHL1   H2B 1529   6.848   3.443   9.531  0.7646  2.0269  0.1108
   21CHL1   C20 1530   7.089   3.876   8.696  0.1440  0.0371  0.0661
   21CHL1   H20 1531   7.016   3.959   8.708 -0.2906 -0.5111  1.2578
   21CHL1   C21 1532   7.013   3.742   8.662 -0.1522  0.2178  0.4786
   21CHL1  H21A 1533   6.923   3.724   8.725  0.7501 -2.0283  1.1814
   21CHL1  H21B 1534   7.083   3.657   8.677 -0.7748 -0.1458  1.3552
   21CHL1  H21C 1535   6.975   3.742   8.558 -0.7825 -0.4963  0.7065
   21CHL1   C22 1536   7.196   3.918   8.591  0.1544  1.0353 -0.2297
   21CHL1  H22A 1537   7.274   3.979   8.641  1.5086 -0.9750  0.1915
   21CHL1  H22B 1538   7.243   3.819   8.571 -1.2613  0.2844  0.0859
   21CHL1   C23 1539   7.146   3.993   8.470 -0.1735  0.0348 -0.6324
   21CHL1  H23A 1540   7.062   3.943   8.417  0.0770  0.2545 -1.2382
   21CHL1  H23B 1541   7.119   4.097   8.501  0.3375 -0.5480  1.8326
   21CHL1   C24 1542   7.264   4.000   8.370  0.2479 -0.1409  0.2880
   21CHL1  H24A 1543   7.350   4.058   8.408  0.9584  0.1934 -1.7564
   21CHL1  H24B 1544   7.287   3.895   8.345  0.6933 -0.6721  2.8250
   21CHL1   C25 1545   7.212   4.065   8.242 -0.3327 -0.2173 -0.4829
   21CHL1   H25 1546   7.169   4.162   8.274  2.3492  0.8874 -0.0690
   21CHL1   C26 1547   7.327   4.106   8.148 -0.2202 -0.0461  0.3055
   21CHL1  H26A 1548   7.399   4.180   8.190  0.4367  0.2629 -1.3547
   21CHL1  H26B 1549   7.386   4.017   8.117 -1.9576 -1.1050 -0.0350
   21CHL1  H26C 1550   7.280   4.146   8.056  2.0177 -1.0833 -1.3337
   21CHL1   C27 1551   7.103   3.970   8.172 -0.1735 -0.6755 -0.1143
   21CHL1  H27A 1552   7.008   3.965   8.230  0.9750 -1.0451  1.8019
   21CHL1  H27B 1553   7.069   4.019   8.079  0.4119  0.4872  0.2651
   21CHL1  H27C 1554   7.139   3.867   8.155 -0.6851 -1.0524  1.0305
   22CHL1    C3 1555   6.896   4.126   9.390  0.2280  0.2822  0.2501
   22CHL1    H3 1556   6.973   4.064   9.339 -1.1634 -0.3710 -1.0965
   22CHL1    O3 1557   6.895   4.099   9.524  0.0921  0.3814 -0.3334
   22CHL1   H3' 1558   6.818   4.147   9.555 -0.6140  0.9416 -2.8795
   22CHL1    C4 1559   6.906   4.274   9.361 -0.0499  0.0526 -0.1960
   22CHL1   H4A 1560   6.836   4.329   9.428 -1.7013  0.3340 -2.0801
   22CHL1   H4B 1561   7.003   4.304   9.406 -0.5253  0.6654  0.4332
   22CHL1    C5 1562   6.889   4.307   9.215 -0.1963 -0.2428 -0.6047
   22CHL1    C6 1563   6.982   4.381   9.149 -0.1963  0.1944  0.4020
   22CHL1    H6 1564   7.059   4.419   9.218  0.3382  1.2251 -0.7300
   22CHL1    C7 1565   6.967   4.432   9.008 -0.2436  0.5780  0.4857
   22CHL1   H7A 1566   6.991   4.540   9.008 -1.5361  0.8925 -1.1949
   22CHL1   H7B 1567   7.050   4.388   8.948 -1.0890  1.0446 -1.0538
   22CHL1    C8 1568   6.825   4.408   8.947  0.1006 -0.8086  0.0796
   22CHL1    H8 1569   6.772   4.499   8.984 -0.8412  0.6454 -4.5492
   22CHL1   C14 1570   6.839   4.417   8.801 -0.6165 -0.6603  0.2799
   22CHL1   H14 1571   6.904   4.337   8.759 -0.4528  0.1105 -0.9697
   22CHL1   C15 1572   6.900   4.547   8.747 -0.2836  0.2307  0.3710
   22CHL1  H15A 1573   6.845   4.626   8.802 -0.5564 -0.8982  1.7318
   22CHL1  H15B 1574   7.009   4.546   8.769 -0.4139 -2.0486  0.9699
   22CHL1   C16 1575   6.858   4.532   8.597 -0.1670 -0.2227 -0.0667
   22CHL1  H16A 1576   6.806   4.626   8.570  0.3363 -0.4577 -1.9316
   22CHL1  H16B 1577   6.941   4.536   8.523 -0.7529  3.6622 -0.6315
   22CHL1   C17 1578   6.765   4.405   8.577  0.4495  0.7981  0.1258
   22CHL1   H17 1579   6.822   4.316   8.542 -2.4175 -0.5724 -1.2029
   22CHL1   C13 1580   6.713   4.382   8.719 -0.5198 -0.8660  0.3564
   22CHL1   C18 1581   6.612   4.494   8.750  0.4522  0.0052  0.0124
   22CHL1  H18A 1582   6.595   4.511   8.858 -2.1953 -3.7968  0.2797
   22CHL1  H18B 1583   6.632   4.595   8.707  0.5713 -0.8300 -1.9627
   22CHL1  H18C 1584   6.512   4.471   8.707 -0.1783 -0.1027  1.5047
   22CHL1   C12 1585   6.671   4.245   8.763  0.3411 -0.2758 -1.2828
   22CHL1  H12A 1586   6.578   4.210   8.713 -1.7697  1.7249  1.1648
   22CHL1  H12B 1587   6.748   4.168   8.738 -0.9397 -1.6588 -1.0688
   22CHL1   C11 1588   6.642   4.237   8.915  0.0495  0.6712  0.5029
   22CHL1  H11A 1589   6.559   4.291   8.965 -0.3365  1.1868 -0.6892
   22CHL1  H11B 1590   6.616   4.133   8.943  2.7495 -0.3220 -0.4965
   22CHL1    C9 1591   6.770   4.275   8.990  0.5999  0.0541 -0.2408
   22CHL1    H9 1592   6.847   4.204   8.955  0.5046 -0.7582  1.1582
   22CHL1   C10 1593   6.759   4.260   9.144 -0.2248  0.2799  1.4592
   22CHL1   C19 1594   6.647   4.350   9.196  0.0408  0.0717  0.0411
   22CHL1  H19A 1595   6.547   4.303   9.181 -0.4183  1.7855 -2.5456
   22CHL1  H19B 1596   6.663   4.361   9.306  0.2742 -0.4276  0.0575
   22CHL1  H19C 1597   6.648   4.457   9.166 -0.4426  0.1454  0.2891
   22CHL1    C1 1598   6.743   4.108   9.190 -0.1892 -0.2791  0.0347
   22CHL1   H1A 1599   6.640   4.078   9.160  0.2261 -0.1315 -1.5513
   22CHL1   H1B 1600   6.820   4.045   9.141  1.6984  0.9979  1.2628
   22CHL1    C2 1601   6.754   4.083   9.337  0.3203 -0.0808 -0.3392
   22CHL1   H2A 1602   6.726   3.978   9.359 -0.8652  0.4012  0.4888
   22CHL1   H2B 1603   6.668   4.124   9.395  0.4009  0.5198 -0.6393
   22CHL1   C20 1604   6.659   4.423   8.473 -0.6978  0.0452  0.6070
   22CHL1   H20 1605   6.581   4.496   8.502 -1.1764  0.2915 -1.1977
   22CHL1   C21 1606   6.588   4.289   8.444  0.2005  0.5169  0.0092
   22CHL1  H21A 1607   6.526   4.305   8.353  0.8460  0.8087 -0.3856
   22CHL1  H21B 1608   6.530   4.250   8.530 -2.5502 -1.1224 -2.5081
   22CHL1  H21C 1609   6.663   4.208   8.435  0.1903  0.6453 -1.3456
   22CHL1   C22 1610   6.717   4.491   8.342  0.0669  0.4504 -0.3613
   22CHL1  H22A 1611   6.640   4.510   8.264  0.3931  2.7692 -0.1737
   22CHL1  H22B 1612   6.751   4.592   8.376 -0.4749 -0.3122  2.5828
   22CHL1   C23 1613   6.839   4.438   8.266 -0.1372  0.1806 -0.2254
   22CHL1  H23A 1614   6.926   4.455   8.332 -1.2558  1.8053  0.8553
   22CHL1  H23B 1615   6.804   4.333   8.271  0.1467  0.0864 -0.1778
   22CHL1   C24 1616   6.854   4.509   8.131  0.5734  0.0721 -0.2101
   22CHL1  H24A 1617   6.777   4.475   8.058  0.2174 -0.9495  0.6241
   22CHL1  H24B 1618   6.836   4.618   8.144 -1.3532  0.0221 -2.1008
   22CHL1   C25 1619   6.987   4.500   8.061 -0.6624  0.6365  0.1692
   22CHL1   H25 1620   7.072   4.519   8.129 -1.8090  1.5590  1.3750
   22CHL1   C26 1621   7.019   4.348   8.035 -0.1089  0.1924  0.1099
   22CHL1  H26A 1622   6.936   4.307   7.973 -2.7689 -0.1323  3.7200
   22CHL1  H26B 1623   7.113   4.327   7.980 -1.1182 -4.3165 -0.0864
   22CHL1  H26C 1624   7.014   4.297   8.134  0.0589  1.1992  0.6412
   22CHL1   C27 1625   6.999   4.585   7.933  0.1601  0.1273 -0.9207
   22CHL1  H27A 1626   6.967   4.690   7.953  0.8004  0.1436  0.0640
   22CHL1  H27B 1627   7.104   4.583   7.897  1.2741 -0.5855  2.2161
   22CHL1  H27C 1628   6.928   4.551   7.855  1.2568 -1.5619 -1.2095
   23CHL1    C3 1629   3.458   6.845   9.524 -0.1687 -0.0461  0.1699
   23CHL1    H3 1630   3.505   6.750   9.488 -1.3782 -0.8426  0.6567
   23CHL1    O3 1631   3.420   6.836   9.664  0.1852  0.5116  0.2719
   23CHL1   H3' 1632   3.495   6.812   9.719  0.3450  2.2227  0.8259
   23CHL1    C4 1633   3.560   6.963   9.522  0.0592 -0.1002 -0.4883
   23CHL1   H4A 1634   3.524   7.052   9.579 -2.0945  0.1622 -2.1778
   23CHL1   H4B 1635   3.656   6.917   9.552  1.4061  0.9153 -3.0440
   23CHL1    C5 1636   3.593   7.012   9.381 -0.1684 -0.3357 -0.3250
   23CHL1    C6 1637   3.725   7.011   9.332 -0.3176  0.3139  0.3030
   23CHL1    H6 1638   3.796   6.981   9.410  0.5127  1.6675  0.0834
   23CHL1    C7 1639   3.768   7.079   9.207  0.3666  0.3137 -0.5948
   23CHL1   H7A 1640   3.857   7.143   9.224 -0.2903  0.6029  2.0030
   23CHL1   H7B 1641   3.811   7.005   9.136  1.0749  0.1587 -0.0141
   23CHL1    C8 1642   3.660   7.148   9.127 -0.6201 -0.2215  0.0161
   23CHL1    H8 1643   3.667   7.247   9.177  1.3314 -1.6416  2.6823
   23CHL1   C14 1644   3.699   7.164   8.984 -0.0084  0.1713 -0.9442
   23CHL1   H14 1645   3.704   7.057   8.953  0.5616 -0.6778  1.8955
   23CHL1   C15 1646   3.830   7.229   8.958  0.9061  0.3339  0.4469
   23CHL1  H15A 1647   3.841   7.330   9.004 -0.8910  0.9145 -0.3667
   23CHL1  H15B 1648   3.921   7.174   8.991  0.4847 -1.3673 -1.1446
   23CHL1   C16 1649   3.829   7.241   8.808  0.7731  0.4426 -0.2754
   23CHL1  H16A 1650   3.856   7.348   8.792 -0.6730  0.5701 -2.1174
   23CHL1  H16B 1651   3.905   7.177   8.758  1.5669 -0.3423  1.9126
   23CHL1   C17 1652   3.687   7.213   8.756 -0.3691 -0.1445  0.0055
   23CHL1   H17 1653   3.706   7.107   8.728  0.8989  0.3369 -0.9927
   23CHL1   C13 1654   3.596   7.218   8.885  0.7598 -0.4403 -0.4223
   23CHL1   C18 1655   3.564   7.367   8.922 -0.3329 -0.4479 -0.1077
   23CHL1  H18A 1656   3.526   7.432   8.840 -0.6385 -0.2579  0.1814
   23CHL1  H18B 1657   3.495   7.382   9.007  0.0189 -1.2863  0.3259
   23CHL1  H18C 1658   3.656   7.425   8.946 -1.3811  0.9110  0.7167
   23CHL1   C12 1659   3.469   7.131   8.900 -0.7189  0.4258  0.1976
   23CHL1  H12A 1660   3.384   7.166   8.837 -2.1215 -0.5708  1.4931
   23CHL1  H12B 1661   3.485   7.024   8.874 -0.7109  0.9917 -2.2541
   23CHL1   C11 1662   3.421   7.133   9.047  0.1264  0.2876 -0.2574
   23CHL1  H11A 1663   3.382   7.232   9.082  1.5292  0.4675  0.8549
   23CHL1  H11B 1664   3.337   7.062   9.056  1.9334 -1.7385  1.1505
   23CHL1    C9 1665   3.524   7.079   9.146  0.5784  0.2311 -0.4263
   23CHL1    H9 1666   3.542   6.978   9.103 -0.3897 -0.3428  0.4800
   23CHL1   C10 1667   3.476   7.057   9.291 -0.2522 -0.2946  0.1982
   23CHL1   C19 1668   3.421   7.183   9.352 -0.0690 -0.9354 -0.1519
   23CHL1  H19A 1669   3.390   7.178   9.458  0.8714 -0.2702  0.1657
   23CHL1  H19B 1670   3.499   7.262   9.350  0.1674 -1.1612  0.1149
   23CHL1  H19C 1671   3.336   7.214   9.288  0.8172 -0.2772 -1.0455
   23CHL1    C1 1672   3.379   6.938   9.305 -0.7542 -1.0223  0.1448
   23CHL1   H1A 1673   3.292   6.970   9.245  0.6494  1.0751 -0.8057
   23CHL1   H1B 1674   3.415   6.852   9.244  1.2541 -0.7801  0.9537
   23CHL1    C2 1675   3.335   6.885   9.444  0.3970 -0.8151  0.2491
   23CHL1   H2A 1676   3.262   6.802   9.435  0.2439 -0.5341 -1.2779
   23CHL1   H2B 1677   3.277   6.966   9.495  1.7202  0.5267 -0.3483
   23CHL1   C20 1678   3.650   7.290   8.632  0.0747 -0.0514 -0.7288
   23CHL1   H20 1679   3.662   7.397   8.661 -2.9313 -0.0369  0.6265
   23CHL1   C21 1680   3.510   7.261   8.594  0.3120  0.7062 -0.0665
   23CHL1  H21A 1681   3.429   7.305   8.657  0.8998  1.4348  0.1876
   23CHL1  H21B 1682   3.503   7.151   8.584  0.9884  0.6623 -0.0716
   23CHL1  H21C 1683   3.483   7.300   8.493  1.8634  0.2827 -0.6516
   23CHL1   C22 1684   3.748   7.279   8.511 -0.2624 -0.0748 -0.4150
   23CHL1  H22A 1685   3.852   7.282   8.549 -0.8664 -1.1917  1.3612
   23CHL1  H22B 1686   3.743   7.187   8.450 -1.4282 -0.8096  0.7555
   23CHL1   C23 1687   3.736   7.386   8.396 -0.2060 -0.0813  0.0508
   23CHL1  H23A 1688   3.636   7.371   8.350  0.2359 -0.0543 -0.9349
   23CHL1  H23B 1689   3.732   7.489   8.436 -0.8988 -0.7460  1.7543
   23CHL1   C24 1690   3.851   7.374   8.290  0.1849  0.4097 -0.0603
   23CHL1  H24A 1691   3.945   7.394   8.347 -1.1589 -0.6273  2.6011
   23CHL1  H24B 1692   3.858   7.278   8.235 -1.3464 -1.0377  2.2017
   23CHL1   C25 1693   3.846   7.487   8.182 -0.4389  0.5059  0.7169
   23CHL1   H25 1694   3.765   7.456   8.111  0.0602 -0.6593  0.6512
   23CHL1   C26 1695   3.818   7.630   8.229  0.5274  0.0846 -0.3343
   23CHL1  H26A 1696   3.895   7.664   8.302  0.7960 -1.5596  0.1687
   23CHL1  H26B 1697   3.825   7.694   8.138 -0.7317 -0.5853 -0.9124
   23CHL1  H26C 1698   3.712   7.627   8.263  1.1558 -4.2455  1.4857
   23CHL1   C27 1699   3.984   7.488   8.113  0.2163 -0.2267  0.2257
   23CHL1  H27A 1700   4.068   7.517   8.180 -1.0444  1.5241  1.0692
   23CHL1  H27B 1701   4.008   7.389   8.067  0.2951 -0.8309  1.5326
   23CHL1  H27C 1702   3.982   7.564   8.032  1.1641  2.8448  2.9735
   24CHL1    C3 1703   4.141   6.964   9.442  0.4458  0.4777  0.2264
   24CHL1    H3 1704   4.079   6.894   9.382 -1.0401  1.4448  0.6044
   24CHL1    O3 1705   4.096   6.973   9.579 -0.3562  0.0542  0.3505
   24CHL1   H3' 1706   4.015   6.920   9.578  0.5791 -1.4203 -0.6762
   24CHL1    C4 1707   4.290   6.920   9.446  0.1538 -0.9566 -0.1327
   24CHL1   H4A 1708   4.346   6.988   9.514 -1.5068 -0.3409  0.6487
   24CHL1   H4B 1709   4.303   6.822   9.497 -0.8281 -2.9030 -3.4800
   24CHL1    C5 1710   4.363   6.921   9.307 -0.5856 -0.0818  0.7586
   24CHL1    C6 1711   4.428   6.812   9.263 -0.1347  0.1558 -0.6333
   24CHL1    H6 1712   4.436   6.731   9.337 -0.8055 -0.2062 -0.9395
   24CHL1    C7 1713   4.493   6.793   9.125 -0.6494  0.1698 -0.3204
   24CHL1   H7A 1714   4.593   6.746   9.138 -0.0733  0.8252 -2.2302
   24CHL1   H7B 1715   4.433   6.716   9.072 -2.1958  0.8675  0.3735
   24CHL1    C8 1716   4.490   6.929   9.046 -0.7526 -0.3162 -0.0030
   24CHL1    H8 1717   4.572   6.992   9.087  0.1074 -1.0099 -0.6659
   24CHL1   C14 1718   4.509   6.893   8.896 -0.3455  0.4823  0.6035
   24CHL1   H14 1719   4.425   6.827   8.865  0.6380 -0.5984  0.1954
   24CHL1   C15 1720   4.635   6.809   8.855 -0.0291 -0.6744  0.2110
   24CHL1  H15A 1721   4.721   6.841   8.917  1.5251 -0.3004 -2.1180
   24CHL1  H15B 1722   4.622   6.701   8.880  3.3040 -0.8538  1.4440
   24CHL1   C16 1723   4.665   6.846   8.709 -0.1079 -0.4702 -0.0678
   24CHL1  H16A 1724   4.768   6.886   8.696 -0.8397  1.1251 -1.2373
   24CHL1  H16B 1725   4.659   6.753   8.649  1.8332  1.3095 -3.2237
   24CHL1   C17 1726   4.553   6.948   8.668 -0.2735 -0.3322  0.1804
   24CHL1   H17 1727   4.465   6.898   8.622  0.5940 -1.1285 -0.6301
   24CHL1   C13 1728   4.506   7.011   8.804 -0.0395  0.5262  1.0761
   24CHL1   C18 1729   4.614   7.111   8.847  0.2223 -0.1368 -0.2711
   24CHL1  H18A 1730   4.628   7.125   8.956 -1.4437  0.6097 -0.1211
   24CHL1  H18B 1731   4.711   7.077   8.805  1.1263  0.8574  0.9916
   24CHL1  H18C 1732   4.593   7.213   8.807 -0.8424 -0.2610 -0.0612
   24CHL1   C12 1733   4.364   7.078   8.810  0.0472 -0.2764 -0.3764
   24CHL1  H12A 1734   4.358   7.165   8.741 -0.6852 -0.0109  0.0226
   24CHL1  H12B 1735   4.285   7.004   8.785  1.1814 -1.9540  0.9409
   24CHL1   C11 1736   4.339   7.119   8.958  0.2985 -0.6591  0.1397
   24CHL1  H11A 1737   4.405   7.200   8.995 -1.4127 -0.6815  3.4119
   24CHL1  H11B 1738   4.235   7.158   8.961  0.8900  1.0500 -0.9397
   24CHL1    C9 1739   4.358   6.996   9.058 -0.4243  0.0734 -0.3191
   24CHL1    H9 1740   4.282   6.920   9.030 -2.2487  1.5981  0.3451
   24CHL1   C10 1741   4.328   7.035   9.213 -0.2066  0.0481 -0.2710
   24CHL1   C19 1742   4.413   7.161   9.256  0.0695 -0.0563  0.1808
   24CHL1  H19A 1743   4.521   7.149   9.232  0.3884  0.9113  1.0805
   24CHL1  H19B 1744   4.385   7.261   9.216 -1.6177 -0.9367 -0.8838
   24CHL1  H19C 1745   4.426   7.176   9.365 -0.5783  2.2939 -0.0269
   24CHL1    C1 1746   4.181   7.089   9.226 -0.2332  0.2502 -0.6130
   24CHL1   H1A 1747   4.168   7.183   9.170  1.7248  0.7833 -0.1995
   24CHL1   H1B 1748   4.126   7.010   9.171  2.0026 -0.4091 -1.9792
   24CHL1    C2 1749   4.126   7.097   9.370 -0.0888  0.6348 -0.7793
   24CHL1   H2A 1750   4.021   7.133   9.366  0.0220  0.9179 -1.1048
   24CHL1   H2B 1751   4.194   7.167   9.423  4.1063 -1.9775 -2.4992
   24CHL1   C20 1752   4.609   7.037   8.549  0.5999 -0.4946  0.1714
   24CHL1   H20 1753   4.695   7.103   8.576  0.7306 -0.9037  0.7545
   24CHL1   C21 1754   4.501   7.133   8.499 -0.7329  0.6638 -0.1637
   24CHL1  H21A 1755   4.529   7.184   8.404  1.6610  1.2354  0.7988
   24CHL1  H21B 1756   4.489   7.214   8.574  0.2805 -0.6141  1.4270
   24CHL1  H21C 1757   4.407   7.077   8.483 -0.8122 -0.4682  3.6268
   24CHL1   C22 1758   4.661   6.952   8.432 -0.6593  0.1256 -0.1738
   24CHL1  H22A 1759   4.743   6.890   8.475  0.1439  0.8602 -0.6408
   24CHL1  H22B 1760   4.578   6.889   8.394 -1.5153  0.4116  1.1847
   24CHL1   C23 1761   4.728   7.019   8.306 -0.5662  0.1332  0.3966
   24CHL1  H23A 1762   4.647   7.072   8.252  0.3036  1.1763  0.1018
   24CHL1  H23B 1763   4.795   7.096   8.350 -0.3290 -0.1181  0.4817
   24CHL1   C24 1764   4.808   6.925   8.214 -0.2206 -0.3242  0.5340
   24CHL1  H24A 1765   4.900   6.898   8.270 -1.2926 -1.1717  1.9213
   24CHL1  H24B 1766   4.745   6.837   8.189  1.5695 -1.9888  1.7394
   24CHL1   C25 1767   4.849   6.990   8.077 -0.8260 -0.9571  0.1887
   24CHL1   H25 1768   4.757   7.006   8.017 -1.1605  0.9182  1.1690
   24CHL1   C26 1769   4.925   7.126   8.093 -0.3738  0.4110  0.0710
   24CHL1  H26A 1770   4.961   7.153   7.992 -0.9585  3.0682  0.5410
   24CHL1  H26B 1771   4.858   7.201   8.139 -0.7927  0.2136 -0.2159
   24CHL1  H26C 1772   5.014   7.113   8.158  0.2656 -0.3576 -0.9343
   24CHL1   C27 1773   4.954   6.897   8.010  0.4490 -0.7943  0.2585
   24CHL1  H27A 1774   4.914   6.794   7.993 -0.7677 -0.0104 -1.7480
   24CHL1  H27B 1775   5.000   6.937   7.917 -0.3505 -2.1174 -0.7390
   24CHL1  H27C 1776   5.041   6.890   8.079  1.4758 -2.0395 -1.1205
   25CHL1    C3 1777   4.587   0.380   9.388  0.7666  0.0479  0.1783
   25CHL1    H3 1778   4.623   0.277   9.407 -1.5961 -0.9597 -0.6504
   25CHL1    O3 1779   4.520   0.436   9.507  0.2870  0.4864 -0.0919
   25CHL1   H3' 1780   4.587   0.446   9.575 -0.1560  1.4583  0.2073
   25CHL1    C4 1781   4.704   0.472   9.353  0.1329  0.4145  0.1312
   25CHL1   H4A 1782   4.660   0.573   9.346 -2.4474 -0.7353 -0.8586
   25CHL1   H4B 1783   4.773   0.484   9.440 -1.3084  2.2913  1.0438
   25CHL1    C5 1784   4.766   0.435   9.224  1.1079 -0.0106  0.2900
   25CHL1    C6 1785   4.898   0.401   9.216  0.0780 -0.9560  0.1398
   25CHL1    H6 1786   4.965   0.411   9.303 -0.0967  1.2690  0.0612
   25CHL1    C7 1787   4.976   0.380   9.086  1.1297  0.2556 -0.1204
   25CHL1   H7A 1788   5.057   0.456   9.086 -0.4151  1.9451 -0.3027
   25CHL1   H7B 1789   5.026   0.281   9.078  0.3114 -0.1659 -0.0662
   25CHL1    C8 1790   4.886   0.411   8.959 -0.5730  0.0873 -0.6696
   25CHL1    H8 1791   4.868   0.520   8.959 -1.7445 -0.0939  0.1789
   25CHL1   C14 1792   4.948   0.341   8.838 -0.8791  0.6639 -0.1622
   25CHL1   H14 1793   4.954   0.234   8.866 -0.0430  1.1149  1.4168
   25CHL1   C15 1794   5.099   0.367   8.806  0.2401  0.5486 -0.1656
   25CHL1  H15A 1795   5.126   0.472   8.833  0.4161  0.2288  0.9094
   25CHL1  H15B 1796   5.158   0.290   8.860  0.2608  0.1632 -0.7398
   25CHL1   C16 1797   5.114   0.343   8.655 -0.1989  0.0896  0.2350
   25CHL1  H16A 1798   5.124   0.439   8.600 -0.2724  0.5295  0.9857
   25CHL1  H16B 1799   5.193   0.272   8.624 -2.1685 -1.3863 -1.5574
   25CHL1   C17 1800   4.969   0.294   8.609 -0.1270 -0.4156  0.0800
   25CHL1   H17 1801   4.970   0.184   8.625 -0.4060 -0.5898 -1.0350
   25CHL1   C13 1802   4.869   0.354   8.707  0.3717  0.2910  0.4000
   25CHL1   C18 1803   4.840   0.505   8.669 -0.1405 -0.1439  0.3001
   25CHL1  H18A 1804   4.770   0.509   8.583 -0.0669 -2.0926  0.1292
   25CHL1  H18B 1805   4.792   0.563   8.750  0.3990 -0.2539  0.7016
   25CHL1  H18C 1806   4.941   0.542   8.638 -0.1819 -0.5077 -0.2838
   25CHL1   C12 1807   4.737   0.276   8.727 -0.0852 -0.0734  0.6369
   25CHL1  H12A 1808   4.664   0.268   8.643  0.9919 -0.0014 -0.3176
   25CHL1  H12B 1809   4.771   0.170   8.734 -0.2880 -0.1818 -0.0240
   25CHL1   C11 1810   4.661   0.339   8.849  0.2579 -0.5413  0.2930
   25CHL1  H11A 1811   4.632   0.445   8.838  2.4317  0.1741  1.2299
   25CHL1  H11B 1812   4.565   0.286   8.861 -0.9266  1.3394 -0.6322
   25CHL1    C9 1813   4.742   0.346   8.979 -0.3263  0.8319  0.1605
   25CHL1    H9 1814   4.757   0.240   9.009  0.7966  0.5602 -1.2766
   25CHL1   C10 1815   4.674   0.416   9.102  0.1490  0.3109  0.2988
   25CHL1   C19 1816   4.621   0.559   9.060  0.1075  0.1026 -0.9241
   25CHL1  H19A 1817   4.567   0.615   9.140  2.0957  1.1120 -0.2749
   25CHL1  H19B 1818   4.705   0.622   9.024  1.4438 -0.9161  0.3403
   25CHL1  H19C 1819   4.543   0.545   8.982 -0.5722  1.7447 -0.5689
   25CHL1    C1 1820   4.553   0.329   9.143  0.3757 -0.0720  0.2300
   25CHL1   H1A 1821   4.485   0.323   9.055  2.0654 -1.0493 -1.0241
   25CHL1   H1B 1822   4.591   0.227   9.161 -0.4263 -0.5743 -0.8618
   25CHL1    C2 1823   4.485   0.373   9.271  0.4367  1.1809 -0.2638
   25CHL1   H2A 1824   4.409   0.298   9.301  1.7345 -0.6827 -1.5252
   25CHL1   H2B 1825   4.446   0.476   9.254 -0.3650  0.9512  0.1747
   25CHL1   C20 1826   4.935   0.319   8.456  0.3812  0.3211 -0.5166
   25CHL1   H20 1827   4.911   0.427   8.442 -1.3635  0.2519  1.6948
   25CHL1   C21 1828   4.810   0.239   8.420  0.6064  0.6527 -0.0379
   25CHL1  H21A 1829   4.714   0.274   8.464  2.0803 -0.0040  3.8545
   25CHL1  H21B 1830   4.834   0.135   8.451 -0.8654  0.6872  1.2897
   25CHL1  H21C 1831   4.792   0.238   8.310  0.4062  1.1253 -0.0114
   25CHL1   C22 1832   5.052   0.273   8.364  0.2920  1.0742  0.2909
   25CHL1  H22A 1833   5.147   0.309   8.408  0.9910 -1.6421  1.1059
   25CHL1  H22B 1834   5.058   0.163   8.381  1.1296  1.0592 -0.1140
   25CHL1   C23 1835   5.038   0.309   8.218  0.4080  0.0069 -0.2725
   25CHL1  H23A 1836   4.933   0.302   8.181 -0.0945  2.5859  0.5489
   25CHL1  H23B 1837   5.064   0.416   8.203  2.1038 -0.4304 -0.4843
   25CHL1   C24 1838   5.137   0.238   8.122 -0.1922 -0.0604  0.2914
   25CHL1  H24A 1839   5.239   0.279   8.135 -0.1776  0.0967 -0.3161
   25CHL1  H24B 1840   5.133   0.128   8.135  0.2182 -0.3190 -1.7648
   25CHL1   C25 1841   5.105   0.262   7.965 -0.3084 -0.4238 -0.3917
   25CHL1   H25 1842   5.015   0.202   7.940  0.1641 -1.0724 -0.5399
   25CHL1   C26 1843   5.077   0.405   7.919  0.0490 -0.4944 -0.0640
   25CHL1  H26A 1844   5.070   0.413   7.808 -0.2894 -0.5713 -0.0488
   25CHL1  H26B 1845   4.993   0.454   7.973  0.7463 -1.5634  2.0492
   25CHL1  H26C 1846   5.163   0.469   7.949 -2.2030  2.7504 -0.2435
   25CHL1   C27 1847   5.232   0.214   7.886 -0.2146  0.4547  0.2352
   25CHL1  H27A 1848   5.250   0.109   7.918 -0.7925 -0.1850 -1.4911
   25CHL1  H27B 1849   5.222   0.239   7.778  0.4347 -1.1305 -0.2153
   25CHL1  H27C 1850   5.318   0.277   7.919 -0.6820  0.6953  0.9789
   26CHL1    C3 1851   0.316   4.303   9.351  0.1692 -0.6522  0.1044
   26CHL1    H3 1852   0.357   4.201   9.337 -1.7642 -1.2905 -1.1802
   26CHL1    O3 1853   0.305   4.328   9.487  0.4875 -0.2001 -0.8751
   26CHL1   H3' 1854   0.286   4.246   9.533 -1.0003  0.8796  0.4937
   26CHL1    C4 1855   0.410   4.416   9.303  0.2902 -0.5264 -0.3999
   26CHL1   H4A 1856   0.365   4.512   9.336 -2.9271 -2.1052  0.0678
   26CHL1   H4B 1857   0.508   4.407   9.355 -0.0466  0.3613  0.3852
   26CHL1    C5 1858   0.418   4.405   9.149  0.0593 -0.0107 -0.4934
   26CHL1    C6 1859   0.542   4.399   9.098  0.0281  0.4076  0.4501
   26CHL1    H6 1860   0.630   4.404   9.165  0.2499  2.4188  0.0658
   26CHL1    C7 1861   0.573   4.399   8.954 -1.0205  0.2152  0.2750
   26CHL1   H7A 1862   0.666   4.453   8.927 -1.5041  0.2384 -1.3723
   26CHL1   H7B 1863   0.607   4.295   8.935 -3.1980 -0.6679  0.9778
   26CHL1    C8 1864   0.456   4.452   8.865  0.3537  0.1247 -0.1717
   26CHL1    H8 1865   0.450   4.562   8.879  2.7689  0.1118  1.2033
   26CHL1   C14 1866   0.479   4.423   8.716 -0.6783 -0.0262 -0.5125
   26CHL1   H14 1867   0.486   4.313   8.700 -2.5408 -0.3060  0.4226
   26CHL1   C15 1868   0.609   4.482   8.658 -0.2624  0.6219  0.0941
   26CHL1  H15A 1869   0.628   4.583   8.700  4.2504 -0.2408  0.3745
   26CHL1  H15B 1870   0.698   4.420   8.681 -1.1727 -0.1846  1.5120
   26CHL1   C16 1871   0.585   4.471   8.506 -0.0910  0.0113  0.2059
   26CHL1  H16A 1872   0.619   4.558   8.447  1.1432 -1.5336 -1.3830
   26CHL1  H16B 1873   0.637   4.385   8.460  0.8116  1.3221 -1.2289
   26CHL1   C17 1874   0.434   4.439   8.480 -0.7209 -0.4088  0.1558
   26CHL1   H17 1875   0.427   4.330   8.460  0.8532 -0.3028 -1.0079
   26CHL1   C13 1876   0.374   4.466   8.620  0.4369 -0.5341 -0.0201
   26CHL1   C18 1877   0.353   4.616   8.638 -0.4816  0.4637 -0.3970
   26CHL1  H18A 1878   0.433   4.677   8.590 -0.4355 -0.0079 -0.9324
   26CHL1  H18B 1879   0.260   4.646   8.583  0.0554 -0.3756 -1.7971
   26CHL1  H18C 1880   0.320   4.643   8.740 -2.0903 -2.5089 -0.0720
   26CHL1   C12 1881   0.247   4.381   8.658  0.5194 -0.0150  0.4168
   26CHL1  H12A 1882   0.162   4.420   8.599  1.8456 -1.5305 -2.5901
   26CHL1  H12B 1883   0.261   4.273   8.640  0.7955 -0.1441  1.3788
   26CHL1   C11 1884   0.212   4.412   8.808  0.2897 -0.2427  0.0541
   26CHL1  H11A 1885   0.178   4.518   8.807 -1.4211 -0.7806 -0.1525
   26CHL1  H11B 1886   0.128   4.351   8.848  1.0962  0.1055  2.3770
   26CHL1    C9 1887   0.324   4.385   8.913  0.1862  0.1157 -0.4246
   26CHL1    H9 1888   0.341   4.275   8.917  0.1852  0.1413  0.2848
   26CHL1   C10 1889   0.284   4.410   9.067 -0.2139 -0.1194 -0.2691
   26CHL1   C19 1890   0.206   4.541   9.073  0.0574  0.8353 -0.6720
   26CHL1  H19A 1891   0.247   4.625   9.012  1.9645  0.8735  0.6433
   26CHL1  H19B 1892   0.105   4.524   9.031 -0.6710  1.2729  0.8682
   26CHL1  H19C 1893   0.196   4.570   9.180 -1.9082 -1.9822 -0.0416
   26CHL1    C1 1894   0.192   4.302   9.116 -0.5493  0.5591  0.4558
   26CHL1   H1A 1895   0.105   4.300   9.047  0.0208  0.8118 -0.2826
   26CHL1   H1B 1896   0.233   4.200   9.097  1.1096  1.5145 -1.2191
   26CHL1    C2 1897   0.173   4.304   9.274 -0.1278  0.0247  0.0058
   26CHL1   H2A 1898   0.112   4.223   9.320 -0.6851  0.4070 -0.0593
   26CHL1   H2B 1899   0.109   4.391   9.298 -2.6938 -2.0234  0.8997
   26CHL1   C20 1900   0.371   4.516   8.350  0.6654  0.4092 -1.0425
   26CHL1   H20 1901   0.396   4.624   8.364  0.5036  0.1574  1.3634
   26CHL1   C21 1902   0.220   4.484   8.343  0.1829 -0.1528  0.6442
   26CHL1  H21A 1903   0.198   4.377   8.363  2.5424 -0.4293  1.8552
   26CHL1  H21B 1904   0.183   4.516   8.244 -1.7981 -2.0930  0.7053
   26CHL1  H21C 1905   0.159   4.547   8.411  0.5221  1.5920 -0.6498
   26CHL1   C22 1906   0.441   4.477   8.217  0.1860 -0.0808  0.9242
   26CHL1  H22A 1907   0.547   4.490   8.249  1.2611 -1.2220 -2.0046
   26CHL1  H22B 1908   0.418   4.370   8.196 -0.6350 -0.1359  2.0440
   26CHL1   C23 1909   0.402   4.571   8.098  0.2466  0.1777  0.4234
   26CHL1  H23A 1910   0.295   4.567   8.068  0.1859  0.6121  0.5811
   26CHL1  H23B 1911   0.435   4.673   8.125  2.9137 -0.7679  0.8062
   26CHL1   C24 1912   0.488   4.522   7.974 -0.4806  0.4286  0.9034
   26CHL1  H24A 1913   0.592   4.506   8.011  0.1395 -0.4799 -1.1772
   26CHL1  H24B 1914   0.456   4.418   7.953  1.7781  0.1282 -1.2388
   26CHL1   C25 1915   0.479   4.602   7.848 -0.0922  0.0287  0.2628
   26CHL1   H25 1916   0.373   4.605   7.815 -0.6677 -1.2232  1.9635
   26CHL1   C26 1917   0.503   4.754   7.874 -0.6018 -0.4268 -0.0412
   26CHL1  H26A 1918   0.497   4.816   7.782 -2.2712  0.4062  0.6118
   26CHL1  H26B 1919   0.438   4.794   7.954  0.5660 -0.4989  0.9608
   26CHL1  H26C 1920   0.607   4.766   7.910 -0.9176  0.7005  0.5193
   26CHL1   C27 1921   0.575   4.540   7.746  0.0876  0.2600 -0.2210
   26CHL1  H27A 1922   0.609   4.603   7.662  2.5760 -1.0369 -0.2455
   26CHL1  H27B 1923   0.667   4.513   7.803  0.9250 -0.1351 -1.7436
   26CHL1  H27C 1924   0.527   4.448   7.706  0.6597 -0.2271  0.1954
   27CHL1    C3 1925   0.188   1.300   9.369  0.1407  0.1088 -0.6278
   27CHL1    H3 1926   0.124   1.211   9.354 -1.4874  1.2456 -0.5449
   27CHL1    O3 1927   0.195   1.304   9.513  0.1871 -0.3196 -0.4646
   27CHL1   H3' 1928   0.277   1.348   9.536 -0.2050  0.1297  0.0807
   27CHL1    C4 1929   0.325   1.288   9.297  0.8370 -0.5576 -0.8904
   27CHL1   H4A 1930   0.385   1.376   9.330 -1.0806  1.6117 -2.9846
   27CHL1   H4B 1931   0.376   1.199   9.340 -0.6137 -1.1597 -0.4132
   27CHL1    C5 1932   0.315   1.273   9.149 -0.1900 -0.5825  0.3181
   27CHL1    C6 1933   0.356   1.165   9.081  0.2575  0.1584 -0.5316
   27CHL1    H6 1934   0.402   1.083   9.138 -1.6235  0.0677  0.9298
   27CHL1    C7 1935   0.358   1.155   8.933  0.3678 -0.2277  0.3031
   27CHL1   H7A 1936   0.463   1.136   8.903  0.3598  0.8402 -0.4301
   27CHL1   H7B 1937   0.289   1.071   8.908 -0.1856  0.0733  0.7972
   27CHL1    C8 1938   0.324   1.290   8.861 -0.0588 -0.0965 -0.4919
   27CHL1    H8 1939   0.417   1.348   8.877  1.2780 -2.8886  2.7136
   27CHL1   C14 1940   0.285   1.263   8.714 -0.2164  0.1369 -0.8921
   27CHL1   H14 1941   0.191   1.207   8.732  0.0743  0.0015  0.2113
   27CHL1   C15 1942   0.359   1.163   8.634 -0.5281 -0.2193 -0.0071
   27CHL1  H15A 1943   0.468   1.163   8.655 -0.6627 -2.1058  0.8354
   27CHL1  H15B 1944   0.326   1.058   8.646 -1.0891  0.0941  1.2348
   27CHL1   C16 1945   0.346   1.214   8.490 -0.0528 -0.0980  0.1526
   27CHL1  H16A 1946   0.446   1.256   8.467  0.0464 -1.1563 -1.4201
   27CHL1  H16B 1947   0.336   1.132   8.416 -2.3173  1.1826 -1.0098
   27CHL1   C17 1948   0.234   1.321   8.490 -0.0630  0.4181  0.2427
   27CHL1   H17 1949   0.138   1.266   8.501  0.6485 -1.1074 -1.0821
   27CHL1   C13 1950   0.253   1.384   8.630 -1.1687 -0.3208 -0.0437
   27CHL1   C18 1951   0.368   1.488   8.627 -0.2744  0.2432 -0.3947
   27CHL1  H18A 1952   0.339   1.574   8.563  0.8713 -1.5979 -3.5114
   27CHL1  H18B 1953   0.396   1.512   8.732 -0.5287 -1.7765  0.1546
   27CHL1  H18C 1954   0.465   1.450   8.588 -0.2481  1.8288 -1.9351
   27CHL1   C12 1955   0.129   1.449   8.688 -0.3672  0.2049  0.5183
   27CHL1  H12A 1956   0.107   1.540   8.629  1.2520  0.3563  0.1151
   27CHL1  H12B 1957   0.043   1.383   8.664  1.2065 -1.3859 -0.8865
   27CHL1   C11 1958   0.149   1.477   8.843 -0.9140 -0.5875  0.0373
   27CHL1  H11A 1959   0.204   1.573   8.851 -0.2788 -1.0860  1.9686
   27CHL1  H11B 1960   0.044   1.499   8.874 -0.7737  3.4611 -2.1048
   27CHL1    C9 1961   0.212   1.361   8.926  0.0333  0.3736  0.4529
   27CHL1    H9 1962   0.134   1.283   8.937  0.9125 -0.2992  2.0360
   27CHL1   C10 1963   0.241   1.392   9.078  0.4477  0.6485 -0.1501
   27CHL1   C19 1964   0.326   1.522   9.070 -0.4377 -0.2739 -0.6665
   27CHL1  H19A 1965   0.414   1.524   9.003  0.9893  0.4235  1.1891
   27CHL1  H19B 1966   0.257   1.605   9.042 -1.9157 -1.0356  0.6672
   27CHL1  H19C 1967   0.356   1.549   9.173  0.9040  0.1073 -1.1526
   27CHL1    C1 1968   0.108   1.419   9.158  0.4265 -0.3566  0.1891
   27CHL1   H1A 1969   0.060   1.512   9.122  1.0434  0.1129  0.5655
   27CHL1   H1B 1970   0.030   1.339   9.151  1.7064 -1.5662 -0.6549
   27CHL1    C2 1971   0.123   1.427   9.313  0.1125  0.1547 -0.4968
   27CHL1   H2A 1972   0.027   1.449   9.365 -0.7640 -0.6462 -1.7383
   27CHL1   H2B 1973   0.197   1.508   9.329  3.6161 -3.3471  2.0110
   27CHL1   C20 1974   0.232   1.417   8.371  0.6618  0.3307  0.4095
   27CHL1   H20 1975   0.179   1.506   8.411  0.2822 -0.7900  2.4330
   27CHL1   C21 1976   0.133   1.341   8.267 -0.6453  0.4618 -0.4257
   27CHL1  H21A 1977   0.105   1.401   8.178 -0.7746  0.5698 -0.3140
   27CHL1  H21B 1978   0.039   1.305   8.315 -0.1750  0.3653  0.4360
   27CHL1  H21C 1979   0.189   1.253   8.229  2.4566  2.3247 -0.3776
   27CHL1   C22 1980   0.367   1.461   8.308 -0.7310 -0.0502 -0.3666
   27CHL1  H22A 1981   0.432   1.513   8.381 -1.0598 -0.4003  0.1770
   27CHL1  H22B 1982   0.422   1.371   8.273  1.0738  1.2010 -0.8122
   27CHL1   C23 1983   0.350   1.558   8.194 -0.0008 -0.7812 -0.7249
   27CHL1  H23A 1984   0.299   1.515   8.104 -0.1092 -0.0597 -1.0123
   27CHL1  H23B 1985   0.289   1.637   8.242  0.0764 -2.0224  1.4561
   27CHL1   C24 1986   0.480   1.625   8.146 -0.5183 -0.5787 -0.6164
   27CHL1  H24A 1987   0.528   1.676   8.232 -1.8631 -0.2304 -0.0605
   27CHL1  H24B 1988   0.556   1.553   8.108 -0.6563 -0.3871 -1.2670
   27CHL1   C25 1989   0.462   1.752   8.057 -0.2949  0.6003 -0.8809
   27CHL1   H25 1990   0.399   1.824   8.113 -0.9877 -0.3827 -0.3941
   27CHL1   C26 1991   0.588   1.818   8.013 -0.1946  0.2588  0.8072
   27CHL1  H26A 1992   0.648   1.755   7.945  1.5172  1.5476  1.0982
   27CHL1  H26B 1993   0.573   1.912   7.955 -1.3661 -0.6330 -0.3622
   27CHL1  H26C 1994   0.657   1.829   8.099 -1.3577  0.4430  1.7256
   27CHL1   C27 1995   0.378   1.717   7.931 -0.3469 -0.2891  0.6455
   27CHL1  H27A 1996   0.417   1.635   7.867 -3.4633  0.7817 -2.8594
   27CHL1  H27B 1997   0.274   1.683   7.953 -1.2048  1.1449 -1.0238
   27CHL1  H27C 1998   0.363   1.806   7.866 -0.9608 -1.4146 -0.7747
   28CHL1    C3 1999   5.784   6.424   9.289  0.1667  0.5242  0.2289
   28CHL1    H3 2000   5.676   6.442   9.268  0.0127 -2.3037 -1.7139
   28CHL1    O3 2001   5.801   6.436   9.425  0.4645  0.2270  0.2345
   28CHL1   H3' 2002   5.895   6.427   9.443  0.2237  3.0499  3.3988
   28CHL1    C4 2003   5.817   6.281   9.236 -0.5120 -1.0166  0.0167
   28CHL1   H4A 2004   5.917   6.246   9.269 -1.0165 -2.6676 -0.1692
   28CHL1   H4B 2005   5.738   6.220   9.285 -0.3431 -1.2305  0.0222
   28CHL1    C5 2006   5.807   6.278   9.083  0.3609 -0.3284  0.4370
   28CHL1    C6 2007   5.728   6.194   9.023 -0.0073 -0.6596 -0.6483
   28CHL1    H6 2008   5.671   6.123   9.085 -0.5637  0.2489 -0.0981
   28CHL1    C7 2009   5.722   6.178   8.870  0.2097  0.1429  0.1277
   28CHL1   H7A 2010   5.715   6.069   8.850  3.5053  0.0125 -0.6954
   28CHL1   H7B 2011   5.641   6.237   8.822 -0.4957 -0.5007  0.5208
   28CHL1    C8 2012   5.852   6.237   8.805 -1.0321  0.2705 -0.0793
   28CHL1    H8 2013   5.938   6.173   8.836 -0.5271  1.1137  0.2941
   28CHL1   C14 2014   5.847   6.230   8.653  0.7301  0.1042  0.5669
   28CHL1   H14 2015   5.751   6.273   8.617  1.1675  0.7557  0.1640
   28CHL1   C15 2016   5.843   6.092   8.593 -0.1751  0.9058 -0.0303
   28CHL1  H15A 2017   5.926   6.028   8.630 -1.2345  0.2697  1.2596
   28CHL1  H15B 2018   5.748   6.035   8.605  0.4896  0.1083  1.5643
   28CHL1   C16 2019   5.872   6.113   8.443 -0.9328 -0.3149  0.4683
   28CHL1  H16A 2020   5.936   6.026   8.416 -0.4655  0.7324 -1.8354
   28CHL1  H16B 2021   5.787   6.108   8.372  1.3428 -1.0501 -2.2712
   28CHL1   C17 2022   5.938   6.250   8.433  0.3613 -0.4698 -0.2342
   28CHL1   H17 2023   5.863   6.321   8.392  0.2188  0.0214  0.8770
   28CHL1   C13 2024   5.964   6.301   8.577  0.1297 -1.0093  0.1271
   28CHL1   C18 2025   6.106   6.253   8.628 -0.4257 -0.3493  0.0388
   28CHL1  H18A 2026   6.116   6.142   8.624 -0.1555 -0.2832 -1.1781
   28CHL1  H18B 2027   6.190   6.298   8.572 -0.9008  1.6842  0.9268
   28CHL1  H18C 2028   6.122   6.280   8.735  0.9206  4.3336 -1.2381
   28CHL1   C12 2029   5.943   6.449   8.611 -0.1694  0.5634  0.0864
   28CHL1  H12A 2030   6.016   6.510   8.554 -1.6423  0.0823 -2.3805
   28CHL1  H12B 2031   5.841   6.477   8.579 -0.7272 -0.2737  1.1042
   28CHL1   C11 2032   5.963   6.471   8.768 -0.1345 -0.1729 -0.5919
   28CHL1  H11A 2033   6.067   6.448   8.796 -0.7871 -0.7512  1.4148
   28CHL1  H11B 2034   5.960   6.582   8.781 -0.0314 -0.2923  0.4963
   28CHL1    C9 2035   5.865   6.381   8.853 -0.2077 -0.1500 -0.3096
   28CHL1    H9 2036   5.763   6.420   8.836 -0.3811 -0.3696  0.2105
   28CHL1   C10 2037   5.889   6.383   9.006  0.7943  0.0959 -0.1538
   28CHL1   C19 2038   6.034   6.355   9.029  0.3953 -0.5277 -0.2875
   28CHL1  H19A 2039   6.085   6.448   8.994 -0.1918 -0.0252  0.1846
   28CHL1  H19B 2040   6.066   6.342   9.134 -0.4420  0.9076  0.1647
   28CHL1  H19C 2041   6.079   6.280   8.960 -1.2846  0.5339 -2.6406
   28CHL1    C1 2042   5.843   6.527   9.067 -0.1756 -0.2520  1.1772
   28CHL1   H1A 2043   5.914   6.602   9.026 -0.9797 -0.5054 -0.7243
   28CHL1   H1B 2044   5.739   6.551   9.036 -0.5265 -0.6653  2.0182
   28CHL1    C2 2045   5.857   6.537   9.218 -0.0854  0.6703 -0.2987
   28CHL1   H2A 2046   5.817   6.634   9.252 -1.1079 -0.4641  1.7767
   28CHL1   H2B 2047   5.964   6.536   9.249 -0.8060  0.6595  2.2819
   28CHL1   C20 2048   6.053   6.259   8.337 -0.2291  0.4732  0.3020
   28CHL1   H20 2049   6.142   6.209   8.381  0.6488  0.4740 -1.4324
   28CHL1   C21 2050   6.085   6.406   8.312  1.1979 -0.3195 -0.3991
   28CHL1  H21A 2051   6.151   6.449   8.391  1.1784  0.1909 -0.6615
   28CHL1  H21B 2052   5.996   6.471   8.306  0.9555 -0.4339  1.5824
   28CHL1  H21C 2053   6.140   6.416   8.216  2.9554 -1.4190  0.4595
   28CHL1   C22 2054   6.024   6.200   8.195 -0.1808  0.1689  0.6489
   28CHL1  H22A 2055   6.120   6.215   8.142 -0.1412 -0.9624  0.3956
   28CHL1  H22B 2056   6.004   6.091   8.193 -0.9458  0.3247 -0.4036
   28CHL1   C23 2057   5.911   6.265   8.114  0.0266  0.7207 -0.2693
   28CHL1  H23A 2058   5.823   6.262   8.182  0.1920 -0.0811 -0.0929
   28CHL1  H23B 2059   5.933   6.374   8.105 -0.1761  1.0886  3.0323
   28CHL1   C24 2060   5.886   6.195   7.976  0.2028  0.0238 -0.2021
   28CHL1  H24A 2061   5.978   6.175   7.917 -0.5773 -2.1894 -0.7278
   28CHL1  H24B 2062   5.829   6.101   7.990 -0.7297  0.1403 -2.8828
   28CHL1   C25 2063   5.793   6.285   7.895 -0.2363 -0.5427  0.8102
   28CHL1   H25 2064   5.713   6.334   7.955 -1.4726 -0.6726 -0.6890
   28CHL1   C26 2065   5.872   6.394   7.826 -0.3074 -0.8523 -0.3844
   28CHL1  H26A 2066   5.796   6.467   7.790 -1.4470 -1.2948  1.0554
   28CHL1  H26B 2067   5.960   6.431   7.883 -1.2872  0.3249  0.3939
   28CHL1  H26C 2068   5.904   6.344   7.732  4.1131 -1.4503  1.3315
   28CHL1   C27 2069   5.721   6.209   7.788 -0.5516  0.4260 -0.1884
   28CHL1  H27A 2070   5.651   6.132   7.828 -0.9799 -0.0613 -1.8181
   28CHL1  H27B 2071   5.673   6.276   7.713 -2.0988 -0.4047  0.0339
   28CHL1  H27C 2072   5.793   6.138   7.741 -2.0677 -1.0527 -0.3359
   29CHL1    C3 2073   4.163   5.297   6.098 -0.4736  0.0942 -0.0522
   29CHL1    H3 2074   4.097   5.386   6.102 -0.3122  0.2383 -0.6047
   29CHL1    O3 2075   4.233   5.300   5.978 -0.7170  0.2119  0.3866
   29CHL1   H3' 2076   4.261   5.208   5.978  0.1694  0.4829 -0.2218
   29CHL1    C4 2077   4.269   5.305   6.217 -0.2059  0.5869 -0.4364
   29CHL1   H4A 2078   4.345   5.227   6.197 -0.1233  0.7428 -0.7216
   29CHL1   H4B 2079   4.338   5.392   6.208 -1.7600  2.0167  0.8122
   29CHL1    C5 2080   4.194   5.298   6.349  0.1668  0.5159  0.1594
   29CHL1    C6 2081   4.195   5.401   6.431 -0.3039 -0.0994  0.0796
   29CHL1    H6 2082   4.256   5.490   6.406  0.6646 -0.7910 -0.0217
   29CHL1    C7 2083   4.120   5.408   6.560  0.2362 -0.0895  0.5672
   29CHL1   H7A 2084   4.185   5.439   6.645  0.5170 -0.6174  0.5490
   29CHL1   H7B 2085   4.038   5.482   6.551  0.8560  0.7647  1.7859
   29CHL1    C8 2086   4.060   5.262   6.611 -0.5816 -0.4669  0.2035
   29CHL1    H8 2087   4.146   5.204   6.651  1.3878  0.8455 -1.9930
   29CHL1   C14 2088   3.946   5.266   6.712  0.7687  0.1226 -0.4574
   29CHL1   H14 2089   3.857   5.313   6.665  0.0851  1.4920  2.0999
   29CHL1   C15 2090   3.964   5.357   6.842 -0.6096 -0.0287  0.4188
   29CHL1  H15A 2091   4.071   5.343   6.868 -1.3799 -2.6133  2.3660
   29CHL1  H15B 2092   3.953   5.466   6.819  2.4938  0.0701 -0.9198
   29CHL1   C16 2093   3.863   5.315   6.946 -0.2529  0.4054 -0.1797
   29CHL1  H16A 2094   3.917   5.288   7.039 -1.3116 -0.9260  0.0656
   29CHL1  H16B 2095   3.790   5.397   6.961 -0.0793  0.8929 -1.9160
   29CHL1   C17 2096   3.800   5.187   6.889  0.4493 -0.8185  0.2919
   29CHL1   H17 2097   3.704   5.217   6.840  0.3044 -1.1950  0.3476
   29CHL1   C13 2098   3.899   5.138   6.773  0.4770 -0.2850 -0.2755
   29CHL1   C18 2099   4.017   5.055   6.838 -0.2585  0.0373  0.9085
   29CHL1  H18A 2100   4.104   5.032   6.774  0.1349 -2.2372  2.2062
   29CHL1  H18B 2101   4.055   5.110   6.926  0.9241  1.0860 -0.2505
   29CHL1  H18C 2102   3.983   4.959   6.883  0.5695  0.0721  1.6138
   29CHL1   C12 2103   3.835   5.074   6.641 -0.4728 -0.1473  0.1777
   29CHL1  H12A 2104   3.789   4.976   6.667  0.3311 -0.2250  1.3463
   29CHL1  H12B 2105   3.752   5.138   6.602 -1.7587 -2.0968 -0.3698
   29CHL1   C11 2106   3.941   5.061   6.531  0.1530 -0.0224 -0.0331
   29CHL1  H11A 2107   4.023   4.999   6.574  0.1812  0.6650  0.9247
   29CHL1  H11B 2108   3.893   5.000   6.452 -1.3654  0.4067  0.5324
   29CHL1    C9 2109   4.010   5.187   6.483 -0.1442 -0.4262 -0.5085
   29CHL1    H9 2110   3.932   5.254   6.440  1.1198  0.1929 -1.8532
   29CHL1   C10 2111   4.110   5.172   6.369  0.2575  0.0056  0.8831
   29CHL1   C19 2112   4.204   5.054   6.393  0.5433 -0.7514  0.1368
   29CHL1  H19A 2113   4.272   5.074   6.478 -0.6636 -0.4067  1.0453
   29CHL1  H19B 2114   4.145   4.962   6.412 -1.6406  0.6561  0.4279
   29CHL1  H19C 2115   4.272   5.035   6.307 -0.9138 -0.4131 -1.1175
   29CHL1    C1 2116   4.013   5.143   6.238 -0.5254  0.2024  0.3692
   29CHL1   H1A 2117   3.984   5.036   6.251  3.2848 -1.3332 -2.7842
   29CHL1   H1B 2118   3.921   5.204   6.237 -0.5063  0.2744 -3.2267
   29CHL1    C2 2119   4.078   5.169   6.102 -0.6310  0.3070  0.4593
   29CHL1   H2A 2120   3.999   5.171   6.025 -0.7477  1.1737  0.5987
   29CHL1   H2B 2121   4.132   5.080   6.064  0.3241  0.7414  0.7569
   29CHL1   C20 2122   3.750   5.085   6.984  1.4034  0.1369 -0.3276
   29CHL1   H20 2123   3.837   5.036   7.033  1.5507  2.0186  1.3608
   29CHL1   C21 2124   3.656   4.985   6.914  0.5495 -0.0155  0.0952
   29CHL1  H21A 2125   3.703   4.908   6.850  0.6835  0.4761 -0.4117
   29CHL1  H21B 2126   3.584   5.036   6.846 -0.3456 -0.9232  0.3645
   29CHL1  H21C 2127   3.598   4.935   6.994  0.1250  0.7616  0.2872
   29CHL1   C22 2128   3.667   5.147   7.100 -0.2528 -0.3395  0.5014
   29CHL1  H22A 2129   3.736   5.222   7.144  1.6667 -1.4965 -0.5024
   29CHL1  H22B 2130   3.579   5.202   7.057 -0.1931  1.3062  2.4129
   29CHL1   C23 2131   3.632   5.054   7.217 -0.2841  0.3757  0.4945
   29CHL1  H23A 2132   3.551   4.980   7.205 -0.3525  0.1627  2.0956
   29CHL1  H23B 2133   3.731   5.004   7.221  0.8217  2.3623 -1.0130
   29CHL1   C24 2134   3.593   5.128   7.339 -0.0205  0.4166 -0.1944
   29CHL1  H24A 2135   3.668   5.209   7.348  0.8979 -0.1854 -2.0885
   29CHL1  H24B 2136   3.488   5.163   7.337  0.2215  1.1243 -1.0828
   29CHL1   C25 2137   3.617   5.037   7.465  0.1406  0.5102  0.3370
   29CHL1   H25 2138   3.717   4.989   7.461 -1.2672 -2.5537  0.5766
   29CHL1   C26 2139   3.614   5.130   7.585  0.2291 -0.6865  0.6894
   29CHL1  H26A 2140   3.613   5.062   7.673  1.7300 -1.5441  0.0515
   29CHL1  H26B 2141   3.696   5.204   7.592 -1.0572  0.7947  0.3773
   29CHL1  H26C 2142   3.523   5.194   7.585  1.7830  1.6301  2.2472
   29CHL1   C27 2143   3.516   4.917   7.484 -0.5386  0.4855  0.8020
   29CHL1  H27A 2144   3.528   4.853   7.394  1.1029  0.1403  1.2387
   29CHL1  H27B 2145   3.561   4.871   7.574 -1.6788  0.3603  1.3034
   29CHL1  H27C 2146   3.416   4.960   7.504 -1.3945 -0.1051 -2.0430
   30CHL1    C3 2147   2.164   1.963   5.973 -0.4156 -0.3737 -0.1890
   30CHL1    H3 2148   2.256   2.025   5.975 -0.1036 -0.8277 -0.4062
   30CHL1    O3 2149   2.132   1.918   5.846 -0.0703 -0.1976  0.1983
   30CHL1   H3' 2150   2.062   1.853   5.852  0.2440 -0.4405  1.4822
   30CHL1    C4 2151   2.173   1.832   6.064 -0.0365 -0.0111 -0.1365
   30CHL1   H4A 2152   2.074   1.782   6.065  0.2862 -0.7115 -1.7734
   30CHL1   H4B 2153   2.249   1.768   6.015  0.6446  2.2063 -2.0471
   30CHL1    C5 2154   2.207   1.872   6.203  0.3775 -0.0598 -1.0999
   30CHL1    C6 2155   2.330   1.830   6.252  0.3799 -0.3141 -0.1395
   30CHL1    H6 2156   2.395   1.771   6.186  0.1067 -2.3641  1.3724
   30CHL1    C7 2157   2.373   1.871   6.382  0.3456  0.1232  0.0991
   30CHL1   H7A 2158   2.424   1.788   6.436  1.7203  1.1922  0.4788
   30CHL1   H7B 2159   2.455   1.946   6.378  1.5040 -1.1614 -0.9179
   30CHL1    C8 2160   2.260   1.925   6.477  0.2435 -0.1202  0.3734
   30CHL1    H8 2161   2.200   1.843   6.522 -1.1165  0.2201 -0.7633
   30CHL1   C14 2162   2.321   2.006   6.593 -0.5219 -0.6508  0.2656
   30CHL1   H14 2163   2.382   2.089   6.551 -1.0259  0.2136  1.2313
   30CHL1   C15 2164   2.426   1.935   6.675  0.4728  0.5439 -0.3524
   30CHL1  H15A 2165   2.384   1.835   6.698 -2.9688  2.6114  2.9908
   30CHL1  H15B 2166   2.523   1.926   6.622  0.4035 -0.2982 -0.3315
   30CHL1   C16 2167   2.436   2.010   6.815 -0.1171 -0.0721  0.1285
   30CHL1  H16A 2168   2.428   1.941   6.901  1.0775 -0.1287  0.2007
   30CHL1  H16B 2169   2.533   2.062   6.825 -0.1946  0.1171 -0.0708
   30CHL1   C17 2170   2.322   2.120   6.801 -0.1274  0.0598  0.5925
   30CHL1   H17 2171   2.374   2.210   6.762  0.4002 -0.3062  0.4387
   30CHL1   C13 2172   2.226   2.065   6.696 -0.5001  0.1657  0.0050
   30CHL1   C18 2173   2.148   1.947   6.762 -0.3728 -0.1102 -0.3780
   30CHL1  H18A 2174   2.088   1.988   6.846 -0.2197 -0.3797 -0.1365
   30CHL1  H18B 2175   2.074   1.898   6.694 -1.3798 -0.5078  0.9833
   30CHL1  H18C 2176   2.217   1.870   6.803 -2.3492 -0.1332  3.0794
   30CHL1   C12 2177   2.145   2.167   6.621 -0.3223 -0.1112 -0.1121
   30CHL1  H12A 2178   2.067   2.207   6.689 -1.6835 -0.5507 -1.3851
   30CHL1  H12B 2179   2.220   2.247   6.605 -1.8472  1.9950  2.9023
   30CHL1   C11 2180   2.076   2.116   6.488 -0.3876  0.1600  0.2442
   30CHL1  H11A 2181   1.994   2.048   6.521 -0.7462  0.8635  0.8079
   30CHL1  H11B 2182   2.036   2.202   6.431 -0.8076 -0.6245 -0.6707
   30CHL1    C9 2183   2.172   2.027   6.398 -0.2968  0.4664  0.3492
   30CHL1    H9 2184   2.251   2.096   6.363  0.0241  0.2322  0.6046
   30CHL1   C10 2185   2.105   1.966   6.267 -0.4346 -0.6229  0.5020
   30CHL1   C19 2186   1.975   1.895   6.310  0.4448 -0.8673 -0.2946
   30CHL1  H19A 2187   1.933   1.848   6.218  0.4490  5.8504 -4.0880
   30CHL1  H19B 2188   2.008   1.825   6.390  1.4662 -0.5113 -0.3953
   30CHL1  H19C 2189   1.903   1.962   6.362  0.6759 -1.0937  0.3199
   30CHL1    C1 2190   2.074   2.091   6.169  0.8211  0.1173 -0.2844
   30CHL1   H1A 2191   1.976   2.133   6.203 -0.7191 -3.6733  0.1980
   30CHL1   H1B 2192   2.156   2.165   6.178 -1.9225  3.1981  0.7477
   30CHL1    C2 2193   2.045   2.051   6.022 -0.3210  0.2193  0.6987
   30CHL1   H2A 2194   2.044   2.141   5.957 -1.4166 -0.1164  0.2343
   30CHL1   H2B 2195   1.948   1.997   6.010 -1.2723  2.0807 -0.1576
   30CHL1   C20 2196   2.267   2.164   6.935 -0.0118 -0.1720 -0.5592
   30CHL1   H20 2197   2.214   2.080   6.985  0.6953  0.1732  0.7867
   30CHL1   C21 2198   2.169   2.280   6.918  0.0729 -0.6403  0.2724
   30CHL1  H21A 2199   2.067   2.243   6.893 -0.4792  1.9198 -1.4831
   30CHL1  H21B 2200   2.196   2.358   6.843  0.3329 -1.4455 -0.4715
   30CHL1  H21C 2201   2.164   2.335   7.014  0.4841 -0.3201  0.1148
   30CHL1   C22 2202   2.387   2.192   7.033 -0.3178 -0.1870 -0.0928
   30CHL1  H22A 2203   2.464   2.112   7.036  2.5511  2.3817 -1.5955
   30CHL1  H22B 2204   2.441   2.277   6.986 -2.0261  0.9837  0.0174
   30CHL1   C23 2205   2.353   2.258   7.170  0.0615  0.1422  0.0520
   30CHL1  H23A 2206   2.328   2.363   7.142 -1.7895 -0.1037  0.7301
   30CHL1  H23B 2207   2.268   2.197   7.207  0.8591 -2.8485 -2.8506
   30CHL1   C24 2208   2.477   2.270   7.268 -0.1738  0.7351 -0.1825
   30CHL1  H24A 2209   2.521   2.169   7.282  0.5624  1.1131  0.2726
   30CHL1  H24B 2210   2.551   2.330   7.212  1.4162 -0.3322  0.7388
   30CHL1   C25 2211   2.450   2.335   7.398 -0.7233 -0.0698  0.3871
   30CHL1   H25 2212   2.428   2.442   7.377 -1.6901 -0.3962 -0.2899
   30CHL1   C26 2213   2.334   2.275   7.475 -0.2202  0.4823  0.0316
   30CHL1  H26A 2214   2.236   2.281   7.424 -0.1564  0.9580 -0.0413
   30CHL1  H26B 2215   2.350   2.166   7.483  1.3582  0.5270 -1.9546
   30CHL1  H26C 2216   2.324   2.323   7.575  0.8665  1.8019 -0.4681
   30CHL1   C27 2217   2.574   2.331   7.493 -1.3230 -0.8745 -0.9050
   30CHL1  H27A 2218   2.547   2.387   7.586  2.0046 -0.1643 -0.2909
   30CHL1  H27B 2219   2.609   2.230   7.522 -2.3857 -1.7158 -2.5085
   30CHL1  H27C 2220   2.660   2.389   7.453  0.2826 -1.3440  1.6737
   31CHL1    C3 2221   2.625   4.665   5.973  0.5420  0.5591  0.3006
   31CHL1    H3 2222   2.628   4.559   5.942  0.7496  0.3068  1.1656
   31CHL1    O3 2223   2.624   4.745   5.857 -0.2136 -0.1495 -0.3762
   31CHL1   H3' 2224   2.583   4.828   5.883 -0.5600 -0.2887 -0.4684
   31CHL1    C4 2225   2.495   4.662   6.058 -0.0017  0.0821 -0.9693
   31CHL1   H4A 2226   2.471   4.770   6.074 -0.7272 -0.2674  0.3369
   31CHL1   H4B 2227   2.408   4.627   5.999 -0.0010  0.7673 -1.3829
   31CHL1    C5 2228   2.504   4.587   6.189 -0.4006 -0.2871 -0.2538
   31CHL1    C6 2229   2.410   4.503   6.231 -0.1054 -0.1936  0.9340
   31CHL1    H6 2230   2.328   4.480   6.162  2.4940  0.3873 -2.5062
   31CHL1    C7 2231   2.395   4.441   6.367  0.3322 -0.1226  0.1251
   31CHL1   H7A 2232   2.295   4.467   6.408 -0.7604 -2.7277 -0.7662
   31CHL1   H7B 2233   2.400   4.330   6.375 -1.5193 -0.3323 -1.2961
   31CHL1    C8 2234   2.503   4.503   6.461 -0.9391 -0.1683 -0.2989
   31CHL1    H8 2235   2.460   4.604   6.476 -0.2070 -0.0434  1.1049
   31CHL1   C14 2236   2.518   4.423   6.581  0.4380 -0.3634 -0.3597
   31CHL1   H14 2237   2.564   4.326   6.553  0.3856 -0.3306 -0.5555
   31CHL1   C15 2238   2.396   4.382   6.657 -0.2206 -0.2535  0.5698
   31CHL1  H15A 2239   2.329   4.470   6.655 -0.8602 -0.7469  0.0654
   31CHL1  H15B 2240   2.342   4.302   6.601  0.2730  0.5020 -1.0103
   31CHL1   C16 2241   2.446   4.341   6.797 -0.4021 -0.3534  0.7927
   31CHL1  H16A 2242   2.390   4.393   6.877 -0.2524  0.5954  0.2920
   31CHL1  H16B 2243   2.434   4.230   6.799 -2.4385 -0.1537  1.1208
   31CHL1   C17 2244   2.601   4.385   6.806  0.2623  0.4289 -0.4635
   31CHL1   H17 2245   2.666   4.298   6.783  0.3513  0.9025 -2.0045
   31CHL1   C13 2246   2.618   4.490   6.689 -0.1467 -1.0239 -0.2627
   31CHL1   C18 2247   2.549   4.626   6.734 -0.7191  0.4125 -0.3717
   31CHL1  H18A 2248   2.512   4.693   6.654  1.5431  1.9947 -0.1324
   31CHL1  H18B 2249   2.457   4.606   6.794 -1.5945 -0.4437 -1.9534
   31CHL1  H18C 2250   2.625   4.684   6.790 -0.3604 -0.9642  0.5945
   31CHL1   C12 2251   2.754   4.504   6.627  0.2269 -0.3851  1.0816
   31CHL1  H12A 2252   2.823   4.563   6.691 -0.6972  1.3787  0.4828
   31CHL1  H12B 2253   2.803   4.405   6.621 -0.9924 -0.9434 -0.0715
   31CHL1   C11 2254   2.746   4.585   6.496  0.1020  0.5532  0.3733
   31CHL1  H11A 2255   2.724   4.691   6.520 -0.4260  1.1765 -2.6555
   31CHL1  H11B 2256   2.847   4.573   6.451  0.3990 -0.3300  1.2637
   31CHL1    C9 2257   2.640   4.535   6.394  0.1655  0.1799  0.1843
   31CHL1    H9 2258   2.669   4.434   6.360 -1.8411  0.5643 -2.9392
   31CHL1   C10 2259   2.624   4.625   6.268  0.2005  0.2528 -0.2900
   31CHL1   C19 2260   2.601   4.770   6.320 -0.4951  0.2029 -0.1649
   31CHL1  H19A 2261   2.687   4.820   6.369 -0.7581 -0.7823  1.3094
   31CHL1  H19B 2262   2.575   4.839   6.237  0.7855  0.7177 -0.1563
   31CHL1  H19C 2263   2.515   4.785   6.388  0.8239 -0.7606  1.7646
   31CHL1    C1 2264   2.752   4.621   6.184  1.2775  0.1113  0.0159
   31CHL1   H1A 2265   2.828   4.664   6.253 -0.0667  0.9654  1.0058
   31CHL1   H1B 2266   2.779   4.518   6.155 -0.9523 -0.9714  1.6044
   31CHL1    C2 2267   2.742   4.707   6.057  0.0856  0.3892  0.4914
   31CHL1   H2A 2268   2.833   4.692   5.995  0.5302 -2.9338  1.7906
   31CHL1   H2B 2269   2.744   4.816   6.079 -0.7569 -0.1304  3.3729
   31CHL1   C20 2270   2.638   4.421   6.945  0.2852 -0.5131  0.4097
   31CHL1   H20 2271   2.564   4.499   6.974 -1.5079 -1.5272 -1.3413
   31CHL1   C21 2272   2.778   4.482   6.951  0.5799 -0.2017 -0.7240
   31CHL1  H21A 2273   2.797   4.566   6.881  0.5722  1.3274  1.0883
   31CHL1  H21B 2274   2.841   4.398   6.912 -1.1003 -0.1408 -3.7272
   31CHL1  H21C 2275   2.811   4.506   7.054  4.1470  0.5880 -1.9638
   31CHL1   C22 2276   2.618   4.313   7.052 -0.0540 -0.4093  0.3309
   31CHL1  H22A 2277   2.522   4.262   7.031 -1.6061  2.3485  0.5259
   31CHL1  H22B 2278   2.701   4.240   7.041  0.2322 -0.2109  1.1118
   31CHL1   C23 2279   2.638   4.341   7.204 -0.2247 -0.8983 -0.1167
   31CHL1  H23A 2280   2.601   4.257   7.267 -3.7053 -0.3015 -1.2376
   31CHL1  H23B 2281   2.747   4.355   7.223 -0.5254  0.7418  0.4299
   31CHL1   C24 2282   2.560   4.462   7.255  0.7359 -0.2973 -0.3575
   31CHL1  H24A 2283   2.592   4.484   7.359 -2.0740  1.6010  0.1469
   31CHL1  H24B 2284   2.585   4.549   7.191  1.5358  1.2978  2.0895
   31CHL1   C25 2285   2.409   4.435   7.260 -0.7370 -0.3009 -0.8321
   31CHL1   H25 2286   2.375   4.375   7.174  0.4707  1.7044 -2.7559
   31CHL1   C26 2287   2.367   4.378   7.396 -0.1992  0.5488  0.3576
   31CHL1  H26A 2288   2.265   4.334   7.402  0.1892 -0.2148  1.5667
   31CHL1  H26B 2289   2.437   4.298   7.429 -1.6039 -0.2262  1.5185
   31CHL1  H26C 2290   2.375   4.457   7.474  2.0161  0.5065  0.2031
   31CHL1   C27 2291   2.334   4.561   7.225  0.2721 -0.2225 -0.0638
   31CHL1  H27A 2292   2.326   4.589   7.118 -2.7756  2.4669  0.7751
   31CHL1  H27B 2293   2.384   4.645   7.278 -0.3110  0.1226 -0.0562
   31CHL1  H27C 2294   2.229   4.550   7.262  0.2445 -1.6982 -0.5419
   32CHL1    C3 2295   2.383   3.294   6.159  0.2583  0.1892  0.8329
   32CHL1    H3 2296   2.478   3.237   6.165  0.7020  1.1017  2.7842
   32CHL1    O3 2297   2.335   3.303   6.028 -0.3083  0.3742  0.8062
   32CHL1   H3' 2298   2.412   3.303   5.971 -0.0871 -1.1141  1.0618
   32CHL1    C4 2299   2.280   3.227   6.244  0.4632 -0.3782 -0.1778
   32CHL1   H4A 2300   2.181   3.273   6.220  0.0410  1.0566  3.9139
   32CHL1   H4B 2301   2.269   3.120   6.215  0.3385 -0.1749 -0.8863
   32CHL1    C5 2302   2.307   3.235   6.393  1.3544 -0.2135  0.0934
   32CHL1    C6 2303   2.296   3.125   6.475 -0.5576 -0.3045  0.0750
   32CHL1    H6 2304   2.252   3.031   6.440 -1.0111 -0.2191  0.4063
   32CHL1    C7 2305   2.331   3.132   6.624 -0.3463  0.6766 -0.5171
   32CHL1   H7A 2306   2.258   3.066   6.676 -0.8458  1.3936 -0.3002
   32CHL1   H7B 2307   2.432   3.094   6.649  0.1444  1.2589 -1.5982
   32CHL1    C8 2308   2.320   3.271   6.673 -0.1648  0.6009 -0.8452
   32CHL1    H8 2309   2.213   3.296   6.685 -0.1548  0.1215  0.2936
   32CHL1   C14 2310   2.377   3.275   6.814 -0.3352  0.0133  0.7076
   32CHL1   H14 2311   2.483   3.241   6.809 -0.6184 -0.7866 -0.0244
   32CHL1   C15 2312   2.316   3.181   6.913  0.2130 -0.2336  0.3217
   32CHL1  H15A 2313   2.205   3.186   6.905  0.0588 -0.9058  1.8024
   32CHL1  H15B 2314   2.349   3.075   6.905  1.3077  0.0962  0.4216
   32CHL1   C16 2315   2.355   3.245   7.047  0.5995  0.3180  0.4810
   32CHL1  H16A 2316   2.265   3.272   7.106  0.0236  2.2642 -1.2100
   32CHL1  H16B 2317   2.417   3.174   7.106 -0.7123 -1.8007 -0.6272
   32CHL1   C17 2318   2.430   3.375   7.015 -0.0186 -0.2130  0.0173
   32CHL1   H17 2319   2.536   3.346   7.003  0.6856  1.9899  0.7398
   32CHL1   C13 2320   2.383   3.417   6.875  1.1144 -0.4291  0.3033
   32CHL1   C18 2321   2.249   3.487   6.880 -0.6685  1.2821 -0.0623
   32CHL1  H18A 2322   2.272   3.594   6.899 -2.0928  1.8132 -1.2604
   32CHL1  H18B 2323   2.208   3.483   6.777  0.3863  0.2509 -0.4502
   32CHL1  H18C 2324   2.178   3.442   6.952 -0.4340  0.9441 -0.0426
   32CHL1   C12 2325   2.485   3.497   6.799  0.4726 -0.0562  0.3479
   32CHL1  H12A 2326   2.504   3.596   6.845  0.3822 -0.0610  0.3960
   32CHL1  H12B 2327   2.583   3.446   6.811  0.1912 -1.0613 -1.5289
   32CHL1   C11 2328   2.443   3.504   6.652 -0.0926  0.6265  0.1478
   32CHL1  H11A 2329   2.358   3.574   6.658  0.2001  0.9128  1.1488
   32CHL1  H11B 2330   2.524   3.551   6.593 -0.4568  0.2513 -0.6580
   32CHL1    C9 2331   2.403   3.364   6.584 -0.1435  0.7891  0.3434
   32CHL1    H9 2332   2.503   3.316   6.573 -0.0864  0.7057  1.2191
   32CHL1   C10 2333   2.349   3.376   6.444  0.6657 -0.2367  0.1647
   32CHL1   C19 2334   2.217   3.460   6.461 -0.2542  0.7783 -0.3865
   32CHL1  H19A 2335   2.151   3.449   6.372 -0.6395 -3.8634  0.3367
   32CHL1  H19B 2336   2.160   3.430   6.552 -1.4863  1.1131 -1.0319
   32CHL1  H19C 2337   2.232   3.570   6.456 -1.1616  0.9500  0.4384
   32CHL1    C1 2338   2.450   3.449   6.350  0.3512 -0.5425 -0.2454
   32CHL1   H1A 2339   2.463   3.556   6.376 -3.0827  0.0875 -0.8843
   32CHL1   H1B 2340   2.544   3.389   6.351  1.0338  0.4206 -2.3677
   32CHL1    C2 2341   2.412   3.443   6.206  0.0027  0.0098 -0.1000
   32CHL1   H2A 2342   2.486   3.486   6.137  1.2503 -1.4794  0.2893
   32CHL1   H2B 2343   2.317   3.498   6.188  1.0062  1.0572 -2.3448
   32CHL1   C20 2344   2.426   3.485   7.130 -0.0651 -0.7902 -0.3277
   32CHL1   H20 2345   2.478   3.576   7.093 -1.4323 -0.0828 -0.5240
   32CHL1   C21 2346   2.513   3.419   7.238  0.3137  0.3214 -0.0914
   32CHL1  H21A 2347   2.517   3.497   7.317 -3.0033  1.1079 -0.5778
   32CHL1  H21B 2348   2.612   3.395   7.194  0.4924 -1.1717  1.0819
   32CHL1  H21C 2349   2.465   3.327   7.279  1.5095  0.3508  1.3765
   32CHL1   C22 2350   2.289   3.534   7.191  0.0158 -0.1146  0.3520
   32CHL1  H22A 2351   2.207   3.476   7.143 -0.0465  0.1913  0.0921
   32CHL1  H22B 2352   2.293   3.497   7.296  0.7088 -0.7097  0.1227
   32CHL1   C23 2353   2.233   3.674   7.176 -0.2274 -0.0597 -0.1884
   32CHL1  H23A 2354   2.247   3.694   7.067  0.2433 -0.6626 -0.2441
   32CHL1  H23B 2355   2.123   3.660   7.179 -0.3012  0.5375 -0.0062
   32CHL1   C24 2356   2.280   3.789   7.270  0.1779 -0.0033 -0.2847
   32CHL1  H24A 2357   2.282   3.755   7.376 -2.4889  1.0848  0.1410
   32CHL1  H24B 2358   2.380   3.825   7.238  0.5454 -1.4408 -0.8092
   32CHL1   C25 2359   2.179   3.902   7.291  0.2866 -0.2269 -0.2475
   32CHL1   H25 2360   2.083   3.847   7.300 -0.2592  0.7512  0.0610
   32CHL1   C26 2361   2.200   3.997   7.413 -0.8620  0.3914 -0.0638
   32CHL1  H26A 2362   2.111   4.054   7.446 -0.1539  1.7448 -0.4424
   32CHL1  H26B 2363   2.224   3.932   7.500 -0.7609  2.1603  1.2364
   32CHL1  H26C 2364   2.286   4.064   7.389 -1.4167  1.5428  1.1307
   32CHL1   C27 2365   2.163   3.969   7.155 -0.1173 -0.5411 -0.2531
   32CHL1  H27A 2366   2.062   4.015   7.160 -0.3195 -0.6769 -2.5677
   32CHL1  H27B 2367   2.233   4.053   7.142  0.4742 -1.0895 -0.6463
   32CHL1  H27C 2368   2.151   3.901   7.067 -0.6163 -0.0067 -0.6050
   33CHL1    C3 2369   5.032   3.316   6.104  0.8756 -0.3872  0.3209
   33CHL1    H3 2370   5.005   3.419   6.134 -1.3678 -0.8861  0.1465
   33CHL1    O3 2371   5.044   3.314   5.964  0.0908  0.3726  0.3211
   33CHL1   H3' 2372   5.078   3.227   5.943 -0.2232  0.7822 -1.9946
   33CHL1    C4 2373   5.169   3.282   6.166 -0.0199  0.2623 -0.3966
   33CHL1   H4A 2374   5.213   3.183   6.143  0.4132  0.6422 -1.2004
   33CHL1   H4B 2375   5.237   3.360   6.126  1.4291 -0.9729 -0.3748
   33CHL1    C5 2376   5.159   3.300   6.319  0.2687 -0.1308  0.0518
   33CHL1    C6 2377   5.232   3.391   6.385  0.8044  0.3460 -0.7806
   33CHL1    H6 2378   5.313   3.449   6.338  0.7632 -0.5007 -1.9291
   33CHL1    C7 2379   5.223   3.406   6.529  0.1492  0.4928  0.0049
   33CHL1   H7A 2380   5.326   3.404   6.570 -0.1462 -1.8426  0.6611
   33CHL1   H7B 2381   5.180   3.507   6.549 -0.0733  0.8769 -2.2055
   33CHL1    C8 2382   5.149   3.288   6.601 -0.3790 -0.1994  0.5272
   33CHL1    H8 2383   5.219   3.202   6.592  1.7461  1.1560  3.3885
   33CHL1   C14 2384   5.118   3.320   6.744  0.2079  0.7365  0.6482
   33CHL1   H14 2385   5.044   3.402   6.757 -0.8149 -0.2070  0.9128
   33CHL1   C15 2386   5.245   3.362   6.828  0.6644  0.6413  0.4204
   33CHL1  H15A 2387   5.330   3.310   6.779  1.1502  1.4096  0.4370
   33CHL1  H15B 2388   5.256   3.473   6.829 -0.5093  0.8111 -2.1303
   33CHL1   C16 2389   5.222   3.313   6.972 -0.6323  0.2252  0.1920
   33CHL1  H16A 2390   5.303   3.240   6.996 -0.2471  0.7289  0.4423
   33CHL1  H16B 2391   5.229   3.398   7.043 -1.3208  0.2045  0.2873
   33CHL1   C17 2392   5.075   3.251   6.972  0.0172  0.0976 -0.5953
   33CHL1   H17 2393   4.998   3.330   6.983 -0.9146 -1.1050  1.7923
   33CHL1   C13 2394   5.062   3.199   6.828 -0.6147 -0.2573  0.3719
   33CHL1   C18 2395   5.152   3.071   6.821  0.0033 -0.6152  0.0486
   33CHL1  H18A 2396   5.246   3.083   6.878 -1.3660  2.9557  1.7472
   33CHL1  H18B 2397   5.104   2.984   6.871  1.6381 -1.8223 -0.4585
   33CHL1  H18C 2398   5.186   3.043   6.719 -1.1730  1.4326 -0.9447
   33CHL1   C12 2399   4.921   3.183   6.762 -1.0670 -0.2058 -0.4959
   33CHL1  H12A 2400   4.876   3.090   6.802 -3.6867  0.6566 -1.3293
   33CHL1  H12B 2401   4.859   3.272   6.787  0.7083  0.9777 -0.1402
   33CHL1   C11 2402   4.929   3.158   6.616  0.2395 -0.3063  0.1143
   33CHL1  H11A 2403   4.964   3.054   6.601 -0.0833 -1.1515  4.4083
   33CHL1  H11B 2404   4.830   3.171   6.568  1.3040  4.0870 -1.0866
   33CHL1    C9 2405   5.022   3.256   6.531  0.0057 -0.5513  0.0209
   33CHL1    H9 2406   4.974   3.356   6.529  0.7854 -0.1806 -2.7904
   33CHL1   C10 2407   5.042   3.213   6.387 -0.2042  0.0126  0.9092
   33CHL1   C19 2408   5.073   3.065   6.378 -0.0989 -0.2615 -0.2576
   33CHL1  H19A 2409   5.166   3.028   6.428 -0.2967  0.5178  0.7000
   33CHL1  H19B 2410   4.993   2.994   6.407  0.7274 -1.2889 -0.4566
   33CHL1  H19C 2411   5.078   3.045   6.269 -0.0450 -0.0897 -0.2876
   33CHL1    C1 2412   4.910   3.235   6.308 -0.0276  0.1588 -0.4709
   33CHL1   H1A 2413   4.833   3.159   6.332 -0.1258  0.2830 -0.3953
   33CHL1   H1B 2414   4.870   3.334   6.337 -0.9819  0.0703 -1.4390
   33CHL1    C2 2415   4.925   3.228   6.155  0.3787 -0.1191 -0.5037
   33CHL1   H2A 2416   4.827   3.263   6.118  0.1244  1.5198  1.6288
   33CHL1   H2B 2417   4.929   3.123   6.118  0.7379 -0.9169  1.6796
   33CHL1   C20 2418   5.057   3.154   7.091  0.5568 -0.5129 -0.2452
   33CHL1   H20 2419   5.129   3.070   7.075 -0.6061 -1.0333 -3.0298
   33CHL1   C21 2420   4.910   3.104   7.082  0.0710 -0.0319 -0.6767
   33CHL1  H21A 2421   4.886   3.047   7.174  2.7866 -0.8822 -0.4543
   33CHL1  H21B 2422   4.900   3.030   6.999 -0.8933 -1.1075  0.3778
   33CHL1  H21C 2423   4.843   3.192   7.076 -0.2554 -0.0872  1.6195
   33CHL1   C22 2424   5.079   3.226   7.231 -0.2288 -0.7084 -0.3164
   33CHL1  H22A 2425   5.160   3.301   7.231 -1.7844  1.0083  0.3662
   33CHL1  H22B 2426   4.984   3.276   7.260 -1.5274 -0.8695 -4.0914
   33CHL1   C23 2427   5.111   3.125   7.341  0.0291  0.1128 -0.6032
   33CHL1  H23A 2428   5.026   3.053   7.345  0.5938 -0.5288 -0.0650
   33CHL1  H23B 2429   5.203   3.070   7.313  0.4366 -0.8693  2.4480
   33CHL1   C24 2430   5.149   3.193   7.476  0.4823  0.0760  0.2571
   33CHL1  H24A 2431   5.217   3.278   7.456 -1.5798  2.2618  2.3504
   33CHL1  H24B 2432   5.069   3.251   7.525  0.7588 -0.1739  1.0067
   33CHL1   C25 2433   5.216   3.101   7.582  0.0924 -0.0208  0.1447
   33CHL1   H25 2434   5.156   3.007   7.583  0.9788 -0.6059 -0.1715
   33CHL1   C26 2435   5.365   3.063   7.538 -0.2375 -0.2530  0.3795
   33CHL1  H26A 2436   5.385   3.067   7.429 -0.2634  1.0457  0.4158
   33CHL1  H26B 2437   5.430   3.147   7.570  0.6096 -0.2036 -1.3999
   33CHL1  H26C 2438   5.390   2.969   7.593  1.0106  1.0350  2.0756
   33CHL1   C27 2439   5.220   3.177   7.713  0.5775  0.4614  0.7441
   33CHL1  H27A 2440   5.284   3.268   7.715 -0.0941  0.9871 -0.7748
   33CHL1  H27B 2441   5.114   3.201   7.737 -0.3024  1.2133 -3.4764
   33CHL1  H27C 2442   5.251   3.100   7.787  2.3928  1.0461  0.6140
   34CHL1    C3 2443   4.704   2.125   6.144  0.1420  0.5445 -0.2932
   34CHL1    H3 2444   4.669   2.231   6.145  0.3529  0.6146  0.0030
   34CHL1    O3 2445   4.711   2.099   6.003 -0.7901 -0.1167  0.1673
   34CHL1   H3' 2446   4.622   2.101   5.968 -0.8687  0.3577  0.3782
   34CHL1    C4 2447   4.846   2.107   6.211  0.1668  0.0053 -0.4058
   34CHL1   H4A 2448   4.881   2.004   6.189  0.3758 -0.2470  1.0803
   34CHL1   H4B 2449   4.908   2.180   6.155  1.5675  0.2256  1.3786
   34CHL1    C5 2450   4.836   2.144   6.362 -0.1373  0.4502  0.3056
   34CHL1    C6 2451   4.902   2.245   6.413  0.1944 -0.8004 -0.8191
   34CHL1    H6 2452   4.976   2.305   6.358 -0.3787  0.4477 -0.2437
   34CHL1    C7 2453   4.892   2.296   6.557  0.5504 -0.9352  0.1070
   34CHL1   H7A 2454   4.987   2.331   6.602  0.4052 -1.4898  0.8482
   34CHL1   H7B 2455   4.819   2.379   6.565  1.5779  0.1662 -1.6239
   34CHL1    C8 2456   4.826   2.175   6.640 -0.3774 -0.9650 -0.0308
   34CHL1    H8 2457   4.912   2.104   6.640 -0.2015 -0.7925 -2.6630
   34CHL1   C14 2458   4.785   2.229   6.773  1.0607 -0.1973  0.3245
   34CHL1   H14 2459   4.699   2.299   6.763  0.3820 -0.9546  0.7852
   34CHL1   C15 2460   4.895   2.307   6.851 -0.0736  0.2801  0.5776
   34CHL1  H15A 2461   4.997   2.265   6.841 -0.1408  0.6106 -1.8068
   34CHL1  H15B 2462   4.895   2.415   6.823  0.6693 -0.0861 -0.8555
   34CHL1   C16 2463   4.856   2.290   6.999 -0.0843  0.7322 -0.5067
   34CHL1  H16A 2464   4.942   2.228   7.034  0.2928  1.3172 -0.3958
   34CHL1  H16B 2465   4.848   2.384   7.057  0.6513 -0.4262  1.5472
   34CHL1   C17 2466   4.729   2.205   7.005 -0.5379  0.1506  0.0053
   34CHL1   H17 2467   4.641   2.271   6.990 -0.8674 -0.4546 -0.7355
   34CHL1   C13 2468   4.731   2.124   6.875  0.1538 -1.5553  0.0006
   34CHL1   C18 2469   4.837   2.005   6.890  0.3046 -0.2881 -0.3162
   34CHL1  H18A 2470   4.802   1.934   6.968 -2.7533  0.5570 -0.8641
   34CHL1  H18B 2471   4.856   1.952   6.795 -0.7733  0.8268 -1.1718
   34CHL1  H18C 2472   4.939   2.046   6.910  0.1339  0.0134 -0.0606
   34CHL1   C12 2473   4.597   2.071   6.809  0.1717  0.0283 -0.2257
   34CHL1  H12A 2474   4.552   1.983   6.859  0.4196  0.2210  0.3409
   34CHL1  H12B 2475   4.507   2.134   6.825 -1.2379 -2.3833  1.7269
   34CHL1   C11 2476   4.621   2.033   6.666  0.3667  0.6085 -0.5090
   34CHL1  H11A 2477   4.676   1.937   6.678  1.2271  1.2965  1.0784
   34CHL1  H11B 2478   4.528   1.990   6.621 -0.8523 -0.0750  2.5503
   34CHL1    C9 2479   4.697   2.128   6.576 -0.3524  0.6019  0.5850
   34CHL1    H9 2480   4.632   2.214   6.547  0.2597  0.8510 -0.0429
   34CHL1   C10 2481   4.728   2.064   6.439 -0.4955  0.2976 -0.1282
   34CHL1   C19 2482   4.778   1.920   6.455  0.7591  0.5014 -0.5565
   34CHL1  H19A 2483   4.820   1.878   6.361  1.3773 -3.0315  1.1891
   34CHL1  H19B 2484   4.858   1.913   6.531  0.0770 -2.2356 -0.0307
   34CHL1  H19C 2485   4.695   1.856   6.492  0.6554  1.3085  0.6499
   34CHL1    C1 2486   4.596   2.049   6.367 -0.0382  0.7319  0.4905
   34CHL1   H1A 2487   4.536   1.964   6.406 -0.1901  0.8498  0.5155
   34CHL1   H1B 2488   4.548   2.149   6.375  0.6968  1.3668 -2.4529
   34CHL1    C2 2489   4.609   2.029   6.214  0.0342 -0.3772  0.1257
   34CHL1   H2A 2490   4.513   2.011   6.161  0.1284 -0.2654 -0.0854
   34CHL1   H2B 2491   4.660   1.931   6.208  0.8672 -0.1142  2.2460
   34CHL1   C20 2492   4.708   2.138   7.139 -0.3931  0.0653 -1.0050
   34CHL1   H20 2493   4.792   2.066   7.153 -1.0580 -0.5713 -0.1943
   34CHL1   C21 2494   4.577   2.055   7.129  0.2842  0.0916 -0.4255
   34CHL1  H21A 2495   4.489   2.118   7.105  0.2872  0.1196 -0.3603
   34CHL1  H21B 2496   4.557   2.014   7.230  2.3948  0.7125  0.2750
   34CHL1  H21C 2497   4.592   1.969   7.061  0.8570 -0.8046  0.8151
   34CHL1   C22 2498   4.699   2.228   7.264  0.1387  0.3083 -0.6276
   34CHL1  H22A 2499   4.727   2.331   7.235  0.3737 -0.3595 -2.8868
   34CHL1  H22B 2500   4.590   2.232   7.288  0.3054  0.6885  0.0749
   34CHL1   C23 2501   4.773   2.165   7.388  0.8172  0.6487  0.0433
   34CHL1  H23A 2502   4.706   2.092   7.439  2.1361  0.1032  1.0092
   34CHL1  H23B 2503   4.876   2.124   7.381  0.9506  1.2512 -2.1333
   34CHL1   C24 2504   4.783   2.282   7.496  0.2063 -0.7444 -0.2257
   34CHL1  H24A 2505   4.821   2.376   7.450 -0.3787  0.2954  1.3825
   34CHL1  H24B 2506   4.681   2.300   7.535  0.0495  0.2560 -1.0745
   34CHL1   C25 2507   4.862   2.254   7.625  0.0994 -0.8681 -0.0521
   34CHL1   H25 2508   4.970   2.251   7.602  0.6258 -0.6719  2.2580
   34CHL1   C26 2509   4.841   2.376   7.712 -1.0346  0.2652 -0.0473
   34CHL1  H26A 2510   4.735   2.405   7.723 -1.3480 -0.9820  0.3307
   34CHL1  H26B 2511   4.890   2.371   7.811 -1.2362  0.1579  0.0473
   34CHL1  H26C 2512   4.888   2.465   7.664  2.8200 -0.7163  1.6758
   34CHL1   C27 2513   4.832   2.130   7.696  0.2039  0.9489 -0.2378
   34CHL1  H27A 2514   4.736   2.148   7.749 -0.3539 -0.7438 -0.6461
   34CHL1  H27B 2515   4.812   2.048   7.624  2.1574 -0.0468  0.3054
   34CHL1  H27C 2516   4.919   2.106   7.762  1.5651  0.9694 -1.9954
   35CHL1    C3 2517   1.767   4.615   6.006 -0.5352 -0.7496 -0.1979
   35CHL1    H3 2518   1.872   4.652   6.010  0.1384 -2.7026  0.9514
   35CHL1    O3 2519   1.707   4.651   5.885 -0.0697  0.4800  0.6699
   35CHL1   H3' 2520   1.672   4.741   5.889 -1.3366 -0.0388  1.4921
   35CHL1    C4 2521   1.754   4.461   6.040 -0.0845  0.1301  0.0256
   35CHL1   H4A 2522   1.647   4.435   6.032 -0.2660  0.7099  0.5009
   35CHL1   H4B 2523   1.816   4.413   5.961  2.2993 -0.7532  2.3474
   35CHL1    C5 2524   1.809   4.415   6.170 -0.1679  0.0270 -0.4738
   35CHL1    C6 2525   1.914   4.332   6.175 -0.0005 -0.6193  0.3361
   35CHL1    H6 2526   1.947   4.276   6.086 -0.8533  0.5079 -0.7073
   35CHL1    C7 2527   1.976   4.296   6.309  0.4313 -0.3381 -0.3491
   35CHL1   H7A 2528   1.990   4.186   6.318 -0.9766 -0.6113 -1.4005
   35CHL1   H7B 2529   2.074   4.349   6.311 -0.2236  0.8189  2.2148
   35CHL1    C8 2530   1.883   4.331   6.431  0.0989 -0.6563 -0.2946
   35CHL1    H8 2531   1.801   4.257   6.448 -0.3964  0.1704  0.9857
   35CHL1   C14 2532   1.961   4.324   6.561 -0.1810 -0.7409 -0.8868
   35CHL1   H14 2533   2.041   4.401   6.558  0.3605 -1.2574  0.0055
   35CHL1   C15 2534   2.041   4.191   6.598  0.3280 -0.5565  0.2426
   35CHL1  H15A 2535   1.987   4.101   6.563 -2.1031  1.2570 -0.7590
   35CHL1  H15B 2536   2.137   4.190   6.541 -0.2602 -0.4373 -0.7654
   35CHL1   C16 2537   2.052   4.189   6.751 -0.1492  0.1045 -0.0484
   35CHL1  H16A 2538   2.004   4.100   6.796  0.1104  0.7667  1.5682
   35CHL1  H16B 2539   2.160   4.176   6.774 -0.3919 -0.8469  0.5942
   35CHL1   C17 2540   1.978   4.317   6.798  1.1726 -0.0981  1.0520
   35CHL1   H17 2541   2.048   4.401   6.781  2.1513 -0.9196  0.9801
   35CHL1   C13 2542   1.876   4.347   6.687 -0.8108  0.0246  0.2654
   35CHL1   C18 2543   1.770   4.244   6.700 -0.1585  0.0977 -0.1597
   35CHL1  H18A 2544   1.805   4.139   6.706 -1.4556 -0.4316 -1.4721
   35CHL1  H18B 2545   1.684   4.259   6.769 -0.2904  0.0010 -0.3031
   35CHL1  H18C 2546   1.720   4.256   6.602 -0.3478 -0.7742 -0.1755
   35CHL1   C12 2547   1.832   4.488   6.676 -0.3880 -0.1414 -0.4817
   35CHL1  H12A 2548   1.772   4.521   6.763  1.6368  1.4062  0.3517
   35CHL1  H12B 2549   1.926   4.547   6.671  0.9232 -2.1414 -0.1384
   35CHL1   C11 2550   1.753   4.512   6.545  0.5324 -0.8340  0.0874
   35CHL1  H11A 2551   1.654   4.461   6.551 -0.7458  1.6429  0.5539
   35CHL1  H11B 2552   1.730   4.620   6.532  2.5062 -0.6012 -1.7328
   35CHL1    C9 2553   1.827   4.471   6.419  0.6088 -0.3396  0.9699
   35CHL1    H9 2554   1.917   4.535   6.410  1.0387 -1.3315 -2.6108
   35CHL1   C10 2555   1.747   4.496   6.287 -0.4190  0.1911  0.6031
   35CHL1   C19 2556   1.607   4.448   6.300 -0.0732 -0.3573 -0.3083
   35CHL1  H19A 2557   1.598   4.340   6.321 -0.2560 -0.2504  0.1734
   35CHL1  H19B 2558   1.555   4.508   6.378 -1.8461 -2.4666  0.1780
   35CHL1  H19C 2559   1.550   4.470   6.207 -0.5350 -0.2726 -0.0056
   35CHL1    C1 2560   1.752   4.645   6.256 -0.5446  0.4565  0.2046
   35CHL1   H1A 2561   1.698   4.698   6.337 -0.1610 -1.0750  1.4883
   35CHL1   H1B 2562   1.857   4.681   6.258 -0.6366  0.6566  1.4264
   35CHL1    C2 2563   1.687   4.688   6.119 -0.3088  0.7365  0.2480
   35CHL1   H2A 2564   1.696   4.799   6.118  0.2448  0.6979  0.7108
   35CHL1   H2B 2565   1.580   4.661   6.110  0.0529 -0.0642 -1.8958
   35CHL1   C20 2566   1.935   4.317   6.949  0.4942  0.0325 -0.3043
   35CHL1   H20 2567   1.859   4.397   6.958  0.7553  0.8430 -4.3756
   35CHL1   C21 2568   2.062   4.355   7.022  0.3165 -1.1604 -0.4185
   35CHL1  H21A 2569   2.043   4.378   7.129  1.1042  0.2745 -0.5807
   35CHL1  H21B 2570   2.111   4.443   6.977 -0.8256 -0.9565 -1.2993
   35CHL1  H21C 2571   2.136   4.272   7.023 -0.7067 -2.1151  2.6759
   35CHL1   C22 2572   1.863   4.196   7.006  0.1941 -0.3513  0.3404
   35CHL1  H22A 2573   1.771   4.170   6.949 -0.1868  0.5024  0.5510
   35CHL1  H22B 2574   1.937   4.114   7.004 -0.5603 -1.0628  1.1045
   35CHL1   C23 2575   1.819   4.219   7.149 -0.3894  0.9093 -0.8040
   35CHL1  H23A 2576   1.906   4.239   7.214 -0.9185  0.8734 -0.0704
   35CHL1  H23B 2577   1.751   4.306   7.138 -1.4124  0.4806  1.8141
   35CHL1   C24 2578   1.747   4.091   7.207 -0.2932  0.3800  0.3587
   35CHL1  H24A 2579   1.658   4.066   7.144 -1.1274 -3.0573  2.7851
   35CHL1  H24B 2580   1.822   4.011   7.196 -1.1930 -0.7864  2.3359
   35CHL1   C25 2581   1.708   4.099   7.347 -0.1146  0.3003  0.2925
   35CHL1   H25 2582   1.654   4.196   7.354 -2.5165 -0.9948  0.1393
   35CHL1   C26 2583   1.602   3.994   7.381 -0.4524  0.6118 -0.6166
   35CHL1  H26A 2584   1.644   3.892   7.366  0.2232  0.5911  1.2179
   35CHL1  H26B 2585   1.566   4.020   7.483 -0.0613  2.0343 -0.8298
   35CHL1  H26C 2586   1.516   4.007   7.313 -0.2325  1.6171 -0.7124
   35CHL1   C27 2587   1.830   4.086   7.442  1.0743 -0.3590 -0.0276
   35CHL1  H27A 2588   1.858   3.979   7.430  0.1999 -0.4223 -1.6110
   35CHL1  H27B 2589   1.811   4.099   7.551 -0.2905  0.0937 -0.3109
   35CHL1  H27C 2590   1.910   4.158   7.415  0.6516  0.6305  1.2704
   36CHL1    C3 2591   1.779   2.395   6.216 -0.6823 -0.4184  0.0411
   36CHL1    H3 2592   1.886   2.362   6.222 -1.0748 -1.7989 -0.3585
   36CHL1    O3 2593   1.736   2.394   6.080 -0.0121  0.2494 -0.2418
   36CHL1   H3' 2594   1.662   2.456   6.076  0.4810  0.8325 -0.4216
   36CHL1    C4 2595   1.704   2.287   6.285  0.0939  0.3736  0.4867
   36CHL1   H4A 2596   1.596   2.309   6.268  0.1851 -0.4722 -1.2731
   36CHL1   H4B 2597   1.738   2.188   6.249  2.0431  1.3720 -0.4788
   36CHL1    C5 2598   1.712   2.282   6.434  0.1755  0.3276 -0.7730
   36CHL1    C6 2599   1.735   2.167   6.504  0.4744 -0.4448  0.5966
   36CHL1    H6 2600   1.751   2.071   6.453  1.0417 -0.6294  1.1230
   36CHL1    C7 2601   1.734   2.158   6.656 -0.5315 -0.4210 -0.6150
   36CHL1   H7A 2602   1.655   2.086   6.686  2.1659 -2.3502  2.0970
   36CHL1   H7B 2603   1.831   2.120   6.694 -0.9887 -2.4692 -1.4389
   36CHL1    C8 2604   1.702   2.286   6.731  0.5658  0.1754 -0.5008
   36CHL1    H8 2605   1.592   2.288   6.744  0.7145  2.5104  0.6923
   36CHL1   C14 2606   1.777   2.285   6.860 -0.0487 -0.4772 -0.9292
   36CHL1   H14 2607   1.884   2.262   6.840 -0.1981 -1.7349 -0.3201
   36CHL1   C15 2608   1.728   2.173   6.960  0.5550  0.2439  0.3877
   36CHL1  H15A 2609   1.619   2.161   6.944  0.5647  1.8571 -1.0757
   36CHL1  H15B 2610   1.776   2.075   6.940  0.7245  0.0724  1.5856
   36CHL1   C16 2611   1.773   2.220   7.102  0.8574 -0.3810 -0.3972
   36CHL1  H16A 2612   1.687   2.223   7.171  0.7060  1.5329 -0.6172
   36CHL1  H16B 2613   1.854   2.151   7.133  1.0645 -0.9345 -2.1091
   36CHL1   C17 2614   1.829   2.365   7.078  0.1644 -0.0533 -0.2023
   36CHL1   H17 2615   1.939   2.367   7.063  0.1624  2.7119 -0.0606
   36CHL1   C13 2616   1.765   2.411   6.946 -0.0731  0.6988  0.1792
   36CHL1   C18 2617   1.615   2.441   6.977  0.4273 -0.3287 -0.0247
   36CHL1  H18A 2618   1.572   2.357   7.035  3.4084 -0.2369  2.4383
   36CHL1  H18B 2619   1.594   2.530   7.040 -2.3845 -0.1377 -1.1492
   36CHL1  H18C 2620   1.557   2.448   6.882  0.3814  1.2967  0.1010
   36CHL1   C12 2621   1.828   2.525   6.868 -0.3474  0.2120 -0.3029
   36CHL1  H12A 2622   1.812   2.630   6.901 -1.9334 -0.1260  0.0651
   36CHL1  H12B 2623   1.937   2.503   6.870 -0.2830  0.6285  1.8145
   36CHL1   C11 2624   1.757   2.538   6.733  0.0575  0.0417  0.3200
   36CHL1  H11A 2625   1.650   2.566   6.743 -0.2360 -0.7644 -0.5657
   36CHL1  H11B 2626   1.808   2.621   6.680 -1.3583 -0.2570 -1.5651
   36CHL1    C9 2627   1.759   2.404   6.652  0.4463 -0.3308  0.3652
   36CHL1    H9 2628   1.867   2.379   6.646  0.0382 -2.3484  1.1008
   36CHL1   C10 2629   1.698   2.416   6.504 -0.0994 -0.0425 -0.1624
   36CHL1   C19 2630   1.544   2.456   6.522 -0.2701  0.2564 -0.2572
   36CHL1  H19A 2631   1.491   2.377   6.580  1.4073 -0.1290  0.7873
   36CHL1  H19B 2632   1.527   2.553   6.573 -2.0887 -0.2887  0.2476
   36CHL1  H19C 2633   1.493   2.455   6.423 -1.1338  0.9148  0.1697
   36CHL1    C1 2634   1.778   2.525   6.431  0.6599 -0.0407 -0.8234
   36CHL1   H1A 2635   1.760   2.624   6.477 -2.2864  0.2456 -2.4331
   36CHL1   H1B 2636   1.884   2.496   6.444  0.0588 -1.2686  1.6467
   36CHL1    C2 2637   1.748   2.534   6.281 -0.8177  0.1916  0.0372
   36CHL1   H2A 2638   1.821   2.609   6.245 -0.4328 -1.2332 -2.2613
   36CHL1   H2B 2639   1.641   2.558   6.268 -0.8439  0.8282  1.3385
   36CHL1   C20 2640   1.809   2.455   7.204  0.4781  0.5476  0.1422
   36CHL1   H20 2641   1.701   2.470   7.221  0.8885  0.3735  3.2586
   36CHL1   C21 2642   1.868   2.594   7.183 -0.3350  0.1878  0.3724
   36CHL1  H21A 2643   1.797   2.648   7.118  0.1203 -1.5593 -1.6157
   36CHL1  H21B 2644   1.966   2.588   7.130  0.3495  1.5141  1.4357
   36CHL1  H21C 2645   1.877   2.655   7.276 -1.2382  0.5157  0.2458
   36CHL1   C22 2646   1.864   2.396   7.335  0.6708 -0.3168  0.2059
   36CHL1  H22A 2647   1.888   2.289   7.319 -3.9754 -1.2013 -1.8594
   36CHL1  H22B 2648   1.961   2.449   7.346  1.2448 -1.3200  0.0440
   36CHL1   C23 2649   1.766   2.424   7.447 -0.5556  0.5054 -0.7619
   36CHL1  H23A 2650   1.761   2.535   7.457 -2.1895  0.4363 -0.6697
   36CHL1  H23B 2651   1.663   2.389   7.422  0.2183 -2.0898 -0.4382
   36CHL1   C24 2652   1.811   2.361   7.584 -0.2614  0.0615 -0.1517
   36CHL1  H24A 2653   1.813   2.252   7.562 -2.0365 -1.0625  4.6575
   36CHL1  H24B 2654   1.913   2.396   7.612 -0.4328  0.7115 -0.3370
   36CHL1   C25 2655   1.708   2.390   7.696  0.1578  0.3515 -0.0114
   36CHL1   H25 2656   1.610   2.372   7.646  0.8990  0.4730 -1.5309
   36CHL1   C26 2657   1.708   2.305   7.822 -0.6418 -0.1447  0.1288
   36CHL1  H26A 2658   1.804   2.303   7.880 -0.4952 -2.6859 -0.1743
   36CHL1  H26B 2659   1.627   2.340   7.889  0.4856  2.3666  0.2422
   36CHL1  H26C 2660   1.700   2.196   7.803 -1.5675  0.3568 -2.4508
   36CHL1   C27 2661   1.711   2.537   7.736  0.0714  0.0436 -0.0379
   36CHL1  H27A 2662   1.805   2.568   7.786 -0.9701  0.1687  1.8641
   36CHL1  H27B 2663   1.682   2.603   7.651 -0.1964 -1.3826 -1.0897
   36CHL1  H27C 2664   1.621   2.548   7.801 -0.9890  3.0541 -1.8918
   37CHL1    C3 2665   4.414   5.674   6.132 -0.0277 -0.3759 -0.0179
   37CHL1    H3 2666   4.366   5.574   6.146 -0.7639 -0.6905 -4.0182
   37CHL1    O3 2667   4.417   5.688   5.991 -0.3189  0.6451 -0.0554
   37CHL1   H3' 2668   4.489   5.751   5.975  0.9015 -0.5127  0.8215
   37CHL1    C4 2669   4.331   5.788   6.197 -0.3965 -0.1055  1.0909
   37CHL1   H4A 2670   4.383   5.880   6.165  0.3415 -0.2399  1.8937
   37CHL1   H4B 2671   4.228   5.786   6.154  0.3095 -0.2748 -0.6417
   37CHL1    C5 2672   4.321   5.775   6.346 -0.3486  0.0813  0.1617
   37CHL1    C6 2673   4.205   5.786   6.407  0.7402 -0.2266  0.2786
   37CHL1    H6 2674   4.119   5.812   6.343 -0.2251  0.8014  1.9672
   37CHL1    C7 2675   4.195   5.779   6.556  0.6548 -0.2403 -0.7750
   37CHL1   H7A 2676   4.126   5.860   6.589  1.6698  0.3740 -0.1676
   37CHL1   H7B 2677   4.139   5.684   6.572 -1.3444  1.4346  2.6959
   37CHL1    C8 2678   4.326   5.800   6.627 -0.2503 -0.3233 -0.0548
   37CHL1    H8 2679   4.348   5.909   6.625  1.8631 -0.7313 -0.8115
   37CHL1   C14 2680   4.313   5.741   6.769  0.4204 -0.3527  0.0379
   37CHL1   H14 2681   4.291   5.636   6.742 -4.1797  0.7127 -0.8760
   37CHL1   C15 2682   4.178   5.756   6.855 -0.2911  0.1135  0.3824
   37CHL1  H15A 2683   4.164   5.865   6.871  1.3025  0.5661 -1.2242
   37CHL1  H15B 2684   4.094   5.707   6.801 -0.9649  2.0530 -0.3642
   37CHL1   C16 2685   4.224   5.715   6.996 -0.0243  0.2925  0.0104
   37CHL1  H16A 2686   4.207   5.793   7.073 -0.3291 -1.4967  1.7975
   37CHL1  H16B 2687   4.174   5.630   7.048 -0.2744  0.9571  0.8515
   37CHL1   C17 2688   4.379   5.681   6.987 -0.6006 -0.3231  0.2565
   37CHL1   H17 2689   4.403   5.575   6.963 -0.4451  0.0184 -1.1119
   37CHL1   C13 2690   4.430   5.754   6.861 -0.7272 -0.8192  0.4558
   37CHL1   C18 2691   4.454   5.902   6.893  0.7340  0.2368 -0.2562
   37CHL1  H18A 2692   4.543   5.922   6.957  1.0719 -0.5214 -0.4794
   37CHL1  H18B 2693   4.489   5.945   6.797  2.7505 -2.2349 -0.7125
   37CHL1  H18C 2694   4.368   5.960   6.933  1.6045  2.7600 -1.9121
   37CHL1   C12 2695   4.554   5.688   6.794  0.0043 -0.3856 -0.2766
   37CHL1  H12A 2696   4.645   5.699   6.858  0.5565  1.1546 -1.2946
   37CHL1  H12B 2697   4.539   5.579   6.781  2.2021 -0.4195 -2.8302
   37CHL1   C11 2698   4.577   5.732   6.644 -0.2163 -0.3122 -0.1186
   37CHL1  H11A 2699   4.622   5.834   6.642  1.5526 -1.0883 -1.3054
   37CHL1  H11B 2700   4.653   5.670   6.593 -0.3193  0.4544 -1.2191
   37CHL1    C9 2701   4.442   5.730   6.557  0.5434  0.1305 -0.9268
   37CHL1    H9 2702   4.420   5.622   6.568  0.0226  0.6073  4.2020
   37CHL1   C10 2703   4.459   5.769   6.408  0.2264  0.4191  0.4204
   37CHL1   C19 2704   4.524   5.909   6.396 -0.0480  0.0118  0.3170
   37CHL1  H19A 2705   4.618   5.905   6.456 -0.7607 -0.2124  1.4325
   37CHL1  H19B 2706   4.545   5.937   6.291 -1.0078  0.0698  0.1365
   37CHL1  H19C 2707   4.450   5.973   6.448  1.2700  0.9386  1.0887
   37CHL1    C1 2708   4.549   5.666   6.347  0.3268 -0.3964  0.6051
   37CHL1   H1A 2709   4.654   5.690   6.374  1.1917 -0.0114 -2.9143
   37CHL1   H1B 2710   4.524   5.559   6.366 -0.5271 -0.6813 -1.9180
   37CHL1    C2 2711   4.555   5.666   6.191  0.1467  0.0157 -0.4478
   37CHL1   H2A 2712   4.603   5.574   6.152 -1.1889 -0.4889 -0.9575
   37CHL1   H2B 2713   4.618   5.750   6.156  0.2968 -1.3910 -3.7405
   37CHL1   C20 2714   4.449   5.713   7.126 -0.2178 -0.2272 -0.8999
   37CHL1   H20 2715   4.425   5.818   7.154 -0.4260 -0.5146  0.0337
   37CHL1   C21 2716   4.602   5.701   7.125 -0.6268  0.4433  0.1156
   37CHL1  H21A 2717   4.639   5.715   7.229  2.4121  2.3215 -1.1534
   37CHL1  H21B 2718   4.642   5.790   7.071 -0.8553  1.7271  1.9969
   37CHL1  H21C 2719   4.632   5.600   7.090  2.5530  1.9285 -1.6513
   37CHL1   C22 2720   4.399   5.622   7.236  0.7207 -0.2329 -0.2413
   37CHL1  H22A 2721   4.288   5.620   7.226  0.6190 -0.3939  0.7916
   37CHL1  H22B 2722   4.435   5.520   7.213  0.5805 -0.7729  1.7943
   37CHL1   C23 2723   4.436   5.656   7.381 -0.1161 -0.5556  0.1362
   37CHL1  H23A 2724   4.544   5.640   7.400 -0.5628 -2.9759  0.8401
   37CHL1  H23B 2725   4.409   5.762   7.396  0.0686 -0.8270  2.7794
   37CHL1   C24 2726   4.352   5.578   7.487 -0.1286 -0.7470 -0.1575
   37CHL1  H24A 2727   4.249   5.576   7.445 -0.6027 -0.7536  0.9837
   37CHL1  H24B 2728   4.392   5.476   7.473  2.8409  0.1203  1.5401
   37CHL1   C25 2729   4.363   5.616   7.638  0.1114 -0.7017  0.6665
   37CHL1   H25 2730   4.468   5.643   7.660 -0.5414  0.9313  1.8346
   37CHL1   C26 2731   4.283   5.744   7.668  0.9491  0.0229 -0.0072
   37CHL1  H26A 2732   4.178   5.711   7.655  0.8243  0.0052  0.9737
   37CHL1  H26B 2733   4.297   5.796   7.765 -0.5659 -0.9707  0.7679
   37CHL1  H26C 2734   4.303   5.816   7.586 -1.1912  0.6352 -0.0104
   37CHL1   C27 2735   4.326   5.509   7.741 -0.3297 -0.0516 -0.0666
   37CHL1  H27A 2736   4.327   5.555   7.842  1.2878  0.4331 -0.2904
   37CHL1  H27B 2737   4.221   5.486   7.710 -0.2080 -1.1899  0.3360
   37CHL1  H27C 2738   4.387   5.416   7.747 -0.6360 -0.0855  2.9794
   38CHL1    C3 2739   2.348   5.573   6.014 -0.0901 -0.3231  0.4401
   38CHL1    H3 2740   2.313   5.668   6.060  4.3635  0.7968  1.7281
   38CHL1    O3 2741   2.337   5.584   5.879  0.9812  0.1016  0.6617
   38CHL1   H3' 2742   2.368   5.674   5.867  3.3813 -0.5962  1.3326
   38CHL1    C4 2743   2.505   5.559   6.041 -0.1016  0.0243 -0.1806
   38CHL1   H4A 2744   2.548   5.476   5.982  0.5682 -0.3572  0.8235
   38CHL1   H4B 2745   2.547   5.656   6.006 -0.7951  0.9958  1.5817
   38CHL1    C5 2746   2.536   5.528   6.188  0.5651  0.3621  0.4571
   38CHL1    C6 2747   2.620   5.602   6.264  0.1264  0.0527 -0.0230
   38CHL1    H6 2748   2.685   5.680   6.220  0.8180 -1.1298 -1.1362
   38CHL1    C7 2749   2.639   5.592   6.415  0.4477  0.0538 -0.3057
   38CHL1   H7A 2750   2.746   5.582   6.444  0.4209 -0.8636 -0.4936
   38CHL1   H7B 2751   2.596   5.679   6.469  1.7043 -0.2627  1.2666
   38CHL1    C8 2752   2.574   5.466   6.469 -0.1979 -0.0698  0.1008
   38CHL1    H8 2753   2.633   5.373   6.453  2.8443  1.8315 -0.2129
   38CHL1   C14 2754   2.568   5.478   6.620  0.0111  0.3965 -0.0227
   38CHL1   H14 2755   2.492   5.558   6.634  1.0367  1.2956  0.4474
   38CHL1   C15 2756   2.693   5.524   6.706 -0.6897  0.9488  0.1229
   38CHL1  H15A 2757   2.778   5.463   6.669  0.7493  2.9740 -0.0072
   38CHL1  H15B 2758   2.702   5.634   6.694  0.2592  0.8693  0.0738
   38CHL1   C16 2759   2.659   5.483   6.849 -0.3622 -0.2108 -0.2027
   38CHL1  H16A 2760   2.742   5.417   6.884 -0.1777  0.8740  1.4918
   38CHL1  H16B 2761   2.647   5.573   6.914  1.2239 -1.2803  1.6433
   38CHL1   C17 2762   2.516   5.418   6.843  0.3029 -0.2291  0.0533
   38CHL1   H17 2763   2.449   5.506   6.842 -1.3328 -1.3887  2.6442
   38CHL1   C13 2764   2.502   5.358   6.700  0.7972 -0.0597  0.0076
   38CHL1   C18 2765   2.592   5.240   6.682  0.5523 -0.5340  0.3181
   38CHL1  H18A 2766   2.543   5.149   6.724 -0.5251 -0.5878 -1.0205
   38CHL1  H18B 2767   2.611   5.213   6.576 -2.0372 -0.8658 -0.1000
   38CHL1  H18C 2768   2.692   5.249   6.728 -0.5010  1.4812  2.3136
   38CHL1   C12 2769   2.366   5.332   6.630 -0.4477  0.3613 -0.1376
   38CHL1  H12A 2770   2.305   5.255   6.682  1.5419 -0.1173  1.5672
   38CHL1  H12B 2771   2.307   5.423   6.653 -1.4148 -0.3292  0.1845
   38CHL1   C11 2772   2.368   5.315   6.478 -0.0156  0.0041 -0.5116
   38CHL1  H11A 2773   2.428   5.223   6.461 -1.9334 -1.2814 -0.3980
   38CHL1  H11B 2774   2.268   5.289   6.438 -1.6803  1.0732  2.8305
   38CHL1    C9 2775   2.435   5.434   6.412  0.0512 -0.1263  0.1863
   38CHL1    H9 2776   2.370   5.522   6.433 -0.0447 -0.2522  0.4122
   38CHL1   C10 2777   2.440   5.422   6.252  0.4937  0.0021  0.2278
   38CHL1   C19 2778   2.488   5.279   6.216  0.5314 -0.6156 -0.6708
   38CHL1  H19A 2779   2.419   5.201   6.253 -0.2002 -0.3920 -1.5387
   38CHL1  H19B 2780   2.499   5.264   6.107  0.0940 -0.6080 -0.7156
   38CHL1  H19C 2781   2.596   5.264   6.236 -0.0692 -1.6934  2.0728
   38CHL1    C1 2782   2.289   5.436   6.213  0.3312  0.1550 -0.0366
   38CHL1   H1A 2783   2.229   5.347   6.240 -0.3410  1.0030  1.2989
   38CHL1   H1B 2784   2.248   5.522   6.270 -3.5266 -1.9000  0.4148
   38CHL1    C2 2785   2.269   5.454   6.060 -0.1439 -0.1412 -0.0654
   38CHL1   H2A 2786   2.164   5.471   6.029 -0.1226 -2.1162 -1.2699
   38CHL1   H2B 2787   2.284   5.357   6.009  1.8019 -0.8873  1.8262
   38CHL1   C20 2788   2.473   5.335   6.965 -0.3759 -0.5086 -0.0652
   38CHL1   H20 2789   2.542   5.249   6.977  0.1784 -0.1529 -0.6501
   38CHL1   C21 2790   2.329   5.276   6.955 -0.2841  0.3597  0.3440
   38CHL1  H21A 2791   2.305   5.231   7.053  1.5393 -1.1694  0.1050
   38CHL1  H21B 2792   2.333   5.193   6.881 -1.7456 -0.4529  1.1681
   38CHL1  H21C 2793   2.253   5.342   6.907  0.2360  2.1411  1.9192
   38CHL1   C22 2794   2.507   5.419   7.095 -0.1671 -0.3388 -0.5836
   38CHL1  H22A 2795   2.611   5.455   7.085 -1.0711  2.3028 -1.0317
   38CHL1  H22B 2796   2.451   5.515   7.099 -0.0908 -0.3196  0.0272
   38CHL1   C23 2797   2.474   5.344   7.222 -0.1695  0.4014 -1.0160
   38CHL1  H23A 2798   2.365   5.324   7.216 -0.3050  1.5194 -2.7145
   38CHL1  H23B 2799   2.536   5.253   7.231  1.2242  1.6022  2.1675
   38CHL1   C24 2800   2.510   5.420   7.357  0.5709 -0.4875  0.5257
   38CHL1  H24A 2801   2.607   5.474   7.351 -0.9207  2.0633 -1.6641
   38CHL1  H24B 2802   2.432   5.498   7.367 -0.2391 -1.4249  1.6519
   38CHL1   C25 2803   2.508   5.343   7.485  0.0586 -0.2692 -0.2506
   38CHL1   H25 2804   2.476   5.418   7.561  2.2826  0.7999 -0.3250
   38CHL1   C26 2805   2.385   5.253   7.487 -0.1519 -0.3008  0.7928
   38CHL1  H26A 2806   2.299   5.306   7.440  0.6624 -0.4201 -0.8710
   38CHL1  H26B 2807   2.401   5.153   7.442 -0.2518  0.4663 -1.0006
   38CHL1  H26C 2808   2.364   5.227   7.593  1.4719 -0.6188  1.0481
   38CHL1   C27 2809   2.637   5.265   7.514  0.1693 -0.5341 -0.8999
   38CHL1  H27A 2810   2.619   5.224   7.615  0.4816  1.9719  0.2080
   38CHL1  H27B 2811   2.651   5.181   7.442 -0.8812  0.8310 -2.7573
   38CHL1  H27C 2812   2.732   5.323   7.510 -1.5464  2.4831  0.3500
   39CHL1    C3 2813   2.133   5.016   6.084  0.0170  0.3726  0.3636
   39CHL1    H3 2814   2.240   5.019   6.111  0.1841  1.1840 -0.3502
   39CHL1    O3 2815   2.114   5.017   5.939 -0.7052 -0.0910  0.6552
   39CHL1   H3' 2816   2.041   4.954   5.937  1.2706 -2.4558 -0.2164
   39CHL1    C4 2817   2.069   4.890   6.145  0.0658  0.1704 -0.2929
   39CHL1   H4A 2818   1.965   4.890   6.107  0.0665 -1.4477 -0.3268
   39CHL1   H4B 2819   2.111   4.800   6.094 -1.1190 -1.0732  0.9081
   39CHL1    C5 2820   2.092   4.879   6.291  0.1420 -0.4732 -0.6504
   39CHL1    C6 2821   2.164   4.783   6.347 -0.9453  0.2811 -0.0882
   39CHL1    H6 2822   2.200   4.705   6.278 -1.0864  0.8090 -0.7627
   39CHL1    C7 2823   2.185   4.767   6.496  0.2516 -0.0577  0.0021
   39CHL1   H7A 2824   2.161   4.663   6.527 -2.3226  0.8505  1.2354
   39CHL1   H7B 2825   2.292   4.772   6.525  0.4846 -0.2565 -0.8181
   39CHL1    C8 2826   2.093   4.862   6.576  0.1302 -0.0076 -0.7188
   39CHL1    H8 2827   1.991   4.821   6.590  0.5466 -0.8804 -0.2223
   39CHL1   C14 2828   2.142   4.864   6.729 -0.9131  0.4144  0.3832
   39CHL1   H14 2829   2.241   4.914   6.717  0.2129 -2.0316 -0.8986
   39CHL1   C15 2830   2.159   4.730   6.801 -0.9847 -0.6642 -0.4280
   39CHL1  H15A 2831   2.071   4.664   6.779 -2.0850  0.9184 -0.8638
   39CHL1  H15B 2832   2.252   4.681   6.765 -0.7462 -1.2167  0.9265
   39CHL1   C16 2833   2.162   4.766   6.949 -0.2255  0.2872 -0.4975
   39CHL1  H16A 2834   2.080   4.707   6.996  0.2728  0.4334  0.5699
   39CHL1  H16B 2835   2.259   4.749   7.001 -0.1857 -0.0707 -0.6922
   39CHL1   C17 2836   2.124   4.920   6.961 -0.3725  0.2188  0.2260
   39CHL1   H17 2837   2.218   4.977   6.953 -0.5911  0.5935  0.3047
   39CHL1   C13 2838   2.051   4.941   6.822 -0.0816 -0.0044  0.3244
   39CHL1   C18 2839   1.907   4.883   6.835 -0.0767 -0.3409 -0.7036
   39CHL1  H18A 2840   1.902   4.782   6.879  0.6545  0.1173  0.4529
   39CHL1  H18B 2841   1.844   4.957   6.889  2.6128  1.1272  0.5027
   39CHL1  H18C 2842   1.860   4.884   6.734  0.9945  0.0892 -1.2008
   39CHL1   C12 2843   2.058   5.091   6.766 -1.0276  0.1504 -0.1074
   39CHL1  H12A 2844   2.001   5.171   6.817  1.3839  1.8564  0.0165
   39CHL1  H12B 2845   2.159   5.133   6.782 -0.7069 -0.9688  0.8518
   39CHL1   C11 2846   2.018   5.105   6.615 -0.1174  0.3724 -0.0897
   39CHL1  H11A 2847   1.909   5.084   6.620  0.0387 -0.1479  1.2075
   39CHL1  H11B 2848   2.026   5.213   6.587 -0.1952 -0.1980 -2.4370
   39CHL1    C9 2849   2.092   5.009   6.516  0.2122 -0.4205 -0.2917
   39CHL1    H9 2850   2.194   5.053   6.508  0.5741 -1.4961 -1.8191
   39CHL1   C10 2851   2.039   5.004   6.371  0.1917 -0.0841 -0.8418
   39CHL1   C19 2852   1.879   4.992   6.375 -0.1023  0.4574  0.2105
   39CHL1  H19A 2853   1.832   5.090   6.398 -2.6849 -0.8273  0.5596
   39CHL1  H19B 2854   1.829   4.976   6.278  0.3179  0.0749  0.0534
   39CHL1  H19C 2855   1.855   4.914   6.451 -0.4442  0.1181 -0.2490
   39CHL1    C1 2856   2.082   5.127   6.292  0.1967  0.2897 -0.3415
   39CHL1   H1A 2857   2.029   5.215   6.335 -0.7395 -1.3989  2.0395
   39CHL1   H1B 2858   2.191   5.143   6.302  0.0474  0.9024  0.4122
   39CHL1    C2 2859   2.055   5.128   6.145  0.1148  0.1199 -0.2575
   39CHL1   H2A 2860   2.090   5.221   6.094 -2.6637  1.0147 -0.5790
   39CHL1   H2B 2861   1.947   5.112   6.129 -0.5064  1.1740  2.5551
   39CHL1   C20 2862   2.050   4.958   7.088  0.1187  0.1989  0.5204
   39CHL1   H20 2863   1.960   4.893   7.096  2.0334 -2.5383  0.6191
   39CHL1   C21 2864   2.005   5.113   7.070 -1.2293 -0.6801  0.4761
   39CHL1  H21A 2865   1.923   5.115   6.996 -0.0536 -0.4147 -0.8319
   39CHL1  H21B 2866   2.096   5.163   7.030  0.0527 -2.6723  0.7917
   39CHL1  H21C 2867   1.980   5.159   7.168 -1.9351  1.1293 -0.5278
   39CHL1   C22 2868   2.149   4.945   7.212 -0.1449  0.2999  0.0490
   39CHL1  H22A 2869   2.220   4.861   7.198  0.7263  1.2023 -1.1256
   39CHL1  H22B 2870   2.210   5.038   7.221  1.6406 -0.9284  1.1417
   39CHL1   C23 2871   2.058   4.913   7.329 -0.8696  0.6139 -0.3113
   39CHL1  H23A 2872   1.954   4.926   7.291 -0.2933  1.2564 -1.6804
   39CHL1  H23B 2873   2.072   4.806   7.357  0.6510  0.4419 -1.6816
   39CHL1   C24 2874   2.078   4.992   7.460 -0.5097 -0.6986 -0.1292
   39CHL1  H24A 2875   2.184   5.026   7.456 -0.4516 -0.5921  1.7807
   39CHL1  H24B 2876   2.017   5.085   7.461  1.0445  0.3398  1.2918
   39CHL1   C25 2877   2.068   4.914   7.589  0.8000 -0.3955  0.4354
   39CHL1   H25 2878   1.982   4.844   7.579  0.0280  0.7620 -1.3208
   39CHL1   C26 2879   2.195   4.828   7.604 -0.5344  0.8720  0.2058
   39CHL1  H26A 2880   2.251   4.796   7.514  0.9476  1.3224  0.9449
   39CHL1  H26B 2881   2.272   4.891   7.654  2.0276 -1.0778 -1.1989
   39CHL1  H26C 2882   2.170   4.742   7.670  2.0877  0.1805  0.3551
   39CHL1   C27 2883   2.055   5.013   7.705 -0.0011  0.3452 -0.2048
   39CHL1  H27A 2884   1.972   5.084   7.681 -1.9490 -1.9966 -0.6582
   39CHL1  H27B 2885   2.031   4.960   7.800 -0.0024 -0.0885 -0.4464
   39CHL1  H27C 2886   2.145   5.076   7.716 -0.4977  0.8205  1.3824
   40CHL1    C3 2887   5.650   3.396   5.926  0.2845 -0.4826  0.1680
   40CHL1    H3 2888   5.704   3.304   5.893  1.8837  0.7341 -0.6720
   40CHL1    O3 2889   5.613   3.462   5.799 -0.1371 -0.1939  0.5403
   40CHL1   H3' 2890   5.572   3.544   5.826 -0.8424 -0.6724  0.9610
   40CHL1    C4 2891   5.531   3.371   6.014  0.1386  0.2211  0.3825
   40CHL1   H4A 2892   5.467   3.462   6.022  1.1900  1.1259 -1.3445
   40CHL1   H4B 2893   5.462   3.302   5.961 -0.8111  0.2416  1.5491
   40CHL1    C5 2894   5.572   3.317   6.155  0.1766 -0.0182  0.0622
   40CHL1    C6 2895   5.528   3.196   6.202 -0.1420  0.0151  0.7773
   40CHL1    H6 2896   5.463   3.136   6.136  0.1908  0.8634 -0.3167
   40CHL1    C7 2897   5.559   3.143   6.338  0.1955 -0.0740 -0.2638
   40CHL1   H7A 2898   5.469   3.103   6.389  0.4399  1.2852  1.2626
   40CHL1   H7B 2899   5.631   3.059   6.327 -1.0777 -1.2317  0.1049
   40CHL1    C8 2900   5.613   3.258   6.434 -0.3245 -0.2810 -0.3361
   40CHL1    H8 2901   5.530   3.330   6.448  0.5529  0.2371  2.4943
   40CHL1   C14 2902   5.657   3.204   6.573 -0.5071 -0.1764  0.6397
   40CHL1   H14 2903   5.729   3.124   6.546 -0.1390  0.4963 -0.3945
   40CHL1   C15 2904   5.543   3.150   6.666 -0.1599  0.5171  0.3042
   40CHL1  H15A 2905   5.446   3.202   6.649 -0.3111 -0.0149 -0.4834
   40CHL1  H15B 2906   5.521   3.047   6.631  3.8540 -0.4667  0.4651
   40CHL1   C16 2907   5.611   3.146   6.803  0.0117 -0.3338 -0.5025
   40CHL1  H16A 2908   5.549   3.199   6.879  0.0610  0.4252 -0.9884
   40CHL1  H16B 2909   5.636   3.041   6.832 -0.5399  0.1509  1.8142
   40CHL1   C17 2910   5.746   3.227   6.792 -0.5504 -0.1321 -0.4914
   40CHL1   H17 2911   5.820   3.147   6.769 -1.2536 -0.9432  0.0292
   40CHL1   C13 2912   5.726   3.310   6.662 -0.4870  0.5489  0.7846
   40CHL1   C18 2913   5.640   3.430   6.686 -0.3651  0.5564  0.6582
   40CHL1  H18A 2914   5.609   3.470   6.587 -1.4132  0.0264  0.7591
   40CHL1  H18B 2915   5.546   3.399   6.736 -1.2523 -0.3548 -1.5163
   40CHL1  H18C 2916   5.695   3.515   6.731 -0.6824  0.3348  1.4814
   40CHL1   C12 2917   5.855   3.354   6.587 -0.0739 -0.1590 -0.7868
   40CHL1  H12A 2918   5.921   3.424   6.643 -0.1317 -0.9809  0.3247
   40CHL1  H12B 2919   5.919   3.268   6.557  0.5997 -0.7100  2.0611
   40CHL1   C11 2920   5.817   3.422   6.453  0.3836  0.6993 -0.8847
   40CHL1  H11A 2921   5.776   3.523   6.475 -0.9430 -0.2107  0.9752
   40CHL1  H11B 2922   5.907   3.438   6.390  1.4410 -0.2628  0.3747
   40CHL1    C9 2923   5.722   3.334   6.363 -0.1313 -0.4282  0.4577
   40CHL1    H9 2924   5.793   3.255   6.328 -0.6191  0.0620 -1.7241
   40CHL1   C10 2925   5.668   3.404   6.230 -0.9308  0.0817  0.3639
   40CHL1   C19 2926   5.598   3.532   6.277  0.3068 -0.2935  0.7257
   40CHL1  H19A 2927   5.666   3.603   6.328 -1.6844  0.8736  1.8251
   40CHL1  H19B 2928   5.554   3.593   6.195 -1.1903 -0.1154  1.6600
   40CHL1  H19C 2929   5.510   3.516   6.342 -1.0664  1.9374 -0.5482
   40CHL1    C1 2930   5.787   3.437   6.135  0.3638 -1.2385  0.3818
   40CHL1   H1A 2931   5.859   3.509   6.180  1.0335 -0.7944 -1.3806
   40CHL1   H1B 2932   5.841   3.344   6.107 -1.3175 -1.7827 -1.0724
   40CHL1    C2 2933   5.745   3.492   5.991 -0.1692 -0.4336 -0.3911
   40CHL1   H2A 2934   5.838   3.531   5.943 -0.0526  1.1788  1.0582
   40CHL1   H2B 2935   5.685   3.585   6.000 -0.0711 -0.2865 -1.2178
   40CHL1   C20 2936   5.794   3.311   6.912 -0.1261  0.0786 -0.1516
   40CHL1   H20 2937   5.846   3.402   6.874  0.4365  0.2443  1.0008
   40CHL1   C21 2938   5.905   3.235   6.987  0.0678 -0.3350 -0.6096
   40CHL1  H21A 2939   5.853   3.153   7.041 -0.6250  1.2683  1.2299
   40CHL1  H21B 2940   5.960   3.301   7.058 -1.0430 -1.0497  0.9626
   40CHL1  H21C 2941   5.966   3.186   6.909  0.0619  1.4968 -1.7883
   40CHL1   C22 2942   5.689   3.361   7.012 -0.5633 -0.1091 -0.3869
   40CHL1  H22A 2943   5.600   3.399   6.957  1.5837  0.7563 -3.3917
   40CHL1  H22B 2944   5.652   3.271   7.066 -1.5406  0.5656  0.1036
   40CHL1   C23 2945   5.741   3.471   7.110 -0.1007  0.2083 -0.3148
   40CHL1  H23A 2946   5.832   3.446   7.169 -0.4488 -2.7095 -0.9516
   40CHL1  H23B 2947   5.770   3.566   7.059  0.2119 -0.0356 -0.5953
   40CHL1   C24 2948   5.641   3.529   7.213  0.0343 -0.1404  0.6392
   40CHL1  H24A 2949   5.696   3.578   7.295  1.6677 -0.6021 -0.1646
   40CHL1  H24B 2950   5.569   3.606   7.179 -0.3911 -0.6392  0.3906
   40CHL1   C25 2951   5.562   3.420   7.285 -0.8592 -0.4941  0.4526
   40CHL1   H25 2952   5.506   3.369   7.204 -0.2188  2.0138 -1.6493
   40CHL1   C26 2953   5.645   3.323   7.361  0.5759  0.7974  0.1626
   40CHL1  H26A 2954   5.707   3.263   7.291 -0.5451 -0.3388  0.1449
   40CHL1  H26B 2955   5.714   3.388   7.420 -1.6185  1.7623  1.7075
   40CHL1  H26C 2956   5.596   3.258   7.436  3.4909 -2.2909 -0.4787
   40CHL1   C27 2957   5.460   3.487   7.386 -0.5695  0.4950 -0.2175
   40CHL1  H27A 2958   5.385   3.414   7.424 -0.8948  1.4318  0.9652
   40CHL1  H27B 2959   5.513   3.519   7.478 -0.0070 -2.4294  0.5101
   40CHL1  H27C 2960   5.413   3.576   7.337 -1.1468  0.5197  0.3745
   41CHL1    C3 2961   5.954   3.965   6.029  0.3273  0.4076  1.0388
   41CHL1    H3 2962   6.054   4.012   6.040  0.6214 -0.0510  0.4168
   41CHL1    O3 2963   5.924   3.940   5.893  0.5025  0.3816 -0.2482
   41CHL1   H3' 2964   5.979   3.869   5.858  1.3196  1.1733 -0.5974
   41CHL1    C4 2965   5.939   3.833   6.108  0.4279  0.3288 -0.3392
   41CHL1   H4A 2966   5.835   3.802   6.087  0.4427 -0.2110  0.3663
   41CHL1   H4B 2967   6.006   3.758   6.061 -0.6743  0.6231 -2.4611
   41CHL1    C5 2968   5.956   3.850   6.259 -0.1555 -0.6335  0.2003
   41CHL1    C6 2969   6.051   3.787   6.320  0.1066 -0.4376 -0.1897
   41CHL1    H6 2970   6.116   3.713   6.271 -2.1382 -1.7240 -1.3231
   41CHL1    C7 2971   6.076   3.784   6.473  0.1334 -0.4355 -0.1093
   41CHL1   H7A 2972   6.079   3.675   6.496  0.4754 -0.0719  1.6655
   41CHL1   H7B 2973   6.175   3.828   6.498  0.3076 -0.3285 -0.9886
   41CHL1    C8 2974   5.954   3.851   6.553  0.7628 -0.1887  1.1750
   41CHL1    H8 2975   5.867   3.781   6.549  1.2993 -0.8669  1.2008
   41CHL1   C14 2976   5.993   3.883   6.691 -0.6118 -0.2765 -0.5566
   41CHL1   H14 2977   6.064   3.968   6.681 -0.1429 -0.7442 -1.2297
   41CHL1   C15 2978   6.064   3.776   6.771 -0.3350  0.8591  0.0207
   41CHL1  H15A 2979   6.030   3.672   6.756 -0.0643  0.8275 -0.3958
   41CHL1  H15B 2980   6.168   3.773   6.731 -0.3554  0.6563 -0.0200
   41CHL1   C16 2981   6.054   3.812   6.924  0.3168 -0.1817  0.7829
   41CHL1  H16A 2982   6.002   3.738   6.988  1.0332  0.3304  1.9788
   41CHL1  H16B 2983   6.157   3.837   6.960  1.2864 -0.5671 -1.6348
   41CHL1   C17 2984   5.971   3.946   6.913 -0.2998  0.0854 -0.0302
   41CHL1   H17 2985   6.051   4.022   6.905 -0.8726  0.5274 -1.8995
   41CHL1   C13 2986   5.892   3.940   6.780 -0.1672  0.1413  0.2587
   41CHL1   C18 2987   5.773   3.841   6.804 -0.5086 -0.5033  0.3225
   41CHL1  H18A 2988   5.720   3.818   6.709 -0.9444 -0.5843  0.5869
   41CHL1  H18B 2989   5.807   3.743   6.844  0.2999 -0.1282  0.5678
   41CHL1  H18C 2990   5.697   3.875   6.877  0.2442 -0.4565  1.0902
   41CHL1   C12 2991   5.839   4.067   6.708 -0.8800 -0.3392 -0.4581
   41CHL1  H12A 2992   5.746   4.103   6.758  1.3189  2.0669  2.1003
   41CHL1  H12B 2993   5.912   4.150   6.710 -1.5848  0.2821 -0.0974
   41CHL1   C11 2994   5.804   4.049   6.561  0.7015 -0.3492 -0.5852
   41CHL1  H11A 2995   5.711   3.988   6.556 -0.3029  1.1793 -0.5910
   41CHL1  H11B 2996   5.771   4.139   6.506 -2.5068 -0.6968  0.6608
   41CHL1    C9 2997   5.909   3.973   6.479 -0.4959  0.2383  0.5195
   41CHL1    H9 2998   6.000   4.038   6.474  0.1095 -0.6329  0.0532
   41CHL1   C10 2999   5.864   3.953   6.325 -0.0473 -0.3015  0.1754
   41CHL1   C19 3000   5.715   3.897   6.330  0.2510 -0.4230  0.6528
   41CHL1  H19A 3001   5.678   3.856   6.234  0.3892  0.7079  0.1195
   41CHL1  H19B 3002   5.708   3.810   6.400 -1.7201 -1.1003 -0.3541
   41CHL1  H19C 3003   5.645   3.978   6.361  0.4590 -0.0280  0.0929
   41CHL1    C1 3004   5.865   4.087   6.242 -0.4986 -0.0478  0.2841
   41CHL1   H1A 3005   5.783   4.157   6.270  0.0912 -0.4093  3.0781
   41CHL1   H1B 3006   5.962   4.135   6.264  0.5679 -1.1995 -1.8014
   41CHL1    C2 3007   5.853   4.070   6.093  0.3132 -0.8120  0.9944
   41CHL1   H2A 3008   5.871   4.170   6.047 -2.6981 -0.8094 -0.2507
   41CHL1   H2B 3009   5.745   4.051   6.075  0.0702 -0.5359  2.1095
   41CHL1   C20 3010   5.899   3.987   7.044 -0.2854  0.0854 -0.4321
   41CHL1   H20 3011   5.828   3.904   7.064 -2.3112  1.8174 -0.2225
   41CHL1   C21 3012   5.812   4.110   7.021 -0.7491 -0.4520 -0.3752
   41CHL1  H21A 3013   5.833   4.174   6.932 -2.0125  1.9476  1.0005
   41CHL1  H21B 3014   5.794   4.176   7.108  1.4325  2.0275 -1.7200
   41CHL1  H21C 3015   5.716   4.069   6.982 -0.5094 -1.0995 -0.2986
   41CHL1   C22 3016   5.981   3.986   7.178  0.6930 -0.8219 -0.4694
   41CHL1  H22A 3017   6.065   3.914   7.167  0.5076 -1.4394  1.7090
   41CHL1  H22B 3018   6.016   4.091   7.191 -0.4172 -0.5375  0.4176
   41CHL1   C23 3019   5.887   3.953   7.297 -0.0109 -0.1053  0.4917
   41CHL1  H23A 3020   5.802   4.024   7.298  1.4437  1.6529  1.6272
   41CHL1  H23B 3021   5.848   3.852   7.273  1.2315 -0.5862  0.4469
   41CHL1   C24 3022   5.958   3.956   7.427  0.0693  0.4243 -0.5176
   41CHL1  H24A 3023   6.029   3.870   7.428  0.6567  0.8527 -2.7737
   41CHL1  H24B 3024   6.011   4.051   7.445  3.8553 -1.8433  0.8628
   41CHL1   C25 3025   5.851   3.932   7.535  0.3287 -0.0882  0.2685
   41CHL1   H25 3026   5.755   3.963   7.488  0.2811 -0.2126  0.2830
   41CHL1   C26 3027   5.839   3.783   7.570 -0.8384  0.1410 -0.2244
   41CHL1  H26A 3028   5.792   3.717   7.494  1.0036 -0.7633 -0.6104
   41CHL1  H26B 3029   5.938   3.740   7.598 -0.6403  0.5749 -0.2521
   41CHL1  H26C 3030   5.782   3.781   7.665  0.3072 -3.1040  0.4730
   41CHL1   C27 3031   5.880   4.003   7.664  0.2845 -0.0495  0.1443
   41CHL1  H27A 3032   5.981   3.974   7.698  1.0091  1.7475 -0.4249
   41CHL1  H27B 3033   5.892   4.110   7.636 -2.9247  0.2834 -0.1966
   41CHL1  H27C 3034   5.805   3.992   7.746 -0.4505  0.1351 -0.4996
   42CHL1    C3 3035   5.925   1.930   6.039 -0.1569  0.6954  0.6420
   42CHL1    H3 3036   5.883   1.837   6.082  0.2397 -0.0560 -0.5865
   42CHL1    O3 3037   5.948   1.911   5.901  0.3955  0.1368 -0.3221
   42CHL1   H3' 3038   5.991   1.993   5.876  1.6708 -0.1766  0.8059
   42CHL1    C4 3039   5.849   2.060   6.066 -0.0162 -0.4540  1.2413
   42CHL1   H4A 3040   5.894   2.152   6.023 -1.8501  0.5339  1.4135
   42CHL1   H4B 3041   5.754   2.056   6.010  0.2677 -1.2422  0.8032
   42CHL1    C5 3042   5.825   2.077   6.215  0.2173  0.6253 -0.0397
   42CHL1    C6 3043   5.708   2.086   6.274 -0.2422  2.0383  0.7564
   42CHL1    H6 3044   5.612   2.066   6.223  0.8300  0.2476 -0.6331
   42CHL1    C7 3045   5.698   2.114   6.420 -0.1337 -0.3317 -0.2298
   42CHL1   H7A 3046   5.613   2.184   6.428  0.5233  0.3412  1.0023
   42CHL1   H7B 3047   5.668   2.020   6.470  0.4769 -0.9761 -1.0608
   42CHL1    C8 3048   5.821   2.175   6.482  0.7433  0.3193  0.4250
   42CHL1    H8 3049   5.831   2.283   6.457  0.7752 -0.0843 -1.3947
   42CHL1   C14 3050   5.800   2.164   6.630 -0.5555 -0.4456 -0.3312
   42CHL1   H14 3051   5.799   2.060   6.667  2.4004 -0.0114  1.1647
   42CHL1   C15 3052   5.669   2.209   6.703  0.3088 -0.0539  0.7048
   42CHL1  H15A 3053   5.627   2.301   6.657  1.3896 -0.7316 -1.7381
   42CHL1  H15B 3054   5.593   2.127   6.703  1.0286 -0.8213 -2.8408
   42CHL1   C16 3055   5.709   2.243   6.841 -0.6004 -0.2363  0.0618
   42CHL1  H16A 3056   5.707   2.352   6.864 -1.3175  0.2561 -2.2431
   42CHL1  H16B 3057   5.648   2.178   6.907  0.1018 -3.7774 -2.6265
   42CHL1   C17 3058   5.862   2.206   6.853  0.1914 -0.0905  0.1694
   42CHL1   H17 3059   5.861   2.098   6.880 -0.6861  0.0704  0.7781
   42CHL1   C13 3060   5.917   2.216   6.708  0.2247 -0.1938  0.4501
   42CHL1   C18 3061   5.939   2.365   6.686  0.2810 -0.0514 -0.1277
   42CHL1  H18A 3062   6.022   2.400   6.752 -0.3682  1.7169 -0.2193
   42CHL1  H18B 3063   5.974   2.391   6.584  2.2310 -1.5128  0.1280
   42CHL1  H18C 3064   5.845   2.418   6.712 -1.0013 -2.6491  0.7259
   42CHL1   C12 3065   6.033   2.118   6.683  0.3434  0.3343  0.4964
   42CHL1  H12A 3066   6.123   2.133   6.747  0.2308 -0.5311  0.8785
   42CHL1  H12B 3067   5.992   2.016   6.697 -0.3609  0.4662 -0.5660
   42CHL1   C11 3068   6.059   2.126   6.531 -0.7549 -0.3137  1.0997
   42CHL1  H11A 3069   6.112   2.220   6.506  0.1172 -1.3227 -1.0942
   42CHL1  H11B 3070   6.139   2.055   6.500 -1.3009  0.0374 -1.2283
   42CHL1    C9 3071   5.937   2.094   6.442  0.2768  0.4247  0.5266
   42CHL1    H9 3072   5.907   1.994   6.479 -0.5799  1.2867  2.1934
   42CHL1   C10 3073   5.962   2.092   6.292 -0.1437 -0.2183 -0.7957
   42CHL1   C19 3074   6.009   2.228   6.236  0.0601 -0.2585  0.2804
   42CHL1  H19A 3075   6.038   2.231   6.129  3.6412 -0.6643  1.1853
   42CHL1  H19B 3076   5.944   2.316   6.256 -0.4322 -1.0050  2.1696
   42CHL1  H19C 3077   6.108   2.247   6.283  0.7820  0.4447 -1.4875
   42CHL1    C1 3078   6.062   1.982   6.252  0.1748  0.6205 -0.1080
   42CHL1   H1A 3079   6.161   2.017   6.289  0.5447  0.4782 -0.9609
   42CHL1   H1B 3080   6.038   1.884   6.301  0.0792 -0.6976 -2.7262
   42CHL1    C2 3081   6.067   1.948   6.101  0.0598 -0.2037 -0.1489
   42CHL1   H2A 3082   6.125   1.855   6.085 -0.8928 -0.9428  0.6452
   42CHL1   H2B 3083   6.117   2.035   6.054  0.3970 -0.0533  0.4912
   42CHL1   C20 3084   5.925   2.282   6.972  0.0267 -0.1299  0.6068
   42CHL1   H20 3085   5.947   2.387   6.947 -0.0612 -0.0884  0.7039
   42CHL1   C21 3086   6.065   2.209   6.998 -0.4069 -0.2469 -0.0542
   42CHL1  H21A 3087   6.110   2.247   7.091 -1.2078 -1.4130  0.8258
   42CHL1  H21B 3088   6.132   2.237   6.914  0.8701 -0.6942  0.8112
   42CHL1  H21C 3089   6.045   2.102   7.019  0.8473 -0.6748 -0.9909
   42CHL1   C22 3090   5.829   2.279   7.088 -0.1414 -0.4501 -0.7871
   42CHL1  H22A 3091   5.749   2.354   7.069  0.1656 -0.1598 -0.9351
   42CHL1  H22B 3092   5.784   2.177   7.092 -0.3719 -0.3521 -0.8719
   42CHL1   C23 3093   5.890   2.314   7.223 -0.5884 -1.2454  0.3001
   42CHL1  H23A 3094   5.811   2.301   7.300 -0.5149 -3.2528  0.0583
   42CHL1  H23B 3095   5.972   2.242   7.243  1.6662  0.6267 -1.8061
   42CHL1   C24 3096   5.951   2.458   7.229  0.2892  0.3325  1.1498
   42CHL1  H24A 3097   6.026   2.473   7.148  1.5125  0.8872  2.3646
   42CHL1  H24B 3098   5.860   2.519   7.211  1.2416  1.2884 -0.5320
   42CHL1   C25 3099   6.027   2.503   7.362  0.0152 -0.1533 -0.3405
   42CHL1   H25 3100   5.953   2.503   7.445  2.0524 -0.7810  1.5579
   42CHL1   C26 3101   6.127   2.384   7.391  0.0382 -0.2813 -0.0517
   42CHL1  H26A 3102   6.194   2.378   7.302  3.3711  0.7728  2.2878
   42CHL1  H26B 3103   6.195   2.414   7.474 -2.7748 -2.0393  3.0090
   42CHL1  H26C 3104   6.080   2.288   7.422  2.2901 -1.5389 -0.3754
   42CHL1   C27 3105   6.103   2.630   7.332  0.9803 -0.6974 -0.7862
   42CHL1  H27A 3106   6.178   2.648   7.412 -0.2138 -1.0668  0.4472
   42CHL1  H27B 3107   6.040   2.721   7.316 -1.5753 -2.4738 -1.2156
   42CHL1  H27C 3108   6.153   2.610   7.235  1.4136 -0.1021 -0.6844
   43CHL1    C3 3109   5.457   5.436   5.907  0.0232  0.1076  0.0110
   43CHL1    H3 3110   5.508   5.343   5.873  2.3999  0.1691  3.1884
   43CHL1    O3 3111   5.423   5.506   5.790 -0.5705  0.7966  0.2536
   43CHL1   H3' 3112   5.499   5.562   5.773  0.0115 -0.1531 -0.2826
   43CHL1    C4 3113   5.323   5.399   5.980 -0.0652 -0.8300 -0.1353
   43CHL1   H4A 3114   5.254   5.486   5.979 -0.7912 -1.3994 -0.0036
   43CHL1   H4B 3115   5.263   5.329   5.917 -2.0639 -0.6267  1.4974
   43CHL1    C5 3116   5.345   5.342   6.113 -1.2939 -0.0030 -0.8420
   43CHL1    C6 3117   5.280   5.223   6.150 -0.7123  0.2315  0.3131
   43CHL1    H6 3118   5.225   5.168   6.073  1.9992 -0.8338 -0.9324
   43CHL1    C7 3119   5.292   5.162   6.287  0.0028 -0.4614  0.2853
   43CHL1   H7A 3120   5.194   5.116   6.312  0.2388 -0.7939  0.5954
   43CHL1   H7B 3121   5.369   5.082   6.286  1.1578  0.6505 -0.5789
   43CHL1    C8 3122   5.333   5.272   6.389  0.1490  0.4641  0.1229
   43CHL1    H8 3123   5.245   5.340   6.390 -1.4621 -1.5832  0.1847
   43CHL1   C14 3124   5.341   5.207   6.524  0.2849 -0.8676 -0.1409
   43CHL1   H14 3125   5.421   5.131   6.510  0.6640 -0.5002  0.0272
   43CHL1   C15 3126   5.215   5.141   6.578  0.2554  0.3025 -0.3583
   43CHL1  H15A 3127   5.120   5.197   6.572  0.5166  0.5747 -1.8965
   43CHL1  H15B 3128   5.180   5.045   6.535  0.4519  0.0211  0.0977
   43CHL1   C16 3129   5.250   5.118   6.730  0.8768 -0.0206  0.1383
   43CHL1  H16A 3130   5.155   5.139   6.784 -1.1530 -0.0470 -3.2739
   43CHL1  H16B 3131   5.284   5.014   6.747 -1.4354 -0.7930  0.2279
   43CHL1   C17 3132   5.366   5.223   6.762  0.2863  0.4816 -0.4604
   43CHL1   H17 3133   5.460   5.164   6.757  0.3713  0.6973 -1.5391
   43CHL1   C13 3134   5.378   5.309   6.635  0.1352 -0.0833 -0.4748
   43CHL1   C18 3135   5.272   5.425   6.637 -0.1440  0.2616  0.0346
   43CHL1  H18A 3136   5.292   5.480   6.542  0.6808 -0.5702 -0.2803
   43CHL1  H18B 3137   5.166   5.392   6.644  0.3743 -1.3256  0.7537
   43CHL1  H18C 3138   5.297   5.490   6.723 -1.0544 -0.3690  0.7892
   43CHL1   C12 3139   5.514   5.358   6.599  0.5919  0.3487  0.2417
   43CHL1  H12A 3140   5.560   5.418   6.680  2.0627 -0.5615  0.0915
   43CHL1  H12B 3141   5.579   5.268   6.595  1.1935  0.6617  2.3894
   43CHL1   C11 3142   5.523   5.429   6.461  0.4993 -0.6482 -0.2298
   43CHL1  H11A 3143   5.483   5.533   6.462 -0.3677 -0.9670  1.8272
   43CHL1  H11B 3144   5.629   5.438   6.430  0.6515 -0.2601  0.3929
   43CHL1    C9 3145   5.456   5.348   6.345  0.1450  0.2977  0.0965
   43CHL1    H9 3146   5.529   5.270   6.313  1.8171  1.6495  0.5038
   43CHL1   C10 3147   5.427   5.427   6.209 -0.1784 -0.9547 -0.2892
   43CHL1   C19 3148   5.349   5.563   6.236  0.7400 -0.0113  0.7772
   43CHL1  H19A 3149   5.322   5.612   6.139 -0.3676  0.6105  1.3922
   43CHL1  H19B 3150   5.257   5.548   6.295 -0.2543 -3.7365 -1.5531
   43CHL1  H19C 3151   5.416   5.633   6.291  0.5373  0.6996  0.1311
   43CHL1    C1 3152   5.561   5.461   6.140 -0.5960  0.6258 -0.7470
   43CHL1   H1A 3153   5.624   5.516   6.213 -1.1045 -0.9917  0.9502
   43CHL1   H1B 3154   5.615   5.364   6.131 -1.1699  0.3329 -1.0687
   43CHL1    C2 3155   5.546   5.521   5.997 -0.7376  0.7501  0.2209
   43CHL1   H2A 3156   5.643   5.526   5.944 -1.5748  0.8482 -1.3152
   43CHL1   H2B 3157   5.513   5.625   6.015  1.9194  1.3427  2.0106
   43CHL1   C20 3158   5.351   5.271   6.911 -0.0744 -0.8187  0.1985
   43CHL1   H20 3159   5.256   5.329   6.909  0.2608 -0.2584  0.4008
   43CHL1   C21 3160   5.458   5.365   6.942  0.3095 -0.3245  0.0202
   43CHL1  H21A 3161   5.420   5.409   7.037  1.6842 -1.0518  0.9367
   43CHL1  H21B 3162   5.450   5.450   6.871  3.4645 -0.7074 -0.8625
   43CHL1  H21C 3163   5.559   5.320   6.937  1.4385  1.9634  1.3189
   43CHL1   C22 3164   5.339   5.156   7.013 -0.1421 -0.4738  0.1080
   43CHL1  H22A 3165   5.255   5.090   6.983 -0.2685 -0.0360 -0.5295
   43CHL1  H22B 3166   5.433   5.099   7.000 -0.4310 -0.3097 -3.3462
   43CHL1   C23 3167   5.313   5.195   7.158  0.1716  0.3086 -0.5898
   43CHL1  H23A 3168   5.398   5.245   7.209 -0.4870  0.4801  0.3551
   43CHL1  H23B 3169   5.230   5.268   7.158  0.8018  1.0476 -1.8732
   43CHL1   C24 3170   5.293   5.072   7.248 -0.1767  0.0305  0.5614
   43CHL1  H24A 3171   5.194   5.022   7.239  0.4989 -1.5041  1.4892
   43CHL1  H24B 3172   5.366   4.991   7.224  0.1719 -0.1206  2.0967
   43CHL1   C25 3173   5.320   5.118   7.394 -0.4207  0.7794 -0.2038
   43CHL1   H25 3174   5.426   5.150   7.405 -0.8013  1.5740  1.2468
   43CHL1   C26 3175   5.235   5.240   7.433 -0.1066 -0.0287 -0.0430
   43CHL1  H26A 3176   5.134   5.225   7.391 -0.8231  1.9520  0.9005
   43CHL1  H26B 3177   5.228   5.243   7.544 -1.0181 -1.0024 -0.0662
   43CHL1  H26C 3178   5.278   5.334   7.392 -0.0917 -0.1005 -0.1921
   43CHL1   C27 3179   5.289   4.999   7.482  0.0331  0.3497  0.1276
   43CHL1  H27A 3180   5.183   4.966   7.486 -0.4942  1.9939 -0.2667
   43CHL1  H27B 3181   5.362   4.922   7.449 -1.0005  0.0228 -1.4417
   43CHL1  H27C 3182   5.318   5.030   7.585 -1.2224  2.9272 -0.2524
   44CHL1    C3 3183   6.431   4.241   6.093  0.0157 -0.6638 -0.2435
   44CHL1    H3 3184   6.342   4.307   6.084  0.9000  0.6484  0.3330
   44CHL1    O3 3185   6.486   4.220   5.971 -0.0042  0.7206  0.4522
   44CHL1   H3' 3186   6.567   4.171   5.990  0.1551  2.1348  3.6618
   44CHL1    C4 3187   6.534   4.311   6.190  0.6984  0.4015  0.4608
   44CHL1   H4A 3188   6.632   4.259   6.180 -0.6708 -2.0113 -0.9258
   44CHL1   H4B 3189   6.562   4.404   6.137  0.2089  1.0329  1.3035
   44CHL1    C5 3190   6.484   4.319   6.330 -0.4656 -0.0130 -0.0448
   44CHL1    C6 3191   6.474   4.439   6.393  0.4258  0.3881  0.4501
   44CHL1    H6 3192   6.497   4.537   6.348  1.2180 -0.3273 -0.7477
   44CHL1    C7 3193   6.439   4.451   6.538  0.3834  0.7847 -0.3676
   44CHL1   H7A 3194   6.501   4.522   6.596 -0.1267  0.1429  0.9761
   44CHL1   H7B 3195   6.334   4.488   6.544  0.6408  1.4841 -0.2107
   44CHL1    C8 3196   6.450   4.315   6.616 -0.4854 -0.6589 -0.3364
   44CHL1    H8 3197   6.559   4.300   6.627 -0.4060 -1.5046 -2.0557
   44CHL1   C14 3198   6.391   4.314   6.757 -0.2186 -0.6839  0.1041
   44CHL1   H14 3199   6.281   4.335   6.753 -0.3736 -1.1347  1.6011
   44CHL1   C15 3200   6.451   4.423   6.845  0.1851 -0.3252  0.1526
   44CHL1  H15A 3201   6.562   4.422   6.839  0.1853 -0.4023  0.1584
   44CHL1  H15B 3202   6.407   4.521   6.815 -1.2549 -1.2179 -0.6995
   44CHL1   C16 3203   6.399   4.383   6.983  0.5709 -0.1426  0.0133
   44CHL1  H16A 3204   6.482   4.399   7.054 -0.0720  1.6061  0.3928
   44CHL1  H16B 3205   6.325   4.455   7.024 -0.6189 -0.9000 -0.7408
   44CHL1   C17 3206   6.346   4.238   6.973  0.4649  0.1393 -0.6878
   44CHL1   H17 3207   6.236   4.246   6.968  0.3925 -1.8042 -2.6348
   44CHL1   C13 3208   6.397   4.189   6.839 -1.0269  0.3693  0.1243
   44CHL1   C18 3209   6.550   4.145   6.851 -0.8188 -0.3427  0.6766
   44CHL1  H18A 3210   6.603   4.142   6.753  0.7492 -0.7900  1.5215
   44CHL1  H18B 3211   6.609   4.214   6.914 -0.5604  1.7005 -1.7410
   44CHL1  H18C 3212   6.559   4.036   6.873 -1.1963 -0.8009 -1.3462
   44CHL1   C12 3213   6.317   4.079   6.760 -0.1891  0.1815 -0.1438
   44CHL1  H12A 3214   6.329   3.983   6.816 -3.1096  0.6663  1.4012
   44CHL1  H12B 3215   6.211   4.104   6.742 -0.2465 -0.3691 -0.5542
   44CHL1   C11 3216   6.376   4.064   6.618 -0.8738 -1.2309 -0.1658
   44CHL1  H11A 3217   6.476   4.017   6.630 -0.4751 -0.5767 -0.9379
   44CHL1  H11B 3218   6.305   4.003   6.559 -1.3000 -0.1532 -0.7724
   44CHL1    C9 3219   6.387   4.201   6.537 -0.3416  0.7062 -0.5678
   44CHL1    H9 3220   6.277   4.216   6.531 -0.8415 -2.2090  0.5475
   44CHL1   C10 3221   6.454   4.183   6.392 -1.0888 -0.3592  0.4907
   44CHL1   C19 3222   6.586   4.097   6.408  0.1865 -0.2625  0.0043
   44CHL1  H19A 3223   6.628   4.067   6.309 -0.6408 -0.5762 -0.2626
   44CHL1  H19B 3224   6.652   4.163   6.469  1.9438 -0.1500 -1.9483
   44CHL1  H19C 3225   6.572   3.996   6.452  1.5293 -0.7128 -0.5676
   44CHL1    C1 3226   6.359   4.108   6.298 -0.2178 -0.0283  0.8622
   44CHL1   H1A 3227   6.333   4.013   6.349 -0.9638  2.0872  4.6139
   44CHL1   H1B 3228   6.258   4.153   6.300 -1.3845 -2.4144 -1.0749
   44CHL1    C2 3229   6.407   4.102   6.155 -0.1890 -0.1690 -0.3196
   44CHL1   H2A 3230   6.324   4.051   6.102  1.2541  0.0833 -2.9376
   44CHL1   H2B 3231   6.501   4.045   6.148 -0.3454 -0.3742 -0.7817
   44CHL1   C20 3232   6.384   4.154   7.100 -0.2874  0.3933  0.1010
   44CHL1   H20 3233   6.495   4.162   7.105 -0.4336  3.9094 -1.1051
   44CHL1   C21 3234   6.332   4.010   7.079  0.0726 -0.4037  0.4280
   44CHL1  H21A 3235   6.289   3.968   7.173 -0.9541  0.5182  0.3871
   44CHL1  H21B 3236   6.407   3.947   7.027 -0.4300 -0.4915 -0.2000
   44CHL1  H21C 3237   6.244   4.021   7.011  1.0236  1.9643 -0.4781
   44CHL1   C22 3238   6.325   4.204   7.238 -0.0085 -0.0906 -0.7971
   44CHL1  H22A 3239   6.354   4.311   7.236 -0.7314  0.1137 -0.5633
   44CHL1  H22B 3240   6.216   4.196   7.255  0.4006  0.6168  2.3082
   44CHL1   C23 3241   6.390   4.148   7.365  0.3092 -0.6581 -0.3109
   44CHL1  H23A 3242   6.362   4.041   7.362 -0.2874 -0.6736  3.2141
   44CHL1  H23B 3243   6.500   4.163   7.363  0.0387  1.3281 -2.3361
   44CHL1   C24 3244   6.347   4.201   7.503  0.3000 -0.7971  0.4699
   44CHL1  H24A 3245   6.376   4.307   7.519 -2.7073  0.1323  0.1247
   44CHL1  H24B 3246   6.238   4.180   7.500 -0.3430  2.5551 -3.3743
   44CHL1   C25 3247   6.417   4.132   7.627  0.2621  0.0899 -0.1774
   44CHL1   H25 3248   6.423   4.023   7.607 -1.2566  0.0353 -0.4346
   44CHL1   C26 3249   6.558   4.187   7.658 -0.8392 -0.1522 -0.1248
   44CHL1  H26A 3250   6.617   4.200   7.565 -2.8646  0.8292 -1.3147
   44CHL1  H26B 3251   6.553   4.286   7.709  0.1758 -0.1485 -0.0382
   44CHL1  H26C 3252   6.618   4.126   7.729 -0.3834  0.3507 -0.0793
   44CHL1   C27 3253   6.326   4.146   7.750 -0.1400 -0.1870 -0.3900
   44CHL1  H27A 3254   6.324   4.063   7.824  2.0562 -0.4074 -0.5249
   44CHL1  H27B 3255   6.355   4.235   7.809 -0.6358  0.2840 -0.8580
   44CHL1  H27C 3256   6.224   4.153   7.707 -0.5480  1.9832  0.8473
   45CHL1    C3 3257   1.366   1.959   6.153  1.2523 -0.6399  0.3832
   45CHL1    H3 3258   1.450   2.028   6.175  0.9984 -0.4301  0.6974
   45CHL1    O3 3259   1.364   1.950   6.012 -0.7005  0.2143 -0.5643
   45CHL1   H3' 3260   1.346   1.859   5.990  2.8503 -0.1411 -2.3674
   45CHL1    C4 3261   1.395   1.825   6.224 -0.8620 -0.8371 -0.2399
   45CHL1   H4A 3262   1.323   1.743   6.205 -2.2301  0.0460  1.0732
   45CHL1   H4B 3263   1.480   1.774   6.173  1.4600  0.4780  2.1832
   45CHL1    C5 3264   1.418   1.830   6.368 -0.0110 -0.2551  0.4454
   45CHL1    C6 3265   1.528   1.786   6.426  0.1025  0.8256 -0.0673
   45CHL1    H6 3266   1.600   1.734   6.360  0.9288  0.6599  0.9335
   45CHL1    C7 3267   1.568   1.792   6.574 -0.1491 -0.0220  0.8608
   45CHL1   H7A 3268   1.618   1.697   6.602  1.0703  0.4278  0.2665
   45CHL1   H7B 3269   1.648   1.869   6.583 -1.5398  2.3184 -4.6201
   45CHL1    C8 3270   1.445   1.841   6.648  0.0602  0.5174 -0.4320
   45CHL1    H8 3271   1.383   1.750   6.659 -2.1844  2.0135 -0.2866
   45CHL1   C14 3272   1.476   1.871   6.797 -0.1704  0.0195  0.3029
   45CHL1   H14 3273   1.541   1.961   6.797  0.0566 -0.1358  1.2907
   45CHL1   C15 3274   1.562   1.766   6.872 -0.5610  0.0213  0.3309
   45CHL1  H15A 3275   1.528   1.662   6.852  1.3497 -0.6991  0.7144
   45CHL1  H15B 3276   1.666   1.786   6.838 -2.1614  4.2698 -2.4769
   45CHL1   C16 3277   1.539   1.805   7.023  0.1491 -0.0858  0.4340
   45CHL1  H16A 3278   1.499   1.715   7.074  2.5235 -1.9663 -0.9587
   45CHL1  H16B 3279   1.626   1.848   7.076 -0.6103  1.5733  0.3948
   45CHL1   C17 3280   1.433   1.914   7.029  0.2691  0.3628 -0.1114
   45CHL1   H17 3281   1.483   2.013   7.022 -0.8875  0.9445 -0.1987
   45CHL1   C13 3282   1.360   1.911   6.893 -0.2137 -0.4235  0.5553
   45CHL1   C18 3283   1.247   1.796   6.898  1.3682 -0.1876 -0.5259
   45CHL1  H18A 3284   1.290   1.697   6.926 -3.3110 -1.5009  2.5024
   45CHL1  H18B 3285   1.175   1.828   6.976 -0.4722 -0.7423 -1.9496
   45CHL1  H18C 3286   1.195   1.790   6.800  1.9682 -0.5638 -0.8261
   45CHL1   C12 3287   1.302   2.035   6.825 -0.0442  0.8279  0.4078
   45CHL1  H12A 3288   1.211   2.063   6.881 -0.0363 -1.0304  1.3795
   45CHL1  H12B 3289   1.365   2.126   6.838 -0.2052  0.8408  1.1507
   45CHL1   C11 3290   1.262   2.018   6.674  0.1820 -0.5337  0.0403
   45CHL1  H11A 3291   1.162   1.969   6.679 -0.4886  0.8589  0.2873
   45CHL1  H11B 3292   1.221   2.111   6.630  1.7397  0.1589  0.0022
   45CHL1    C9 3293   1.369   1.956   6.582  0.5371 -0.2648  0.5190
   45CHL1    H9 3294   1.444   2.036   6.561  0.7757 -0.4473  0.6641
   45CHL1   C10 3295   1.311   1.915   6.440 -0.1515 -0.0134 -0.1115
   45CHL1   C19 3296   1.188   1.822   6.464  0.7424  0.3066  0.1891
   45CHL1  H19A 3297   1.100   1.876   6.506 -1.1119 -1.4820 -1.3409
   45CHL1  H19B 3298   1.161   1.758   6.378  0.2582  0.1514  0.4521
   45CHL1  H19C 3299   1.224   1.756   6.546  1.4712  1.6875  1.0146
   45CHL1    C1 3300   1.269   2.040   6.364  0.5094 -0.2850  0.2691
   45CHL1   H1A 3301   1.189   2.099   6.414 -0.7967 -1.5998 -0.2396
   45CHL1   H1B 3302   1.357   2.107   6.371 -0.6326  1.1788  0.8588
   45CHL1    C2 3303   1.246   2.027   6.213 -0.1374 -0.0764 -0.2184
   45CHL1   H2A 3304   1.235   2.134   6.183  0.8157  0.1823  0.3257
   45CHL1   H2B 3305   1.156   1.964   6.195 -0.8641  0.1407  2.5164
   45CHL1   C20 3306   1.352   1.927   7.155 -0.2138 -0.6761  0.1621
   45CHL1   H20 3307   1.256   1.978   7.131 -0.4139 -0.6649  0.9891
   45CHL1   C21 3308   1.422   2.031   7.246  0.0343  0.8346  0.2245
   45CHL1  H21A 3309   1.520   1.982   7.269 -0.6372 -0.9369 -0.5663
   45CHL1  H21B 3310   1.369   2.047   7.342 -1.7276 -0.3803 -0.5275
   45CHL1  H21C 3311   1.459   2.122   7.195  0.6694 -0.0117 -0.8676
   45CHL1   C22 3312   1.308   1.788   7.226 -1.0821  0.5975 -0.3703
   45CHL1  H22A 3313   1.270   1.715   7.152 -0.7990 -1.3785  1.3803
   45CHL1  H22B 3314   1.404   1.743   7.259 -0.8555 -0.5123 -2.4443
   45CHL1   C23 3315   1.221   1.808   7.354 -0.0330 -0.0209  0.3202
   45CHL1  H23A 3316   1.238   1.911   7.392  0.6316  0.4343 -1.1896
   45CHL1  H23B 3317   1.112   1.809   7.332  0.0738  1.0342 -0.1830
   45CHL1   C24 3318   1.236   1.707   7.469  0.0015  0.3974 -0.9607
   45CHL1  H24A 3319   1.217   1.605   7.429 -1.0310  0.0027  0.4687
   45CHL1  H24B 3320   1.338   1.713   7.514 -0.3162 -3.3782  0.4651
   45CHL1   C25 3321   1.133   1.719   7.585  0.2143  0.7150  0.2126
   45CHL1   H25 3322   1.029   1.708   7.547  0.9336  0.0043 -1.6442
   45CHL1   C26 3323   1.154   1.609   7.695 -0.1230  1.1894 -0.2552
   45CHL1  H26A 3324   1.260   1.588   7.719  0.0634  1.3638 -0.9009
   45CHL1  H26B 3325   1.101   1.630   7.790 -2.1277 -0.3594 -0.9941
   45CHL1  H26C 3326   1.111   1.513   7.659  2.6441 -0.3862  0.5231
   45CHL1   C27 3327   1.143   1.857   7.644 -0.2495  0.9684  0.0949
   45CHL1  H27A 3328   1.246   1.890   7.673 -0.8915  1.2769  2.0966
   45CHL1  H27B 3329   1.108   1.938   7.577 -1.8974  1.5072  1.5892
   45CHL1  H27C 3330   1.088   1.853   7.740 -0.0049 -0.2727  0.1938
   46CHL1    C3 3331   0.061   3.787   6.089  0.3316  0.1239 -0.1419
   46CHL1    H3 3332   0.008   3.690   6.102 -2.1077  1.3185 -0.8448
   46CHL1    O3 3333   0.011   3.838   5.965  0.2031  0.1175 -0.6901
   46CHL1   H3' 3334   0.070   3.911   5.944  1.4690 -0.8174 -0.4369
   46CHL1    C4 3335   0.031   3.888   6.203 -0.0573  0.8276 -0.6351
   46CHL1   H4A 3336   0.070   3.988   6.174 -1.7896  1.2085 -1.7073
   46CHL1   H4B 3337  -0.080   3.897   6.206  0.0800  1.9994  1.4899
   46CHL1    C5 3338   0.093   3.833   6.327 -0.2087 -0.2972  0.1591
   46CHL1    C6 3339   0.027   3.828   6.442 -0.3025  0.5744  0.5635
   46CHL1    H6 3340  -0.075   3.869   6.432 -0.1871  0.4093 -1.4020
   46CHL1    C7 3341   0.084   3.788   6.575 -0.6948 -0.1403  0.2179
   46CHL1   H7A 3342   0.054   3.864   6.650 -0.3265 -1.3747  1.6408
   46CHL1   H7B 3343   0.039   3.690   6.599  0.3125 -0.4618  0.8453
   46CHL1    C8 3344   0.242   3.784   6.574 -0.0046 -0.0081 -0.7706
   46CHL1    H8 3345   0.278   3.889   6.571 -2.1174  0.6984 -3.5019
   46CHL1   C14 3346   0.287   3.705   6.690 -0.2023 -0.8624 -0.1430
   46CHL1   H14 3347   0.244   3.604   6.673  0.4874 -1.4575  1.5739
   46CHL1   C15 3348   0.240   3.743   6.830 -0.4096 -0.4391  0.0461
   46CHL1  H15A 3349   0.271   3.846   6.857  0.2547 -0.4175 -0.7949
   46CHL1  H15B 3350   0.130   3.732   6.837 -0.4814 -0.6421 -1.2176
   46CHL1   C16 3351   0.325   3.658   6.923  0.1916 -0.0908  0.4163
   46CHL1  H16A 3352   0.354   3.699   7.022 -1.9601 -1.2918  1.5874
   46CHL1  H16B 3353   0.273   3.562   6.940  0.1213  0.1186  1.4402
   46CHL1   C17 3354   0.452   3.621   6.839 -0.6142 -0.4209 -0.2274
   46CHL1   H17 3355   0.430   3.522   6.792  4.2180 -1.4791 -0.5148
   46CHL1   C13 3356   0.442   3.703   6.706  0.3801  0.3370  0.5081
   46CHL1   C18 3357   0.506   3.842   6.718  0.9098 -0.7625 -0.7430
   46CHL1  H18A 3358   0.615   3.839   6.739  0.7722 -3.5542 -0.2979
   46CHL1  H18B 3359   0.479   3.903   6.629  0.8905  2.0072  1.1063
   46CHL1  H18C 3360   0.454   3.892   6.802 -1.4985 -0.6583 -2.2402
   46CHL1   C12 3361   0.493   3.628   6.580 -0.0395 -0.4316  0.5495
   46CHL1  H12A 3362   0.604   3.622   6.581 -0.0152 -0.3461 -0.8366
   46CHL1  H12B 3363   0.435   3.534   6.578  1.7379 -1.5895  1.4427
   46CHL1   C11 3364   0.450   3.696   6.454  0.0926 -0.3835  0.3271
   46CHL1  H11A 3365   0.514   3.785   6.435 -0.5640 -0.1080 -0.6602
   46CHL1  H11B 3366   0.474   3.621   6.376 -0.4260  0.9129 -1.1134
   46CHL1    C9 3367   0.297   3.725   6.445 -0.0396 -0.7763  0.3530
   46CHL1    H9 3368   0.245   3.629   6.427 -1.5638 -0.4050  2.5080
   46CHL1   C10 3369   0.242   3.800   6.317  0.0499  0.2892 -0.6091
   46CHL1   C19 3370   0.327   3.934   6.296  0.0361  0.1433  0.3156
   46CHL1  H19A 3371   0.297   4.009   6.372 -0.5957 -0.5729  0.7772
   46CHL1  H19B 3372   0.437   3.925   6.301  0.1272  1.8221  2.1462
   46CHL1  H19C 3373   0.293   3.984   6.202  0.0376  0.6089  0.5588
   46CHL1    C1 3374   0.267   3.709   6.199  0.1158 -0.2628  0.5289
   46CHL1   H1A 3375   0.376   3.693   6.183  0.1716 -1.6653  2.0971
   46CHL1   H1B 3376   0.224   3.607   6.211  0.0452 -0.2059  0.7618
   46CHL1    C2 3377   0.212   3.758   6.069 -0.3264  0.6709 -0.4595
   46CHL1   H2A 3378   0.222   3.679   5.992  0.9839 -0.9895  1.3944
   46CHL1   H2B 3379   0.273   3.846   6.038 -1.4153  2.4291  2.1316
   46CHL1   C20 3380   0.588   3.620   6.899 -0.0421 -0.0283  0.5240
   46CHL1   H20 3381   0.659   3.628   6.815  0.1838  1.6296  0.8581
   46CHL1   C21 3382   0.605   3.476   6.953  0.0916 -0.6307  0.3120
   46CHL1  H21A 3383   0.512   3.450   7.007  0.7943 -0.3435  1.6961
   46CHL1  H21B 3384   0.693   3.473   7.021  0.3773 -0.1486 -0.0294
   46CHL1  H21C 3385   0.621   3.418   6.860  1.1248 -0.4464  0.3609
   46CHL1   C22 3386   0.627   3.735   6.997  0.2530 -0.8073 -0.0591
   46CHL1  H22A 3387   0.603   3.835   6.955  0.1882 -1.2248 -1.0411
   46CHL1  H22B 3388   0.559   3.727   7.085  1.6326  1.2809  1.2435
   46CHL1   C23 3389   0.773   3.739   7.026 -0.8340 -0.4445  0.3302
   46CHL1  H23A 3390   0.816   3.644   7.063  0.1908  0.4833  1.5534
   46CHL1  H23B 3391   0.816   3.761   6.926  0.2254  1.8259  1.2416
   46CHL1   C24 3392   0.814   3.840   7.136 -0.2402  0.6709  0.3234
   46CHL1  H24A 3393   0.802   3.946   7.106 -0.1468  0.4223 -0.5962
   46CHL1  H24B 3394   0.751   3.830   7.227 -1.8459  2.4336 -0.5565
   46CHL1   C25 3395   0.963   3.828   7.170  0.2053 -0.0548 -0.0396
   46CHL1   H25 3396   0.969   3.717   7.173 -3.3008 -0.3606 -1.3972
   46CHL1   C26 3397   1.041   3.875   7.047 -0.3053 -0.2878 -0.3172
   46CHL1  H26A 3398   1.012   3.835   6.948  0.7240 -0.3184 -0.6102
   46CHL1  H26B 3399   1.011   3.981   7.035  0.5424  0.0501  0.4772
   46CHL1  H26C 3400   1.152   3.868   7.058 -0.1709  0.5846 -1.0711
   46CHL1   C27 3401   0.996   3.899   7.303 -0.3218 -0.3495 -0.5211
   46CHL1  H27A 3402   0.982   4.005   7.271  0.0550  0.0338  0.5743
   46CHL1  H27B 3403   0.927   3.868   7.384  2.3901  0.2374  2.1026
   46CHL1  H27C 3404   1.102   3.884   7.334 -1.2194 -1.3630  2.2043
   47CHL1    C3 3405   6.920   4.284   6.167 -0.5371 -0.0198 -0.2869
   47CHL1    H3 3406   6.837   4.223   6.209  1.3387 -1.2986  1.6500
   47CHL1    O3 3407   6.888   4.298   6.028 -0.5462 -0.3084 -0.2318
   47CHL1   H3' 3408   6.952   4.363   5.999  1.2880 -1.8860  0.2040
   47CHL1    C4 3409   6.919   4.413   6.245  0.4834  0.1251  0.3765
   47CHL1   H4A 3410   6.994   4.476   6.193 -2.0490  3.3564  0.4751
   47CHL1   H4B 3411   6.819   4.460   6.235  0.1986 -0.2982  1.1240
   47CHL1    C5 3412   6.951   4.394   6.391 -0.1527  0.0475 -0.1179
   47CHL1    C6 3413   6.865   4.429   6.485  0.2346  0.5315  0.0183
   47CHL1    H6 3414   6.775   4.486   6.457 -0.2599  0.1184  0.7588
   47CHL1    C7 3415   6.883   4.411   6.632  0.6353 -0.2499 -0.2259
   47CHL1   H7A 3416   6.857   4.506   6.682  0.3857 -0.2531 -0.3498
   47CHL1   H7B 3417   6.805   4.335   6.653 -3.6826  3.2967 -2.5412
   47CHL1    C8 3418   7.028   4.374   6.680 -0.0080  0.4395  0.4293
   47CHL1    H8 3419   7.078   4.472   6.666  2.5043 -0.7265  0.9719
   47CHL1   C14 3420   7.035   4.310   6.814  0.0879  0.0522  0.6296
   47CHL1   H14 3421   6.967   4.222   6.817  1.3012 -0.8968  0.9305
   47CHL1   C15 3422   6.973   4.393   6.930 -0.2110 -0.2842 -0.0524
   47CHL1  H15A 3423   7.007   4.495   6.902 -0.6744  1.3306  4.8863
   47CHL1  H15B 3424   6.862   4.389   6.936 -0.1530 -1.8036  0.1162
   47CHL1   C16 3425   7.043   4.328   7.051  0.1941  0.3612 -0.9966
   47CHL1  H16A 3426   7.089   4.416   7.101  2.3396  0.0063 -2.2754
   47CHL1  H16B 3427   6.980   4.273   7.124  1.4139  1.0495  0.6231
   47CHL1   C17 3428   7.158   4.235   7.007  0.1036 -0.0157 -0.0008
   47CHL1   H17 3429   7.112   4.133   7.008  1.8659 -0.8878 -2.9456
   47CHL1   C13 3430   7.171   4.267   6.856  0.0205  0.1296  0.3484
   47CHL1   C18 3431   7.263   4.389   6.864 -0.7150  0.0111  0.1746
   47CHL1  H18A 3432   7.365   4.353   6.888 -0.5254 -0.3186 -1.1249
   47CHL1  H18B 3433   7.268   4.439   6.765  1.4774 -2.8806 -1.2481
   47CHL1  H18C 3434   7.239   4.471   6.935  1.3588  0.6837  0.1179
   47CHL1   C12 3435   7.230   4.154   6.762  0.1550 -0.0246  0.5163
   47CHL1  H12A 3436   7.335   4.145   6.800  0.0120  2.3518  1.6251
   47CHL1  H12B 3437   7.169   4.063   6.775 -0.4339  0.2849 -0.0918
   47CHL1   C11 3438   7.224   4.213   6.623 -0.2158 -0.0850  0.0795
   47CHL1  H11A 3439   7.301   4.292   6.609  0.0027  0.0279  1.8136
   47CHL1  H11B 3440   7.257   4.146   6.540  1.0355 -2.6043  2.5117
   47CHL1    C9 3441   7.081   4.269   6.579 -0.8582  0.0740 -0.0625
   47CHL1    H9 3442   7.014   4.181   6.581  0.3775 -0.9288 -1.3159
   47CHL1   C10 3443   7.073   4.304   6.426 -0.2708 -0.3183 -0.0063
   47CHL1   C19 3444   7.194   4.390   6.386  0.5133  0.7935  0.1901
   47CHL1  H19A 3445   7.197   4.483   6.448  0.9870  0.5432  0.5412
   47CHL1  H19B 3446   7.291   4.343   6.411  1.0803  1.0051 -1.5947
   47CHL1  H19C 3447   7.195   4.435   6.285 -0.2738 -2.4096 -1.2819
   47CHL1    C1 3448   7.073   4.173   6.339 -0.1285 -0.2965 -0.7478
   47CHL1   H1A 3449   7.162   4.110   6.357 -0.8602 -0.4714  2.4665
   47CHL1   H1B 3450   6.989   4.119   6.387  0.2699  1.4417  2.0170
   47CHL1    C2 3451   7.044   4.200   6.191 -0.5836  0.4046 -0.0658
   47CHL1   H2A 3452   7.035   4.099   6.145  1.4475  0.8659 -1.5954
   47CHL1   H2B 3453   7.131   4.241   6.135  0.1327  0.0909  0.7967
   47CHL1   C20 3454   7.277   4.219   7.107  0.6922 -1.2402  0.2297
   47CHL1   H20 3455   7.337   4.312   7.112 -0.8439 -0.2628  1.0074
   47CHL1   C21 3456   7.372   4.111   7.061  0.4775  0.2749 -0.0171
   47CHL1  H21A 3457   7.452   4.100   7.138  0.7254 -1.0121 -0.4327
   47CHL1  H21B 3458   7.425   4.146   6.970 -1.1479  0.8760 -0.7340
   47CHL1  H21C 3459   7.323   4.012   7.049  3.3621 -1.1244 -0.9336
   47CHL1   C22 3460   7.229   4.193   7.252 -0.2576  0.5506  0.0940
   47CHL1  H22A 3461   7.148   4.263   7.282 -0.2652 -0.5217  2.6449
   47CHL1  H22B 3462   7.186   4.091   7.256  2.1612 -0.4253  1.6851
   47CHL1   C23 3463   7.342   4.208   7.356 -0.0273 -0.6828  0.5644
   47CHL1  H23A 3464   7.429   4.146   7.324  0.7617  1.8308 -2.4309
   47CHL1  H23B 3465   7.360   4.315   7.380 -1.0345 -0.5327  0.6656
   47CHL1   C24 3466   7.297   4.155   7.489 -0.3009  0.7307 -0.0941
   47CHL1  H24A 3467   7.286   4.046   7.474  0.2860  0.3481  2.0549
   47CHL1  H24B 3468   7.375   4.165   7.568  0.5309  0.5441 -0.8859
   47CHL1   C25 3469   7.164   4.213   7.552  0.3966 -0.5753  0.0190
   47CHL1   H25 3470   7.085   4.181   7.480  0.3465  0.2549 -0.3071
   47CHL1   C26 3471   7.138   4.148   7.692 -0.0856 -0.0158  0.6143
   47CHL1  H26A 3472   7.224   4.155   7.761  1.3209 -0.3465 -1.0641
   47CHL1  H26B 3473   7.052   4.202   7.738 -0.7711  0.9783 -1.7249
   47CHL1  H26C 3474   7.104   4.044   7.674 -0.8551  0.1376  1.1312
   47CHL1   C27 3475   7.180   4.360   7.574  0.7140 -0.3007 -0.1339
   47CHL1  H27A 3476   7.262   4.393   7.642 -0.1520  1.5745  0.0273
   47CHL1  H27B 3477   7.199   4.412   7.477 -0.1596 -0.6536 -0.5020
   47CHL1  H27C 3478   7.089   4.409   7.613 -0.1154  0.4072 -2.8091
   48CHL1    C3 3479   3.258   6.614   6.115 -0.3811 -0.4920  0.6929
   48CHL1    H3 3480   3.341   6.670   6.165 -0.5217  1.1952 -0.9088
   48CHL1    O3 3481   3.289   6.623   5.977  0.2173 -0.7240 -0.4497
   48CHL1   H3' 3482   3.229   6.562   5.934 -0.1760  1.0744 -2.5722
   48CHL1    C4 3483   3.249   6.468   6.151  0.0924  0.2463 -0.3455
   48CHL1   H4A 3484   3.164   6.420   6.097 -0.2702 -0.0451  0.4746
   48CHL1   H4B 3485   3.344   6.425   6.114 -0.7943 -0.1496 -2.2357
   48CHL1    C5 3486   3.217   6.452   6.299  0.1919 -0.3990 -0.0522
   48CHL1    C6 3487   3.293   6.373   6.376  0.2164  0.6437 -0.2081
   48CHL1    H6 3488   3.367   6.316   6.318 -1.0722  0.6311 -1.8889
   48CHL1    C7 3489   3.284   6.358   6.525 -0.3180  0.2849 -0.5038
   48CHL1   H7A 3490   3.303   6.256   6.565 -1.7436  0.2637  0.1918
   48CHL1   H7B 3491   3.359   6.418   6.580  0.4207 -0.4072 -0.7574
   48CHL1    C8 3492   3.138   6.405   6.565 -0.3891 -0.4087 -0.1596
   48CHL1    H8 3493   3.063   6.337   6.521  0.5613 -0.8684 -1.0698
   48CHL1   C14 3494   3.127   6.400   6.714 -0.7029 -0.6427 -0.4113
   48CHL1   H14 3495   3.200   6.479   6.741 -1.0542  0.4623 -2.5194
   48CHL1   C15 3496   3.173   6.275   6.790  0.0576 -0.7114  0.0442
   48CHL1  H15A 3497   3.109   6.186   6.769 -1.2951 -0.0127  1.1032
   48CHL1  H15B 3498   3.281   6.250   6.789  0.2801  0.2898 -1.2110
   48CHL1   C16 3499   3.140   6.324   6.931 -0.0645  0.2002  0.2106
   48CHL1  H16A 3500   3.087   6.236   6.972  1.1450 -0.8768 -0.5052
   48CHL1  H16B 3501   3.229   6.340   6.994  0.5515  1.7927 -1.0087
   48CHL1   C17 3502   3.050   6.445   6.929 -0.1345  0.0819  0.0797
   48CHL1   H17 3503   3.122   6.524   6.960 -1.8959  1.5292  0.5843
   48CHL1   C13 3504   3.007   6.460   6.783 -0.0801 -0.4222  0.0383
   48CHL1   C18 3505   2.885   6.370   6.765  0.0002  0.2221 -0.0485
   48CHL1  H18A 3506   2.889   6.268   6.808  0.2199 -0.2554 -1.1889
   48CHL1  H18B 3507   2.797   6.424   6.806 -0.0111  0.7319 -0.7255
   48CHL1  H18C 3508   2.865   6.344   6.658  0.8544 -0.8202  0.0315
   48CHL1   C12 3509   2.987   6.603   6.730  0.5508  0.5398 -0.2856
   48CHL1  H12A 3510   2.888   6.642   6.761  0.1348 -0.5281 -0.2435
   48CHL1  H12B 3511   3.067   6.678   6.747  1.5596 -0.5591 -0.1356
   48CHL1   C11 3512   2.975   6.608   6.570  0.1680 -0.1406  0.2460
   48CHL1  H11A 3513   2.891   6.545   6.533  1.1446 -2.5446  2.0230
   48CHL1  H11B 3514   2.962   6.712   6.534 -2.8963 -0.2569  0.8956
   48CHL1    C9 3515   3.107   6.543   6.511  0.1159  0.1812 -0.4168
   48CHL1    H9 3516   3.185   6.609   6.553  0.8530 -0.9062 -0.0517
   48CHL1   C10 3517   3.110   6.546   6.362 -0.3394  0.2021 -0.0275
   48CHL1   C19 3518   2.978   6.479   6.300  0.3949  0.4955 -0.0652
   48CHL1  H19A 3519   2.892   6.550   6.308 -0.6272 -0.8727  1.5419
   48CHL1  H19B 3520   2.987   6.474   6.190  0.5822 -0.1880 -0.0191
   48CHL1  H19C 3521   2.971   6.377   6.345  0.1890  1.2844  1.7449
   48CHL1    C1 3522   3.120   6.684   6.304 -0.1756  0.3502 -0.1751
   48CHL1   H1A 3523   3.041   6.757   6.331  0.4627  1.0144 -0.0537
   48CHL1   H1B 3524   3.216   6.727   6.342  0.5551 -0.5514 -0.9716
   48CHL1    C2 3525   3.135   6.693   6.147  0.2896 -0.5171 -0.4023
   48CHL1   H2A 3526   3.133   6.803   6.128  1.8065 -0.3628  0.2609
   48CHL1   H2B 3527   3.042   6.653   6.102 -0.5682 -0.4319  1.2527
   48CHL1   C20 3528   2.950   6.449   7.050 -0.1430  0.2794 -0.6137
   48CHL1   H20 3529   2.859   6.387   7.034  0.1228 -0.3388  0.1938
   48CHL1   C21 3530   2.907   6.592   7.044 -0.5275 -0.3641  0.5036
   48CHL1  H21A 3531   2.827   6.622   7.115 -1.1190  2.8640 -1.4283
   48CHL1  H21B 3532   2.883   6.629   6.942  0.3645  3.2204  1.5194
   48CHL1  H21C 3533   3.000   6.646   7.073  0.2663  0.1930 -2.8935
   48CHL1   C22 3534   3.027   6.412   7.185 -0.0984  0.1604  0.4216
   48CHL1  H22A 3535   3.060   6.306   7.184 -0.8180 -0.0704 -0.0647
   48CHL1  H22B 3536   3.113   6.480   7.203 -0.2690  0.3425  0.5632
   48CHL1   C23 3537   2.939   6.429   7.311  0.0751  0.5390  0.3200
   48CHL1  H23A 3538   2.889   6.528   7.301  0.6743  0.5866 -2.8865
   48CHL1  H23B 3539   2.855   6.357   7.318  1.3953 -1.0195  0.5472
   48CHL1   C24 3540   3.006   6.426   7.448  0.2464 -0.2000 -0.6081
   48CHL1  H24A 3541   3.075   6.511   7.466 -0.9207  0.4211  1.0420
   48CHL1  H24B 3542   2.928   6.443   7.526 -0.8173  1.1037 -1.9397
   48CHL1   C25 3543   3.072   6.295   7.498 -0.1232 -0.4976  0.1325
   48CHL1   H25 3544   3.151   6.271   7.424  1.5995 -1.3990  2.2142
   48CHL1   C26 3545   3.126   6.326   7.637 -0.4546 -0.4553 -0.6890
   48CHL1  H26A 3546   3.180   6.422   7.649 -1.2127  0.1859 -2.2325
   48CHL1  H26B 3547   3.046   6.342   7.712  0.7896  1.1175  0.3362
   48CHL1  H26C 3548   3.196   6.247   7.670 -1.9446 -1.4876  0.0412
   48CHL1   C27 3549   2.988   6.174   7.506 -0.7338 -0.2018  0.2864
   48CHL1  H27A 3550   2.905   6.190   7.578 -2.0919  0.5506 -1.4024
   48CHL1  H27B 3551   2.938   6.157   7.408  0.6761 -1.1513 -0.2827
   48CHL1  H27C 3552   3.056   6.088   7.524  0.6207  0.6505 -0.6920
   49CHL1    C3 3553   1.906   0.555   6.074  0.2190 -0.5528 -0.3439
   49CHL1    H3 3554   1.986   0.630   6.058  0.3708 -0.3434  1.3033
   49CHL1    O3 3555   1.856   0.491   5.960 -0.2644  0.4743  0.4269
   49CHL1   H3' 3556   1.800   0.424   6.001  1.3371 -0.2344  1.4844
   49CHL1    C4 3557   1.965   0.433   6.150 -0.2312 -0.6295 -0.7279
   49CHL1   H4A 3558   1.893   0.350   6.162 -0.7233  0.1022  1.6863
   49CHL1   H4B 3559   2.050   0.385   6.097  0.8826  0.2796  0.2255
   49CHL1    C5 3560   2.006   0.471   6.293 -0.6328  0.1757  0.1170
   49CHL1    C6 3561   2.140   0.459   6.329 -0.0305 -0.4166 -0.0984
   49CHL1    H6 3562   2.199   0.403   6.254 -0.1764 -0.8693  0.1226
   49CHL1    C7 3563   2.200   0.501   6.464 -0.2444  0.3621 -0.2778
   49CHL1   H7A 3564   2.265   0.418   6.501 -1.4011 -0.4560 -0.0507
   49CHL1   H7B 3565   2.256   0.596   6.450  0.3402  0.1101  0.3354
   49CHL1    C8 3566   2.086   0.532   6.564 -0.2400  0.1786 -0.1974
   49CHL1    H8 3567   2.043   0.437   6.601  2.7350 -1.2862 -0.3518
   49CHL1   C14 3568   2.142   0.604   6.686 -0.2832  0.5290  0.1436
   49CHL1   H14 3569   2.176   0.701   6.642  4.8576 -0.0575  2.3973
   49CHL1   C15 3570   2.264   0.531   6.751  0.4235 -0.2504 -0.0721
   49CHL1  H15A 3571   2.229   0.427   6.768 -1.1558  0.2549 -0.1094
   49CHL1  H15B 3572   2.357   0.528   6.690  0.5829  2.2337  0.0129
   49CHL1   C16 3573   2.276   0.602   6.888  0.6001 -0.0584  0.4383
   49CHL1  H16A 3574   2.298   0.524   6.964  0.9672 -2.0885 -1.6703
   49CHL1  H16B 3575   2.370   0.661   6.888 -0.0651  1.0151 -0.9286
   49CHL1   C17 3576   2.144   0.691   6.907 -0.8712 -0.0434  0.8116
   49CHL1   H17 3577   2.180   0.789   6.868  2.7590 -1.5052  0.2699
   49CHL1   C13 3578   2.045   0.642   6.796  0.9344 -0.2104  0.3401
   49CHL1   C18 3579   1.966   0.511   6.845 -0.1816 -0.6127  0.2638
   49CHL1  H18A 3580   1.894   0.488   6.764 -0.9093  2.1366  0.0845
   49CHL1  H18B 3581   2.033   0.423   6.855 -0.5190 -0.6427  2.4943
   49CHL1  H18C 3582   1.910   0.529   6.940  0.7058  1.2717  0.4635
   49CHL1   C12 3583   1.950   0.742   6.736  0.1230 -0.2058  0.1557
   49CHL1  H12A 3584   1.861   0.749   6.803 -0.2970 -2.8231 -0.0881
   49CHL1  H12B 3585   1.989   0.844   6.717 -0.1679 -0.0846  0.2013
   49CHL1   C11 3586   1.892   0.695   6.600 -0.4113  0.3845  0.1254
   49CHL1  H11A 3587   1.813   0.622   6.630 -0.9715  1.3699  1.0810
   49CHL1  H11B 3588   1.841   0.783   6.555 -1.0716  1.4179  2.8021
   49CHL1    C9 3589   1.980   0.626   6.497  0.0455  0.2847 -0.5399
   49CHL1    H9 3590   2.033   0.709   6.446  0.0380  0.5830 -0.0616
   49CHL1   C10 3591   1.905   0.551   6.379  0.4950 -0.1901 -0.4580
   49CHL1   C19 3592   1.799   0.452   6.431  0.0535 -0.2525  0.9543
   49CHL1  H19A 3593   1.734   0.488   6.513 -0.3465 -0.8060  0.8826
   49CHL1  H19B 3594   1.727   0.413   6.356 -0.5767  1.0426  0.8657
   49CHL1  H19C 3595   1.847   0.357   6.464  0.6001 -0.4438 -0.3679
   49CHL1    C1 3596   1.838   0.657   6.292 -0.4910  0.2738  0.0160
   49CHL1   H1A 3597   1.758   0.698   6.357  1.8843  2.6475  1.5501
   49CHL1   H1B 3598   1.910   0.741   6.279  0.4936 -0.7931 -1.6357
   49CHL1    C2 3599   1.791   0.611   6.148  0.0667 -0.0873  0.4208
   49CHL1   H2A 3600   1.767   0.708   6.100  0.2518  0.0817  0.6603
   49CHL1   H2B 3601   1.704   0.543   6.156 -0.8501  0.7575 -2.0111
   49CHL1   C20 3602   2.096   0.705   7.051 -0.1697 -0.8278 -0.0175
   49CHL1   H20 3603   2.082   0.601   7.086  1.0425 -0.6660  0.9692
   49CHL1   C21 3604   1.961   0.782   7.047  0.4251 -0.0254 -0.1132
   49CHL1  H21A 3605   1.925   0.809   7.148  1.1981 -0.2051  0.2119
   49CHL1  H21B 3606   1.873   0.723   7.014  0.5708  0.2278 -0.9594
   49CHL1  H21C 3607   1.983   0.875   6.992  0.3121  0.8578  1.3135
   49CHL1   C22 3608   2.195   0.774   7.147 -0.6374 -0.2352 -0.4132
   49CHL1  H22A 3609   2.285   0.710   7.131 -0.1700  0.4801 -0.6900
   49CHL1  H22B 3610   2.235   0.874   7.120 -0.7952 -0.2220 -0.6009
   49CHL1   C23 3611   2.151   0.775   7.294 -0.2572  0.1117 -0.3745
   49CHL1  H23A 3612   2.063   0.837   7.318  1.2159  1.2291  2.4109
   49CHL1  H23B 3613   2.119   0.673   7.324 -0.7696  0.4947  0.4089
   49CHL1   C24 3614   2.273   0.815   7.383  0.0301  0.1575  0.2794
   49CHL1  H24A 3615   2.346   0.731   7.378 -0.1401  0.0060  0.3254
   49CHL1  H24B 3616   2.322   0.904   7.339  1.9089 -0.8699  0.2692
   49CHL1   C25 3617   2.232   0.843   7.528 -0.2155 -0.5654 -0.1340
   49CHL1   H25 3618   2.148   0.916   7.529  0.0791 -0.2403  1.5849
   49CHL1   C26 3619   2.182   0.721   7.593  0.3921  0.1918  0.1617
   49CHL1  H26A 3620   2.246   0.634   7.569 -1.6732 -1.0631 -0.9353
   49CHL1  H26B 3621   2.193   0.740   7.702 -1.0843 -3.6103  1.0349
   49CHL1  H26C 3622   2.077   0.694   7.572  0.9719 -1.7049 -0.3783
   49CHL1   C27 3623   2.348   0.911   7.608  0.8742 -0.3929  0.5037
   49CHL1  H27A 3624   2.304   0.947   7.703  0.6137 -0.5783  0.4550
   49CHL1  H27B 3625   2.437   0.846   7.625  1.9189  0.3568 -1.8940
   49CHL1  H27C 3626   2.380   1.004   7.556  2.7379 -0.3481  1.6699
   50CHL1    C3 3627   1.444   6.242   6.091 -0.0233  0.0436  0.2309
   50CHL1    H3 3628   1.354   6.177   6.099 -0.0759  0.1036  0.1245
   50CHL1    O3 3629   1.468   6.243   5.952  0.1587 -0.0214 -0.1831
   50CHL1   H3' 3630   1.551   6.196   5.938  0.8271  0.1752  2.8249
   50CHL1    C4 3631   1.427   6.383   6.151 -0.4325  0.4717  0.1834
   50CHL1   H4A 3632   1.520   6.438   6.129  1.6455 -2.0713  2.1879
   50CHL1   H4B 3633   1.352   6.435   6.089  0.9156  1.0913 -0.9580
   50CHL1    C5 3634   1.401   6.385   6.302 -0.6345  0.1457  0.2292
   50CHL1    C6 3635   1.300   6.450   6.346  0.2430  0.3477  0.1916
   50CHL1    H6 3636   1.238   6.510   6.278 -0.0979 -0.6019 -0.3358
   50CHL1    C7 3637   1.254   6.463   6.492 -0.4586 -0.0999 -0.3247
   50CHL1   H7A 3638   1.261   6.568   6.527 -0.9854 -0.5006  0.9895
   50CHL1   H7B 3639   1.151   6.428   6.511 -0.2324 -1.3177 -1.2347
   50CHL1    C8 3640   1.358   6.392   6.581 -0.1436  0.0644 -0.3757
   50CHL1    H8 3641   1.443   6.462   6.590  0.9050 -0.8921 -2.5415
   50CHL1   C14 3642   1.300   6.363   6.709  0.1540  0.1312 -0.2969
   50CHL1   H14 3643   1.226   6.283   6.688  1.3404 -1.1087  0.1766
   50CHL1   C15 3644   1.217   6.479   6.775 -0.1536 -0.2181  0.2946
   50CHL1  H15A 3645   1.265   6.574   6.744 -0.2203  0.0669  1.0556
   50CHL1  H15B 3646   1.111   6.487   6.742 -0.6220  1.3583  2.0712
   50CHL1   C16 3647   1.220   6.457   6.926 -0.8776  0.4069 -0.1125
   50CHL1  H16A 3648   1.277   6.544   6.964  0.9531 -1.4282  1.4599
   50CHL1  H16B 3649   1.123   6.470   6.980 -1.3147  0.5788 -0.9255
   50CHL1   C17 3650   1.302   6.326   6.944  0.2401  0.1926  0.8415
   50CHL1   H17 3651   1.219   6.253   6.933  2.1885 -1.8188 -0.8924
   50CHL1   C13 3652   1.396   6.314   6.819  0.5269 -0.5048  0.2569
   50CHL1   C18 3653   1.515   6.411   6.844  0.2100  0.9306  0.8199
   50CHL1  H18A 3654   1.578   6.427   6.753  1.0907 -1.2275  1.0297
   50CHL1  H18B 3655   1.484   6.513   6.875  2.3706  1.4819  1.2876
   50CHL1  H18C 3656   1.598   6.383   6.912  1.8579 -0.8437 -1.8222
   50CHL1   C12 3657   1.442   6.178   6.777  0.4133  0.7331  0.8748
   50CHL1  H12A 3658   1.519   6.131   6.842 -0.1794  0.5809  1.4660
   50CHL1  H12B 3659   1.354   6.112   6.786 -0.6345  2.2896  2.4257
   50CHL1   C11 3660   1.497   6.182   6.630 -0.4686 -0.2520 -0.4842
   50CHL1  H11A 3661   1.589   6.244   6.630 -0.7627  0.1909 -0.9433
   50CHL1  H11B 3662   1.526   6.083   6.589  1.7330  0.7308 -1.3715
   50CHL1    C9 3663   1.417   6.261   6.524 -0.0201  0.1418  0.4363
   50CHL1    H9 3664   1.328   6.203   6.494 -1.2379  2.0474  0.2494
   50CHL1   C10 3665   1.483   6.292   6.389  0.3780  0.6395 -1.0772
   50CHL1   C19 3666   1.627   6.354   6.414  0.2634  1.0496 -0.8633
   50CHL1  H19A 3667   1.704   6.284   6.455  1.0661  1.3811 -1.7985
   50CHL1  H19B 3668   1.662   6.388   6.315 -1.2215 -0.1205 -1.8265
   50CHL1  H19C 3669   1.613   6.436   6.488 -2.0167 -0.5962  0.6207
   50CHL1    C1 3670   1.517   6.151   6.320  0.1969 -0.3381 -0.0964
   50CHL1   H1A 3671   1.601   6.105   6.375  0.0584 -2.5116 -1.6312
   50CHL1   H1B 3672   1.426   6.089   6.336 -1.2708  1.2356 -1.9056
   50CHL1    C2 3673   1.550   6.163   6.170 -0.2584 -0.4435  0.3178
   50CHL1   H2A 3674   1.556   6.058   6.136  0.0864 -0.0884 -0.7370
   50CHL1   H2B 3675   1.645   6.213   6.140 -1.4969  1.9121  0.1844
   50CHL1   C20 3676   1.362   6.304   7.084  0.0961 -0.9415 -0.0156
   50CHL1   H20 3677   1.469   6.333   7.087 -0.0039 -0.5374 -0.4066
   50CHL1   C21 3678   1.364   6.160   7.113 -0.3480 -0.3101  0.2172
   50CHL1  H21A 3679   1.433   6.110   7.042 -0.9831 -0.9706  0.0539
   50CHL1  H21B 3680   1.269   6.105   7.095 -1.5998  1.5732  0.9775
   50CHL1  H21C 3681   1.411   6.128   7.208  1.9643 -1.3974 -1.2425
   50CHL1   C22 3682   1.286   6.386   7.192  1.1897 -0.2937  0.4072
   50CHL1  H22A 3683   1.298   6.494   7.174 -2.0351  0.2506  1.1269
   50CHL1  H22B 3684   1.177   6.363   7.185  0.7507  2.2831 -1.6791
   50CHL1   C23 3685   1.329   6.355   7.337  0.7793  0.5245  0.2483
   50CHL1  H23A 3686   1.307   6.248   7.360  0.5513  0.1931 -1.4437
   50CHL1  H23B 3687   1.440   6.362   7.346  1.1665 -1.0660 -2.6664
   50CHL1   C24 3688   1.254   6.437   7.447  0.2839  0.2112 -0.2961
   50CHL1  H24A 3689   1.260   6.544   7.421  2.0308  0.3813  0.7958
   50CHL1  H24B 3690   1.148   6.404   7.449  0.2544  0.2676 -0.9725
   50CHL1   C25 3691   1.305   6.425   7.601  0.1290  0.0264  0.2529
   50CHL1   H25 3692   1.314   6.316   7.619 -1.3412 -0.2007 -0.2738
   50CHL1   C26 3693   1.441   6.483   7.638  0.1610 -0.8864 -0.1338
   50CHL1  H26A 3694   1.437   6.589   7.606 -0.4998 -1.0637 -0.6273
   50CHL1  H26B 3695   1.453   6.468   7.747 -1.3628 -0.1171  0.1476
   50CHL1  H26C 3696   1.521   6.425   7.587  0.7883  0.1085 -0.3083
   50CHL1   C27 3697   1.189   6.481   7.699  0.4017  0.1213  0.1489
   50CHL1  H27A 3698   1.148   6.575   7.658  0.0209 -0.3454 -0.5454
   50CHL1  H27B 3699   1.104   6.412   7.682  0.3015  0.3753 -0.3829
   50CHL1  H27C 3700   1.218   6.488   7.806 -1.7229  0.4937  0.7352
   51CHL1    C3 3701   1.841   6.663   5.938  0.1026  0.7428 -0.5449
   51CHL1    H3 3702   1.747   6.702   5.982  0.2951  0.3254  0.2510
   51CHL1    O3 3703   1.829   6.669   5.799  0.2823 -0.4770  0.4136
   51CHL1   H3' 3704   1.900   6.619   5.758  0.8291  1.3194 -0.9023
   51CHL1    C4 3705   1.954   6.748   5.979 -0.5721 -0.0824  0.0714
   51CHL1   H4A 3706   2.049   6.709   5.937 -0.0882 -1.9204  2.7039
   51CHL1   H4B 3707   1.958   6.848   5.930  0.2969 -0.9397 -1.6403
   51CHL1    C5 3708   1.968   6.738   6.132 -0.5696  0.5013 -0.3147
   51CHL1    C6 3709   1.948   6.849   6.206  0.4324  0.7351 -1.1821
   51CHL1    H6 3710   1.929   6.946   6.158  0.8377  0.8404 -1.1344
   51CHL1    C7 3711   1.959   6.849   6.358 -0.1464 -0.1279 -0.3228
   51CHL1   H7A 3712   2.010   6.943   6.389 -1.4720 -0.2944  2.4592
   51CHL1   H7B 3713   1.856   6.853   6.399 -0.5814  0.6396 -1.4481
   51CHL1    C8 3714   2.022   6.724   6.424  0.1182 -0.5840 -0.3778
   51CHL1    H8 3715   2.132   6.725   6.411 -0.0283 -1.3187 -1.7558
   51CHL1   C14 3716   1.971   6.713   6.567  1.0317  0.6913  0.3135
   51CHL1   H14 3717   1.860   6.716   6.563  0.8783  1.4551  3.6440
   51CHL1   C15 3718   2.007   6.823   6.669  0.0830 -0.3685  0.0510
   51CHL1  H15A 3719   2.116   6.848   6.666 -0.2859  1.1500 -1.1790
   51CHL1  H15B 3720   1.952   6.915   6.640 -0.1802  0.1705  2.1421
   51CHL1   C16 3721   1.974   6.766   6.805 -0.7410 -0.0296  0.7079
   51CHL1  H16A 3722   2.056   6.799   6.873 -0.7012 -0.9382  1.1100
   51CHL1  H16B 3723   1.877   6.811   6.837 -1.1225 -0.6824  0.4756
   51CHL1   C17 3724   1.960   6.611   6.784  0.1436  0.2705  0.1476
   51CHL1   H17 3725   1.850   6.599   6.777  0.0780  0.0289  1.5143
   51CHL1   C13 3726   2.017   6.582   6.641  0.3084  0.0038  0.1604
   51CHL1   C18 3727   2.174   6.579   6.654  0.7669 -0.1371 -0.2840
   51CHL1  H18A 3728   2.218   6.599   6.554 -1.6275  4.5245 -0.5581
   51CHL1  H18B 3729   2.208   6.668   6.712  0.0457 -0.6498  0.9482
   51CHL1  H18C 3730   2.211   6.483   6.696 -2.6533 -0.2564  2.6981
   51CHL1   C12 3731   1.973   6.455   6.563  0.6654 -0.3924 -0.4995
   51CHL1  H12A 3732   1.999   6.354   6.601  1.8410 -0.1997 -0.7674
   51CHL1  H12B 3733   1.863   6.454   6.558  0.5417  2.0566  0.8823
   51CHL1   C11 3734   2.023   6.463   6.417  0.1325  0.0464 -0.4608
   51CHL1  H11A 3735   2.134   6.461   6.410  0.0570  0.9127 -2.1253
   51CHL1  H11B 3736   1.974   6.387   6.352  0.6255  1.3165 -2.3573
   51CHL1    C9 3737   1.969   6.595   6.350  0.1713 -0.2440  0.2404
   51CHL1    H9 3738   1.859   6.597   6.366  0.2904 -4.3196  2.1605
   51CHL1   C10 3739   1.988   6.592   6.198  0.1989 -0.6300  0.5722
   51CHL1   C19 3740   2.132   6.550   6.159  0.6233 -0.1661  0.3390
   51CHL1  H19A 3741   2.154   6.569   6.051  0.1400  0.9528  0.4322
   51CHL1  H19B 3742   2.203   6.604   6.225 -1.2686 -0.7224  2.9025
   51CHL1  H19C 3743   2.142   6.442   6.184  2.1625 -0.1603 -0.2006
   51CHL1    C1 3744   1.879   6.500   6.129 -0.1414 -0.1548  0.1681
   51CHL1   H1A 3745   1.903   6.392   6.141 -1.3015 -0.3355  0.9159
   51CHL1   H1B 3746   1.776   6.508   6.171 -0.3281 -0.8501 -0.1636
   51CHL1    C2 3747   1.868   6.521   5.974 -0.0609 -0.2028 -0.4134
   51CHL1   H2A 3748   1.788   6.452   5.940 -0.3306  0.2332 -0.6723
   51CHL1   H2B 3749   1.970   6.493   5.940 -0.6741 -2.9622 -0.1260
   51CHL1   C20 3750   2.017   6.525   6.899 -0.7151  0.0138 -0.1518
   51CHL1   H20 3751   2.127   6.520   6.890 -0.3728 -0.3854  3.4810
   51CHL1   C21 3752   1.960   6.377   6.885 -0.9947 -0.2987  0.3377
   51CHL1  H21A 3753   1.851   6.378   6.863 -1.1021 -0.7375  0.8191
   51CHL1  H21B 3754   1.976   6.309   6.972 -0.0649 -0.0157  0.3931
   51CHL1  H21C 3755   2.017   6.332   6.801  1.3495  0.3113  1.5713
   51CHL1   C22 3756   1.981   6.568   7.043 -0.3006  0.1654 -0.4208
   51CHL1  H22A 3757   1.963   6.677   7.040 -1.5304  0.0136  0.9144
   51CHL1  H22B 3758   1.890   6.512   7.073 -0.7166  1.5905  1.0278
   51CHL1   C23 3759   2.098   6.543   7.145 -0.1213  0.9657 -0.3280
   51CHL1  H23A 3760   2.052   6.548   7.246 -0.2498  1.1679 -0.3975
   51CHL1  H23B 3761   2.143   6.442   7.130  0.1575  0.5530  3.0351
   51CHL1   C24 3762   2.212   6.645   7.129  0.8182  0.3272 -0.1147
   51CHL1  H24A 3763   2.241   6.638   7.021 -0.8202  3.1467 -0.7944
   51CHL1  H24B 3764   2.177   6.748   7.153  0.1704  0.1793 -0.4209
   51CHL1   C25 3765   2.339   6.612   7.205  0.4085  0.2461  0.1633
   51CHL1   H25 3766   2.352   6.504   7.185 -0.2808  0.1590  0.1709
   51CHL1   C26 3767   2.467   6.680   7.153 -0.0706 -0.6516  0.2347
   51CHL1  H26A 3768   2.558   6.640   7.203  2.3390  5.2297  1.0186
   51CHL1  H26B 3769   2.475   6.664   7.044 -3.5639 -0.6786 -0.0700
   51CHL1  H26C 3770   2.462   6.791   7.163 -1.3345 -0.8445  2.0103
   51CHL1   C27 3771   2.320   6.633   7.356 -0.5512  0.2226 -0.1601
   51CHL1  H27A 3772   2.417   6.606   7.404 -0.4246  0.5325 -0.2394
   51CHL1  H27B 3773   2.299   6.737   7.388  1.4262  0.7761 -0.5860
   51CHL1  H27C 3774   2.248   6.556   7.392  0.1755 -0.3415  0.0998
   52CHL1    C3 3775   5.446   0.629   6.048 -0.0005 -0.6859 -0.2772
   52CHL1    H3 3776   5.419   0.736   6.036 -0.7608 -0.8374  0.0390
   52CHL1    O3 3777   5.465   0.569   5.922 -0.4927  0.8232 -0.1376
   52CHL1   H3' 3778   5.449   0.476   5.937  0.1861  0.3955 -1.9583
   52CHL1    C4 3779   5.566   0.624   6.133 -0.5670  0.4773 -0.1978
   52CHL1   H4A 3780   5.617   0.525   6.128 -0.2946  0.5863  0.3442
   52CHL1   H4B 3781   5.638   0.690   6.081 -0.1804  0.3947  0.2352
   52CHL1    C5 3782   5.557   0.655   6.278  0.5506 -0.4511  0.3546
   52CHL1    C6 3783   5.637   0.748   6.341 -0.2050  0.3208  0.3875
   52CHL1    H6 3784   5.718   0.798   6.288 -2.5656  0.2761 -3.4878
   52CHL1    C7 3785   5.626   0.765   6.487  0.0770  0.2287  0.4017
   52CHL1   H7A 3786   5.728   0.765   6.533  1.2174  0.4906 -2.0355
   52CHL1   H7B 3787   5.583   0.867   6.498  0.0315  0.0526  1.9493
   52CHL1    C8 3788   5.538   0.662   6.565 -0.2338 -0.1215  0.7248
   52CHL1    H8 3789   5.600   0.570   6.578 -2.1972 -1.5700  0.1261
   52CHL1   C14 3790   5.498   0.728   6.698  0.4268 -0.3686 -0.5694
   52CHL1   H14 3791   5.432   0.814   6.673 -0.0168 -0.3473  0.6452
   52CHL1   C15 3792   5.615   0.788   6.790  0.4005 -0.5446 -0.0481
   52CHL1  H15A 3793   5.706   0.724   6.791 -0.2585 -1.5057  1.1019
   52CHL1  H15B 3794   5.645   0.890   6.759 -1.5853  0.1412  0.2152
   52CHL1   C16 3795   5.541   0.798   6.924 -0.1614  0.6472  0.0695
   52CHL1  H16A 3796   5.601   0.751   7.005 -0.9020 -1.0522 -0.3405
   52CHL1  H16B 3797   5.521   0.904   6.948 -0.8738 -0.0758  2.8679
   52CHL1   C17 3798   5.406   0.725   6.918  0.0919 -0.0597  0.7453
   52CHL1   H17 3799   5.336   0.807   6.890 -1.5458 -1.9929 -1.0077
   52CHL1   C13 3800   5.414   0.633   6.793 -0.0516 -0.5558 -0.7509
   52CHL1   C18 3801   5.503   0.510   6.819  0.4985 -0.1043 -0.5057
   52CHL1  H18A 3802   5.505   0.435   6.737 -0.5334  0.2276 -0.8389
   52CHL1  H18B 3803   5.606   0.536   6.853  0.9154  0.7201 -2.3622
   52CHL1  H18C 3804   5.457   0.455   6.904  0.9323 -0.4660 -0.5028
   52CHL1   C12 3805   5.288   0.599   6.719  0.0077  0.5513  0.1069
   52CHL1  H12A 3806   5.239   0.519   6.779  1.8671 -2.3325 -2.0945
   52CHL1  H12B 3807   5.224   0.688   6.703 -0.7046  0.4562  2.2379
   52CHL1   C11 3808   5.319   0.547   6.574  0.1552  0.0443 -0.3722
   52CHL1  H11A 3809   5.367   0.447   6.582  1.2545  0.6257  0.5046
   52CHL1  H11B 3810   5.216   0.537   6.533  0.2698 -1.1983 -0.3750
   52CHL1    C9 3811   5.413   0.636   6.488 -0.5536 -0.2602 -0.0336
   52CHL1    H9 3812   5.368   0.736   6.472  1.7113  0.4266 -2.5855
   52CHL1   C10 3813   5.439   0.583   6.346 -0.1454  0.9435 -0.7981
   52CHL1   C19 3814   5.454   0.433   6.349  0.3086 -0.4432  0.6120
   52CHL1  H19A 3815   5.354   0.388   6.365 -0.2607 -0.0278 -1.6080
   52CHL1  H19B 3816   5.489   0.392   6.252 -1.5369 -0.2720 -0.1438
   52CHL1  H19C 3817   5.512   0.400   6.437 -0.3468 -2.5376  0.2767
   52CHL1    C1 3818   5.305   0.616   6.263  0.7654  0.8029  0.2973
   52CHL1   H1A 3819   5.223   0.560   6.312  1.3091  2.4923  3.2232
   52CHL1   H1B 3820   5.281   0.725   6.259 -1.1719  0.4612  1.9847
   52CHL1    C2 3821   5.329   0.570   6.116  0.2873 -0.6493  0.4614
   52CHL1   H2A 3822   5.247   0.602   6.048  1.9205  2.7826  0.0381
   52CHL1   H2B 3823   5.332   0.459   6.117  0.1011 -0.6445  1.6085
   52CHL1   C20 3824   5.366   0.672   7.053  0.2807  0.6703 -0.0101
   52CHL1   H20 3825   5.434   0.585   7.071  1.5485  1.5955 -0.2448
   52CHL1   C21 3826   5.221   0.627   7.049 -0.5204  0.1752  0.0243
   52CHL1  H21A 3827   5.151   0.704   7.009 -1.8617 -1.1596 -0.2349
   52CHL1  H21B 3828   5.188   0.590   7.149 -0.9670 -0.2011 -0.2607
   52CHL1  H21C 3829   5.218   0.544   6.976 -4.4448  2.5397 -2.7178
   52CHL1   C22 3830   5.374   0.773   7.170  0.3066 -0.1013  0.2145
   52CHL1  H22A 3831   5.461   0.840   7.153 -1.2594  2.6761  2.7988
   52CHL1  H22B 3832   5.294   0.849   7.171  1.3965  1.1100 -1.8551
   52CHL1   C23 3833   5.388   0.709   7.311 -0.2119 -0.0938 -0.6517
   52CHL1  H23A 3834   5.293   0.655   7.331 -0.3521  0.4179  0.1079
   52CHL1  H23B 3835   5.469   0.633   7.300  1.0334  1.1204 -0.0235
   52CHL1   C24 3836   5.409   0.812   7.423  0.5207 -0.2206  0.2840
   52CHL1  H24A 3837   5.504   0.864   7.395 -0.2844  1.3419  0.3739
   52CHL1  H24B 3838   5.323   0.882   7.417 -0.3695 -1.0892  2.3775
   52CHL1   C25 3839   5.417   0.757   7.568 -0.2236  0.3294  0.0681
   52CHL1   H25 3840   5.328   0.695   7.592  0.4138 -0.0334  1.6051
   52CHL1   C26 3841   5.533   0.659   7.582 -0.0542 -0.6009 -0.2801
   52CHL1  H26A 3842   5.623   0.719   7.557  0.9755 -1.2183  1.8815
   52CHL1  H26B 3843   5.540   0.620   7.685 -1.6240 -1.5789 -0.5280
   52CHL1  H26C 3844   5.516   0.573   7.514 -0.7819 -0.0072 -0.8602
   52CHL1   C27 3845   5.425   0.876   7.671 -0.8928 -0.0854 -0.0609
   52CHL1  H27A 3846   5.358   0.961   7.649 -0.4841 -0.3582 -2.4768
   52CHL1  H27B 3847   5.386   0.825   7.762 -1.9237 -0.5629 -0.7598
   52CHL1  H27C 3848   5.529   0.910   7.692 -0.2231  0.3164 -3.7123
   53CHL1    C3 3849   6.785   6.335   6.031  0.3812 -0.2013 -0.3984
   53CHL1    H3 3850   6.693   6.397   6.041 -0.8100 -1.9754 -0.1938
   53CHL1    O3 3851   6.824   6.345   5.893  0.2858  0.2123  0.1240
   53CHL1   H3' 3852   6.746   6.314   5.847  0.3159  1.3754 -0.7094
   53CHL1    C4 3853   6.896   6.401   6.117 -0.4388  0.6471 -0.5852
   53CHL1   H4A 3854   6.986   6.336   6.113 -2.7046 -2.9515  2.3314
   53CHL1   H4B 3855   6.912   6.500   6.070 -2.1954 -0.4977 -3.7736
   53CHL1    C5 3856   6.858   6.404   6.266  0.1260 -0.9828  0.3091
   53CHL1    C6 3857   6.846   6.520   6.334  0.2596 -1.0762 -0.0643
   53CHL1    H6 3858   6.888   6.613   6.293  0.7883 -0.7699  1.1642
   53CHL1    C7 3859   6.806   6.531   6.481  0.5276 -0.8650  0.1541
   53CHL1   H7A 3860   6.880   6.589   6.541 -0.2975  0.9092 -0.5019
   53CHL1   H7B 3861   6.707   6.581   6.485  0.1781 -1.2110 -2.9789
   53CHL1    C8 3862   6.792   6.393   6.549 -0.0578 -0.1111 -0.0788
   53CHL1    H8 3863   6.891   6.358   6.583 -0.1418 -0.8208 -0.5575
   53CHL1   C14 3864   6.703   6.399   6.676 -0.2401 -0.0528  0.0763
   53CHL1   H14 3865   6.602   6.432   6.645  0.6272  2.8154  0.0842
   53CHL1   C15 3866   6.736   6.506   6.778  0.3957 -0.0110  0.7606
   53CHL1  H15A 3867   6.845   6.503   6.802  0.3503  1.1465  1.1357
   53CHL1  H15B 3868   6.734   6.609   6.734 -2.0274  0.6259  2.3086
   53CHL1   C16 3869   6.652   6.467   6.901  0.0194  0.7527  0.4111
   53CHL1  H16A 3870   6.721   6.474   6.988 -0.7992  2.2027  0.9643
   53CHL1  H16B 3871   6.569   6.540   6.904 -1.1203 -0.3165 -3.0111
   53CHL1   C17 3872   6.600   6.323   6.872 -0.4399 -0.3068 -0.8133
   53CHL1   H17 3873   6.497   6.335   6.833 -0.3107  1.5049 -0.6449
   53CHL1   C13 3874   6.682   6.268   6.750  0.6106  0.0790 -0.1186
   53CHL1   C18 3875   6.817   6.221   6.802  0.0311 -0.0803  0.0538
   53CHL1  H18A 3876   6.896   6.203   6.726  0.7589  0.3333  0.7053
   53CHL1  H18B 3877   6.866   6.295   6.868  0.0087 -0.9803  1.0970
   53CHL1  H18C 3878   6.794   6.133   6.866 -0.5165 -1.5092 -2.0211
   53CHL1   C12 3879   6.610   6.166   6.664  0.1961  0.1955 -0.7844
   53CHL1  H12A 3880   6.604   6.068   6.715 -1.8349  0.3548 -0.6574
   53CHL1  H12B 3881   6.505   6.200   6.648 -0.4232  0.4412  3.1845
   53CHL1   C11 3882   6.692   6.151   6.535  0.1294 -0.3874  0.2509
   53CHL1  H11A 3883   6.788   6.105   6.568  0.9316  0.1072 -1.3372
   53CHL1  H11B 3884   6.650   6.076   6.465  1.0918  0.7419 -1.5892
   53CHL1    C9 3885   6.729   6.283   6.459 -0.1537  0.7892  0.1303
   53CHL1    H9 3886   6.623   6.302   6.431 -0.6337 -3.7758 -1.5565
   53CHL1   C10 3887   6.809   6.270   6.325  0.6004 -0.1959 -0.0300
   53CHL1   C19 3888   6.946   6.195   6.359  0.4935  0.5006 -0.8812
   53CHL1  H19A 3889   7.007   6.174   6.268  0.9329  1.6369 -0.8564
   53CHL1  H19B 3890   7.000   6.241   6.444  1.0411 -1.6598 -0.0087
   53CHL1  H19C 3891   6.935   6.094   6.404  2.2747  0.6312 -0.0965
   53CHL1    C1 3892   6.717   6.198   6.221  0.2000  0.1575 -0.4039
   53CHL1   H1A 3893   6.696   6.095   6.257  0.2893  0.7086  1.3057
   53CHL1   H1B 3894   6.619   6.252   6.220 -0.0447 -0.1392  2.8008
   53CHL1    C2 3895   6.755   6.194   6.075  0.0704 -0.6470  0.3118
   53CHL1   H2A 3896   6.687   6.141   6.005 -1.6076  0.7154  0.8961
   53CHL1   H2B 3897   6.855   6.145   6.070  0.3952  0.1804 -2.3261
   53CHL1   C20 3898   6.587   6.235   6.997 -0.6634  0.3953  0.2379
   53CHL1   H20 3899   6.603   6.133   6.958 -1.8755  0.8152 -1.4008
   53CHL1   C21 3900   6.450   6.269   7.056  0.3057 -0.4007 -0.6740
   53CHL1  H21A 3901   6.414   6.207   7.141 -1.0083 -0.7041 -1.4267
   53CHL1  H21B 3902   6.375   6.256   6.975 -1.4165 -1.8815  1.0986
   53CHL1  H21C 3903   6.457   6.373   7.092  2.1370 -1.1899  1.3596
   53CHL1   C22 3904   6.692   6.253   7.106 -0.3025 -0.0971 -0.4563
   53CHL1  H22A 3905   6.797   6.268   7.074 -0.3914  0.8378 -0.3106
   53CHL1  H22B 3906   6.669   6.344   7.165 -2.5269 -2.3030  2.2335
   53CHL1   C23 3907   6.694   6.131   7.197 -0.2213  1.2248  0.2015
   53CHL1  H23A 3908   6.599   6.076   7.183  0.1473  0.9779 -1.3476
   53CHL1  H23B 3909   6.771   6.062   7.159 -2.0425  0.7765 -2.8087
   53CHL1   C24 3910   6.719   6.161   7.342  0.0914 -0.5362 -0.0424
   53CHL1  H24A 3911   6.826   6.188   7.353  0.3597 -1.8067  0.5656
   53CHL1  H24B 3912   6.661   6.251   7.373  0.6860  0.0163 -0.4965
   53CHL1   C25 3913   6.704   6.054   7.444 -0.4009 -1.1190 -0.4333
   53CHL1   H25 3914   6.763   5.970   7.402  0.5163 -1.1156  0.8203
   53CHL1   C26 3915   6.766   6.088   7.586  0.0778  0.4579  0.8717
   53CHL1  H26A 3916   6.696   6.154   7.642 -0.7184 -0.2554  0.7085
   53CHL1  H26B 3917   6.795   5.997   7.643 -1.7204 -1.4473 -1.1798
   53CHL1  H26C 3918   6.866   6.137   7.580  0.3171 -0.1705 -0.3224
   53CHL1   C27 3919   6.561   6.006   7.465  0.4778  0.0267  0.1118
   53CHL1  H27A 3920   6.507   6.090   7.513  0.6507  0.8522 -1.1137
   53CHL1  H27B 3921   6.519   5.992   7.363 -0.3169  1.4144  0.2362
   53CHL1  H27C 3922   6.557   5.914   7.527 -2.6136 -0.3276 -0.5524
   54CHL1    C3 3923   0.782   6.300   6.126 -0.5765 -0.9863 -0.9209
   54CHL1    H3 3924   0.677   6.321   6.154 -0.1931 -1.8972  1.3644
   54CHL1    O3 3925   0.802   6.341   5.996  0.4186  0.2221  0.6721
   54CHL1   H3' 3926   0.766   6.278   5.933  2.6480  1.9246 -2.4362
   54CHL1    C4 3927   0.874   6.379   6.229  0.0862  0.1316 -0.1829
   54CHL1   H4A 3928   0.975   6.363   6.185 -0.2882 -1.4659 -0.5093
   54CHL1   H4B 3929   0.853   6.487   6.212 -0.9533 -0.2501 -1.4774
   54CHL1    C5 3930   0.864   6.325   6.369 -0.1830 -0.9534 -0.0194
   54CHL1    C6 3931   0.841   6.405   6.480  0.7705  0.3822  0.3909
   54CHL1    H6 3932   0.829   6.513   6.468  0.6211  0.4149  0.8152
   54CHL1    C7 3933   0.839   6.367   6.626  0.0749  0.2167  0.0717
   54CHL1   H7A 3934   0.902   6.429   6.694 -0.8593  1.8007 -0.4866
   54CHL1   H7B 3935   0.734   6.368   6.662  0.8200 -1.6696  2.4526
   54CHL1    C8 3936   0.885   6.222   6.630  0.5530 -0.0698  0.0578
   54CHL1    H8 3937   0.996   6.226   6.623  0.6086 -0.6723  0.5170
   54CHL1   C14 3938   0.853   6.171   6.766 -0.6286  0.4551  0.4825
   54CHL1   H14 3939   0.742   6.171   6.774 -0.7804 -2.5432 -0.8420
   54CHL1   C15 3940   0.916   6.256   6.882  0.1967 -0.1742  0.8406
   54CHL1  H15A 3941   1.021   6.283   6.861 -0.3970  0.3675 -1.6051
   54CHL1  H15B 3942   0.858   6.349   6.898  1.0847  0.5134  0.0621
   54CHL1   C16 3943   0.913   6.152   6.994 -0.1573  0.0384  0.6101
   54CHL1  H16A 3944   1.019   6.143   7.027 -0.1048  0.0033  0.4332
   54CHL1  H16B 3945   0.846   6.186   7.076 -1.6188  2.2393 -1.4349
   54CHL1   C17 3946   0.869   6.015   6.936  0.2170  0.4506  0.1994
   54CHL1   H17 3947   0.759   6.007   6.940  0.1954  0.3797 -0.4124
   54CHL1   C13 3948   0.900   6.029   6.785 -0.1350  0.2616  0.1319
   54CHL1   C18 3949   1.055   6.002   6.769 -0.1946  0.2780  0.1218
   54CHL1  H18A 3950   1.078   5.898   6.798  0.4573  0.1838 -0.7208
   54CHL1  H18B 3951   1.099   6.017   6.668  1.4482  0.2078  0.8225
   54CHL1  H18C 3952   1.119   6.066   6.834 -0.3309 -1.7412  2.3159
   54CHL1   C12 3953   0.815   5.949   6.694  0.0675  0.1153 -0.7179
   54CHL1  H12A 3954   0.849   5.846   6.717 -0.2848 -0.0371 -0.8804
   54CHL1  H12B 3955   0.709   5.955   6.724  0.0145 -0.0381 -0.8773
   54CHL1   C11 3956   0.847   5.985   6.546 -0.2157  0.3002  0.3221
   54CHL1  H11A 3957   0.951   5.950   6.532 -0.4361 -0.1887 -0.1398
   54CHL1  H11B 3958   0.781   5.925   6.479  1.1983  1.6327 -2.3538
   54CHL1    C9 3959   0.826   6.138   6.518  0.7877  0.7204 -0.2289
   54CHL1    H9 3960   0.716   6.151   6.511  0.6136 -0.6758 -0.2102
   54CHL1   C10 3961   0.876   6.176   6.383 -0.3862 -0.3753 -0.1984
   54CHL1   C19 3962   1.023   6.141   6.369  0.4055 -0.4104  0.4083
   54CHL1  H19A 3963   1.080   6.168   6.460 -1.4107  0.7239  1.2318
   54CHL1  H19B 3964   1.034   6.031   6.353  2.3451 -0.1855  0.1541
   54CHL1  H19C 3965   1.074   6.169   6.275  0.2599  0.1821  0.5066
   54CHL1    C1 3966   0.795   6.101   6.280  0.4940  0.1085  0.3309
   54CHL1   H1A 3967   0.838   5.999   6.279  0.8566  0.2652 -0.2943
   54CHL1   H1B 3968   0.685   6.105   6.295  0.3382  3.0588 -1.2202
   54CHL1    C2 3969   0.812   6.146   6.132  0.5193 -0.3450 -0.5568
   54CHL1   H2A 3970   0.738   6.100   6.063  0.3651 -0.2958 -0.4254
   54CHL1   H2B 3971   0.916   6.128   6.097  0.7155  0.8855 -0.6448
   54CHL1   C20 3972   0.929   5.898   7.017  0.6851 -0.2969 -0.5877
   54CHL1   H20 3973   1.040   5.897   7.003  0.7339  0.2963 -0.2812
   54CHL1   C21 3974   0.875   5.762   6.967 -0.1940  0.0228  1.0317
   54CHL1  H21A 3975   0.869   5.680   7.041  1.1900 -1.6163 -0.6272
   54CHL1  H21B 3976   0.935   5.722   6.882 -1.4041 -0.3200  0.3313
   54CHL1  H21C 3977   0.772   5.785   6.932 -0.2692  1.2263  2.0007
   54CHL1   C22 3978   0.905   5.910   7.169 -0.1216 -0.1681  0.3956
   54CHL1  H22A 3979   0.890   6.015   7.203  1.6700  1.1630 -2.6692
   54CHL1  H22B 3980   0.812   5.858   7.198  0.2474 -0.9672  0.1722
   54CHL1   C23 3981   1.013   5.860   7.259 -0.0323 -0.4286  0.7909
   54CHL1  H23A 3982   1.040   5.758   7.224  2.4119  0.4604 -0.0525
   54CHL1  H23B 3983   1.107   5.920   7.253  0.5326 -1.2508  1.3242
   54CHL1   C24 3984   0.966   5.841   7.408  0.1373 -0.5735  0.1312
   54CHL1  H24A 3985   0.881   5.770   7.397  0.9283 -1.0110 -3.9792
   54CHL1  H24B 3986   1.048   5.792   7.464 -0.1585 -2.2286 -0.8433
   54CHL1   C25 3987   0.936   5.969   7.491  0.1319 -1.1329 -0.9314
   54CHL1   H25 3988   0.854   6.023   7.438 -0.0867  0.1701  0.6940
   54CHL1   C26 3989   0.885   5.922   7.633 -0.0282  0.4438  0.2150
   54CHL1  H26A 3990   0.807   5.843   7.630  1.5561 -1.1004 -1.0170
   54CHL1  H26B 3991   0.968   5.881   7.695 -0.1174 -3.3184 -2.0635
   54CHL1  H26C 3992   0.854   6.013   7.690  2.2995  1.5056 -0.1620
   54CHL1   C27 3993   1.050   6.064   7.512 -0.1925 -0.4646 -0.1256
   54CHL1  H27A 3994   1.011   6.160   7.551  0.5139 -0.9300  1.7629
   54CHL1  H27B 3995   1.122   6.026   7.587  1.7231 -0.8406 -2.0987
   54CHL1  H27C 3996   1.107   6.093   7.421  1.4124  0.6471  1.1974
   55CHL1    C3 3997   0.172   1.551   5.978 -0.3612  0.3894  0.1048
   55CHL1    H3 3998   0.178   1.442   5.998  0.4948  0.4966  0.4520
   55CHL1    O3 3999   0.146   1.548   5.840 -0.5429 -0.0340 -0.6271
   55CHL1   H3' 4000   0.230   1.528   5.799 -0.4055 -2.1899  0.6454
   55CHL1    C4 4001   0.054   1.622   6.043 -0.2227  0.1821 -0.2569
   55CHL1   H4A 4002   0.046   1.725   6.002 -1.5111  0.8602  1.6381
   55CHL1   H4B 4003  -0.042   1.575   6.010 -0.7317  1.1908 -0.2202
   55CHL1    C5 4004   0.079   1.631   6.197  0.3034 -0.0586  0.8338
   55CHL1    C6 4005  -0.010   1.592   6.289  0.2848 -0.2722 -0.1321
   55CHL1    H6 4006  -0.102   1.538   6.265  0.1528 -0.2265  0.2621
   55CHL1    C7 4007   0.009   1.637   6.433  0.0081  0.2444  0.6344
   55CHL1   H7A 4008  -0.094   1.661   6.465 -0.4292  0.9468 -1.2258
   55CHL1   H7B 4009   0.048   1.547   6.486  1.5611 -0.5330 -1.6869
   55CHL1    C8 4010   0.114   1.744   6.469  0.0286 -0.9140  0.0470
   55CHL1    H8 4011   0.076   1.840   6.428  0.5822 -1.1157 -0.9701
   55CHL1   C14 4012   0.147   1.741   6.617 -0.2434 -0.2105  0.3025
   55CHL1   H14 4013   0.197   1.644   6.639  1.0682  0.7504  1.5601
   55CHL1   C15 4014   0.027   1.753   6.710 -0.1558  0.0618 -0.8748
   55CHL1  H15A 4015  -0.034   1.839   6.675  0.6912  0.4725 -1.3613
   55CHL1  H15B 4016  -0.034   1.661   6.696 -0.6926  0.3257 -0.2961
   55CHL1   C16 4017   0.084   1.779   6.847  0.0226  0.1198 -0.0063
   55CHL1  H16A 4018   0.026   1.852   6.906  1.2910  0.6763  0.5617
   55CHL1  H16B 4019   0.082   1.693   6.918 -2.5781  1.8749  2.1527
   55CHL1   C17 4020   0.237   1.819   6.823  0.0773 -0.1436  0.1156
   55CHL1   H17 4021   0.293   1.727   6.849 -0.7414 -0.3012  1.3347
   55CHL1   C13 4022   0.247   1.844   6.666 -0.3131  0.0101  0.3136
   55CHL1   C18 4023   0.212   1.990   6.622  0.0862  0.6401  0.0166
   55CHL1  H18A 4024   0.301   2.055   6.635  0.9630 -0.5629  0.1121
   55CHL1  H18B 4025   0.171   1.995   6.519 -0.4648  1.6585  0.2768
   55CHL1  H18C 4026   0.126   2.027   6.683 -0.7701 -0.9979 -0.1699
   55CHL1   C12 4027   0.370   1.794   6.590  0.3219  0.3884 -0.2043
   55CHL1  H12A 4028   0.461   1.853   6.616  0.7086  0.7667 -2.3880
   55CHL1  H12B 4029   0.390   1.688   6.617  2.1543  0.8067  0.1845
   55CHL1   C11 4030   0.356   1.795   6.439 -0.0145  0.2587 -0.1250
   55CHL1  H11A 4031   0.356   1.900   6.404 -0.9652  0.1005 -0.6062
   55CHL1  H11B 4032   0.448   1.748   6.399  0.6979  1.1790  0.4141
   55CHL1    C9 4033   0.244   1.710   6.393  0.2422 -0.0760 -0.1365
   55CHL1    H9 4034   0.271   1.604   6.411  0.5140 -0.0689 -0.4966
   55CHL1   C10 4035   0.208   1.716   6.234 -0.1465  0.0579 -0.6664
   55CHL1   C19 4036   0.195   1.868   6.189 -0.4312 -0.3118 -0.8624
   55CHL1  H19A 4037   0.184   1.871   6.078 -1.4145 -0.6540 -0.7783
   55CHL1  H19B 4038   0.110   1.913   6.244  0.6300 -0.7644  1.2093
   55CHL1  H19C 4039   0.288   1.919   6.222 -0.4005 -2.1991  2.1554
   55CHL1    C1 4040   0.337   1.661   6.155  0.1952 -0.4808  0.4749
   55CHL1   H1A 4041   0.412   1.741   6.169 -0.1511 -0.1362  0.3821
   55CHL1   H1B 4042   0.357   1.564   6.205 -1.7283 -0.5601  1.1562
   55CHL1    C2 4043   0.302   1.632   6.007  0.3422 -0.2679  0.6219
   55CHL1   H2A 4044   0.388   1.575   5.965  0.3730  0.8546 -0.8518
   55CHL1   H2B 4045   0.305   1.724   5.945  0.0298 -0.4735  0.2999
   55CHL1   C20 4046   0.303   1.920   6.918  0.4140 -0.1134 -0.4009
   55CHL1   H20 4047   0.253   2.018   6.907 -0.8847 -0.7233  0.0068
   55CHL1   C21 4048   0.452   1.928   6.885  0.2175 -0.3983  0.1087
   55CHL1  H21A 4049   0.461   1.975   6.785  1.8593 -2.8807 -0.9622
   55CHL1  H21B 4050   0.496   1.829   6.861 -0.1119 -0.6626  0.5938
   55CHL1  H21C 4051   0.508   1.975   6.969 -1.3559  0.9089  0.4363
   55CHL1   C22 4052   0.281   1.883   7.071 -0.5130 -0.1201  0.0298
   55CHL1  H22A 4053   0.172   1.873   7.088 -0.5730 -0.0689 -0.3326
   55CHL1  H22B 4054   0.330   1.785   7.088 -0.2284 -0.4485 -2.4732
   55CHL1   C23 4055   0.340   1.988   7.169 -0.2254 -0.4120  0.5952
   55CHL1  H23A 4056   0.314   1.956   7.272  3.8078  2.7139  2.7177
   55CHL1  H23B 4057   0.449   2.001   7.155 -0.5527 -1.5629 -3.7135
   55CHL1   C24 4058   0.298   2.128   7.147  0.7372 -0.8287 -0.1344
   55CHL1  H24A 4059   0.307   2.179   7.049 -1.1331  3.6622  1.9084
   55CHL1  H24B 4060   0.189   2.112   7.157  0.5693 -0.5251 -1.3880
   55CHL1   C25 4061   0.339   2.233   7.263 -0.2229 -1.0378  0.0924
   55CHL1   H25 4062   0.307   2.184   7.358  1.7710  2.4840  2.7118
   55CHL1   C26 4063   0.486   2.271   7.261  0.3215 -0.7019 -0.5159
   55CHL1  H26A 4064   0.508   2.334   7.350  0.9113 -0.5270 -0.7868
   55CHL1  H26B 4065   0.552   2.182   7.248  1.6462  0.4702 -1.9966
   55CHL1  H26C 4066   0.516   2.332   7.173 -2.5277  0.2087 -0.9095
   55CHL1   C27 4067   0.244   2.346   7.249 -0.1980  0.1617 -0.0526
   55CHL1  H27A 4068   0.138   2.314   7.244 -0.0454 -0.9643  2.7550
   55CHL1  H27B 4069   0.257   2.432   7.319 -1.3378 -0.7323  1.2718
   55CHL1  H27C 4070   0.263   2.379   7.145  2.1366 -0.2003  0.2249
   56CHL1    C3 4071   0.254   0.280   6.076  0.8821 -0.6209  0.5960
   56CHL1    H3 4072   0.201   0.378   6.077  0.8571 -0.5675 -1.9766
   56CHL1    O3 4073   0.281   0.255   5.940 -0.0321  0.1538  0.2290
   56CHL1   H3' 4074   0.202   0.211   5.907  0.1289 -1.0897  1.4777
   56CHL1    C4 4075   0.392   0.293   6.153 -0.2627 -0.0751 -0.1014
   56CHL1   H4A 4076   0.448   0.198   6.144 -1.6614 -1.0833  1.4228
   56CHL1   H4B 4077   0.455   0.371   6.105 -1.0187  0.3397 -0.4256
   56CHL1    C5 4078   0.369   0.322   6.301  0.2747 -1.0366 -0.4908
   56CHL1    C6 4079   0.432   0.422   6.362  0.6618 -0.6665  0.4698
   56CHL1    H6 4080   0.505   0.483   6.308 -0.3417 -0.6074 -0.8468
   56CHL1    C7 4081   0.406   0.460   6.509  0.6871 -0.4242 -0.0715
   56CHL1   H7A 4082   0.502   0.486   6.557  0.1214  0.7121  0.4625
   56CHL1   H7B 4083   0.334   0.544   6.502  1.5110  0.1017 -2.4247
   56CHL1    C8 4084   0.344   0.345   6.600 -0.1107 -0.6709  0.3212
   56CHL1    H8 4085   0.420   0.269   6.627 -0.5155 -1.0454  0.4188
   56CHL1   C14 4086   0.283   0.409   6.724  0.1505 -0.2554  0.5318
   56CHL1   H14 4087   0.204   0.478   6.686 -0.8324 -0.8300  1.4978
   56CHL1   C15 4088   0.377   0.492   6.803  0.1896 -0.7435 -0.7264
   56CHL1  H15A 4089   0.470   0.433   6.819  0.9284  0.6842  0.3250
   56CHL1  H15B 4090   0.400   0.591   6.758  1.7319 -0.7372  0.0340
   56CHL1   C16 4091   0.309   0.498   6.950 -0.5846  0.0234  0.1041
   56CHL1  H16A 4092   0.390   0.462   7.017  0.6824 -1.6101 -2.2777
   56CHL1  H16B 4093   0.285   0.601   6.986 -0.9964 -0.5728  1.5919
   56CHL1   C17 4094   0.188   0.401   6.933  0.3466 -0.1877 -0.2619
   56CHL1   H17 4095   0.110   0.469   6.893 -0.8945 -2.4577 -1.8126
   56CHL1   C13 4096   0.215   0.307   6.809  0.0405  0.3191  0.5899
   56CHL1   C18 4097   0.312   0.201   6.859  0.0944  0.3843  0.5807
   56CHL1  H18A 4098   0.287   0.141   6.949 -1.0286 -1.0626 -0.6465
   56CHL1  H18B 4099   0.324   0.121   6.783  0.2685 -0.5731  1.6116
   56CHL1  H18C 4100   0.412   0.242   6.884 -0.0266  1.1175 -0.1102
   56CHL1   C12 4101   0.101   0.249   6.726  1.1157  0.1888 -0.5595
   56CHL1  H12A 4102   0.051   0.174   6.790  1.7623 -0.2833 -0.5984
   56CHL1  H12B 4103   0.031   0.333   6.706 -0.3868 -0.7217  0.8188
   56CHL1   C11 4104   0.140   0.186   6.594 -0.8209 -0.6882  0.0222
   56CHL1  H11A 4105   0.194   0.090   6.600 -0.8888 -0.7399 -0.1888
   56CHL1  H11B 4106   0.049   0.166   6.533 -1.3317 -1.1525  0.9257
   56CHL1    C9 4107   0.231   0.286   6.516 -0.1035  0.2159 -0.5636
   56CHL1    H9 4108   0.155   0.364   6.492  0.2183  0.1696 -1.7835
   56CHL1   C10 4109   0.266   0.233   6.372  0.6364 -0.2978  0.5602
   56CHL1   C19 4110   0.338   0.091   6.389 -0.0976  0.3765  0.6956
   56CHL1  H19A 4111   0.267   0.017   6.432  1.8252 -2.4728 -0.8776
   56CHL1  H19B 4112   0.387   0.056   6.296 -0.3895  1.3394  0.1706
   56CHL1  H19C 4113   0.425   0.107   6.456  0.5390  4.0116 -0.8504
   56CHL1    C1 4114   0.141   0.211   6.289  0.3581 -0.3468  0.1228
   56CHL1   H1A 4115   0.085   0.120   6.317 -1.7657  0.6549 -0.7152
   56CHL1   H1B 4116   0.077   0.302   6.290  0.9352  0.1367 -2.5280
   56CHL1    C2 4117   0.170   0.179   6.141  0.4008 -0.2675 -0.3122
   56CHL1   H2A 4118   0.070   0.161   6.096 -0.3934 -1.2205  1.7461
   56CHL1   H2B 4119   0.233   0.089   6.125  0.2532 -0.6063  0.9393
   56CHL1   C20 4120   0.136   0.329   7.058 -0.5213 -0.3489  0.0209
   56CHL1   H20 4121   0.082   0.238   7.022 -0.7775 -0.7443  1.3509
   56CHL1   C21 4122   0.023   0.423   7.115  0.3492  0.2843 -0.8196
   56CHL1  H21A 4123  -0.042   0.355   7.174  0.0327  0.4484 -0.9830
   56CHL1  H21B 4124  -0.037   0.469   7.034 -1.2355 -1.5309 -0.7082
   56CHL1  H21C 4125   0.067   0.505   7.176 -1.6627  0.3997  0.5091
   56CHL1   C22 4126   0.235   0.305   7.179 -0.6929 -0.2810 -0.0391
   56CHL1  H22A 4127   0.326   0.253   7.142 -2.2478 -3.3222  0.2801
   56CHL1  H22B 4128   0.257   0.402   7.227  0.1733 -0.4742 -0.0422
   56CHL1   C23 4129   0.183   0.216   7.304 -0.4244 -0.6067 -0.7232
   56CHL1  H23A 4130   0.107   0.277   7.358  0.9854 -2.1652  3.1697
   56CHL1  H23B 4131   0.125   0.136   7.253 -0.6909 -0.7035 -0.2698
   56CHL1   C24 4132   0.287   0.166   7.405 -0.2635 -0.0537 -0.2442
   56CHL1  H24A 4133   0.348   0.082   7.364 -0.0682  0.4680 -1.0416
   56CHL1  H24B 4134   0.354   0.254   7.413  1.4550 -1.2658 -0.9297
   56CHL1   C25 4135   0.220   0.125   7.534 -0.0854 -0.0195  0.1017
   56CHL1   H25 4136   0.126   0.181   7.552 -0.8987 -0.3219 -2.8356
   56CHL1   C26 4137   0.171  -0.016   7.508 -1.0547  0.7414  0.4278
   56CHL1  H26A 4138   0.260  -0.082   7.508 -1.5089  0.1290  0.1061
   56CHL1  H26B 4139   0.117  -0.020   7.411 -2.3288 -2.6777  1.1992
   56CHL1  H26C 4140   0.103  -0.053   7.588 -1.1885  0.2428  0.0841
   56CHL1   C27 4141   0.317   0.135   7.653 -0.2106 -0.2899 -0.6005
   56CHL1  H27A 4142   0.291   0.052   7.723 -2.0502 -0.6624 -1.6894
   56CHL1  H27B 4143   0.418   0.130   7.606  0.0981  0.9075 -0.0764
   56CHL1  H27C 4144   0.297   0.233   7.701  1.9126 -0.0987 -0.0448
   57SAPC     N 4145   3.181   2.881   9.833 -0.2265 -0.4445 -0.0900
   57SAPC   C12 4146   3.101   2.959   9.734 -0.8120 -0.3642  1.3275
   57SAPC  H12A 4147   3.102   2.904   9.641  1.2974  2.2429 -0.2911
   57SAPC  H12B 4148   3.162   3.044   9.705 -1.5398  0.0331  0.9505
   57SAPC   C13 4149   3.108   2.758   9.871  0.0397 -0.4678 -0.3926
   57SAPC  H13A 4150   3.012   2.782   9.913  0.7958  0.5380  0.8028
   57SAPC  H13B 4151   3.090   2.694   9.786 -2.6061 -1.4311  0.8491
   57SAPC  H13C 4152   3.161   2.707   9.950  2.1547 -2.7640 -3.1984
   57SAPC   C14 4153   3.309   2.826   9.766  0.0335  0.8059 -0.6949
   57SAPC  H14A 4154   3.290   2.758   9.684 -0.8624  1.3033 -0.9077
   57SAPC  H14B 4155   3.369   2.908   9.729  1.5079  1.5046  3.0208
   57SAPC  H14C 4156   3.375   2.770   9.831 -1.3017 -0.6978 -0.5936
   57SAPC   C15 4157   3.211   2.954   9.957  0.1992 -0.2999  0.3150
   57SAPC  H15A 4158   3.120   2.979  10.008  1.2617  1.8418  1.2144
   57SAPC  H15B 4159   3.271   2.892  10.022  0.5720  0.0764  0.3328
   57SAPC  H15C 4160   3.268   3.044   9.938 -0.6883 -0.4553 -3.5737
   57SAPC   C11 4161   2.954   3.008   9.753 -0.1166  0.0285 -0.3335
   57SAPC  H11A 4162   2.881   2.925   9.759  0.2241 -0.3441 -1.2506
   57SAPC  H11B 4163   2.921   3.049   9.655  0.3830  0.7179 -0.2185
   57SAPC     P 4164   2.995   3.249   9.860  0.4194 -0.0713  0.2253
   57SAPC   O13 4165   2.907   3.338   9.781 -0.3903 -0.7918 -0.0887
   57SAPC   O14 4166   3.026   3.286  10.002 -0.2982 -0.9869  0.3277
   57SAPC   O12 4167   2.941   3.103   9.858  0.1680 -0.6795  0.1891
   57SAPC   O11 4168   3.130   3.259   9.783 -0.1782  0.3268  0.3760
   57SAPC    C1 4169   3.133   3.306   9.646  0.4596  0.5106 -0.6483
   57SAPC    HA 4170   3.215   3.256   9.590  0.1087  0.4820 -1.1464
   57SAPC    HB 4171   3.040   3.273   9.594 -0.3973 -0.7889  1.6331
   57SAPC    C2 4172   3.148   3.460   9.627  0.2822 -0.8353 -0.0251
   57SAPC    HS 4173   3.057   3.503   9.672  1.3124  0.9777  0.3601
   57SAPC   O21 4174   3.142   3.474   9.482 -0.3736 -0.1706 -0.3207
   57SAPC   C21 4175   3.114   3.604   9.443  0.0105  0.3855  0.1263
   57SAPC   O22 4176   3.081   3.691   9.519  0.0027 -0.2984  0.3739
   57SAPC   C22 4177   3.133   3.621   9.286  0.2251  0.0897 -0.3741
   57SAPC   H2R 4178   3.228   3.670   9.256 -0.2942  1.5188  0.2479
   57SAPC   H2S 4179   3.161   3.519   9.252  0.2606  0.3175 -1.0290
   57SAPC    C3 4180   3.270   3.517   9.695 -1.0683 -0.3420  0.1999
   57SAPC    HX 4181   3.261   3.485   9.801 -0.7356  0.6363  0.5201
   57SAPC    HY 4182   3.265   3.627   9.683  1.7842 -0.0561  1.1709
   57SAPC   O31 4183   3.389   3.463   9.630 -0.4375  0.2502  0.2983
   57SAPC   C31 4184   3.449   3.545   9.542  0.8162 -0.3278 -0.5652
   57SAPC   O32 4185   3.412   3.657   9.515 -1.3848  0.4695 -0.3467
   57SAPC   C32 4186   3.561   3.477   9.474  0.3451  0.0133 -0.4652
   57SAPC   H2X 4187   3.590   3.384   9.528  1.6753  0.5201 -0.2793
   57SAPC   H2Y 4188   3.647   3.545   9.457 -0.3121  1.4675  1.8279
   57SAPC   C23 4189   3.015   3.660   9.203  0.4267 -0.9382 -1.0023
   57SAPC   H3R 4190   2.978   3.751   9.255  1.6348 -0.4714 -0.9294
   57SAPC   H3S 4191   2.939   3.579   9.207  0.6757 -1.1194  0.1314
   57SAPC   C24 4192   3.052   3.693   9.058  0.7159  0.4812  0.3060
   57SAPC   H4R 4193   3.071   3.601   8.999 -0.0382  1.0040 -0.7800
   57SAPC   H4S 4194   3.137   3.764   9.052  1.7984 -0.7488  0.7256
   57SAPC   C25 4195   2.931   3.763   8.998 -0.4438  0.1819 -0.2336
   57SAPC   H5R 4196   2.876   3.822   9.073  1.1324  2.0768 -0.5239
   57SAPC   C26 4197   2.880   3.749   8.875  1.0245 -0.8187  0.1655
   57SAPC   H6R 4198   2.791   3.811   8.859  1.2842 -0.8990 -1.6982
   57SAPC   C27 4199   2.935   3.676   8.756 -0.3996 -0.0342 -0.0702
   57SAPC   H7R 4200   2.869   3.590   8.733  1.5389 -1.4505 -0.4353
   57SAPC   H7S 4201   3.039   3.641   8.773  0.1510 -0.0077 -3.1147
   57SAPC   C28 4202   2.947   3.766   8.631 -0.2865 -0.5532  0.9460
   57SAPC   H8R 4203   2.957   3.874   8.653  2.5711 -0.4899 -0.4560
   57SAPC   C29 4204   2.952   3.720   8.504 -0.1038  0.5444 -0.2655
   57SAPC   H9R 4205   2.948   3.794   8.422 -0.2993  1.0582  0.2112
   57SAPC  C210 4206   2.927   3.573   8.468 -0.7226 -1.0590 -0.4525
   57SAPC  H10R 4207   2.981   3.511   8.542 -2.7842 -1.6481  0.5987
   57SAPC  H10S 4208   2.974   3.550   8.370  0.7189  0.4610 -0.1375
   57SAPC  C211 4209   2.778   3.542   8.452  0.4045  0.4805 -0.0585
   57SAPC  H11R 4210   2.703   3.579   8.523 -1.5790 -1.2615 -1.1852
   57SAPC  C212 4211   2.727   3.464   8.351 -0.2812 -0.9486 -0.1143
   57SAPC  H12R 4212   2.621   3.435   8.356 -0.7970  1.0870  1.5675
   57SAPC  C213 4213   2.803   3.392   8.248  0.6976  0.1085 -0.0860
   57SAPC  H13R 4214   2.911   3.380   8.274  1.0749  2.1298 -0.6565
   57SAPC  H13S 4215   2.790   3.455   8.158  0.0356  0.8493  0.5176
   57SAPC  C214 4216   2.760   3.245   8.232 -0.4020  0.2234 -0.1023
   57SAPC  H14R 4217   2.775   3.184   8.322  3.4457  1.4454  0.1710
   57SAPC  C215 4218   2.726   3.191   8.111 -0.5884 -0.1347 -0.7846
   57SAPC  H15R 4219   2.718   3.081   8.103  1.1209 -0.1600 -2.5921
   57SAPC  C216 4220   2.728   3.256   7.972  0.3031  0.3182 -0.0900
   57SAPC  H16R 4221   2.757   3.363   7.973  1.3303  0.0476  1.2329
   57SAPC  H16S 4222   2.621   3.264   7.943  0.0856 -0.8988  0.3549
   57SAPC  C217 4223   2.815   3.192   7.862 -0.0555 -0.0256 -0.0903
   57SAPC  H17R 4224   2.779   3.252   7.775 -0.4828  1.9684  1.4370
   57SAPC  H17S 4225   2.787   3.085   7.856  0.2195 -0.1644  1.0753
   57SAPC  C218 4226   2.968   3.197   7.880  0.0843 -0.1271 -0.2488
   57SAPC  H18R 4227   2.988   3.122   7.960 -0.0483 -1.1646 -1.1714
   57SAPC  H18S 4228   2.987   3.294   7.930  1.1062  0.0225 -0.9132
   57SAPC  C219 4229   3.044   3.161   7.753  0.8383  0.8347 -0.4755
   57SAPC  H19R 4230   3.031   3.241   7.677  0.9782  2.0839  0.7859
   57SAPC  H19S 4231   2.990   3.076   7.708  0.6517 -0.6847  2.4905
   57SAPC  C220 4232   3.189   3.122   7.789  0.3911  0.3880 -0.6775
   57SAPC  H20R 4233   3.247   3.097   7.697  0.5907 -0.3273 -0.3584
   57SAPC  H20S 4234   3.182   3.035   7.858 -1.2699 -1.1154 -2.6774
   57SAPC  H20T 4235   3.239   3.199   7.851  0.2141 -1.2385  1.5246
   57SAPC   C33 4236   3.520   3.434   9.324  0.4040 -0.4973 -0.6622
   57SAPC   H3X 4237   3.622   3.426   9.278  0.4610  1.6772 -0.9821
   57SAPC   H3Y 4238   3.462   3.514   9.273  1.4136  0.8258  0.2296
   57SAPC   C34 4239   3.460   3.293   9.313  0.2194  0.4736 -0.2901
   57SAPC   H4X 4240   3.354   3.299   9.345  0.0250 -0.7862 -0.6539
   57SAPC   H4Y 4241   3.510   3.221   9.381 -0.2943  0.9940  0.6358
   57SAPC   C35 4242   3.463   3.230   9.171 -0.1086  0.1982  0.3818
   57SAPC   H5X 4243   3.377   3.160   9.161  2.2407 -2.8220  0.5416
   57SAPC   H5Y 4244   3.558   3.177   9.152  1.8163  3.3670  0.7932
   57SAPC   C36 4245   3.450   3.337   9.062  0.5651 -0.4581  0.3398
   57SAPC   H6X 4246   3.541   3.401   9.061  1.0206 -1.0952  0.4531
   57SAPC   H6Y 4247   3.360   3.400   9.076 -0.1743 -1.4981  0.3312
   57SAPC   C37 4248   3.430   3.278   8.920  0.8366  0.2454  0.1000
   57SAPC   H7X 4249   3.372   3.352   8.861 -0.2045 -1.6815 -1.3493
   57SAPC   H7Y 4250   3.370   3.185   8.920 -0.1239  0.8634 -0.4753
   57SAPC   C38 4251   3.570   3.243   8.862 -0.0139 -0.2618  0.4832
   57SAPC   H8X 4252   3.618   3.166   8.928 -1.5414 -0.1931  1.7135
   57SAPC   H8Y 4253   3.619   3.342   8.868 -0.0534 -0.2207  0.1021
   57SAPC   C39 4254   3.575   3.209   8.709 -0.3590  0.1682 -0.2985
   57SAPC   H9X 4255   3.512   3.283   8.655 -1.2845  1.4338  2.4718
   57SAPC   H9Y 4256   3.527   3.111   8.687 -0.0197 -0.2473  0.8162
   57SAPC  C310 4257   3.716   3.197   8.666  0.0026 -0.3944 -0.1833
   57SAPC  H10X 4258   3.751   3.095   8.694  0.3045  0.0037  0.9059
   57SAPC  H10Y 4259   3.767   3.280   8.719  0.9975 -0.7705 -0.5454
   57SAPC  C311 4260   3.729   3.213   8.520  0.4483 -0.0388 -0.0352
   57SAPC  H11X 4261   3.695   3.316   8.494  0.5768 -0.4966 -2.0221
   57SAPC  H11Y 4262   3.659   3.137   8.479  2.6969 -1.8842 -0.5112
   57SAPC  C312 4263   3.878   3.208   8.466 -0.4188  0.0301  0.0895
   57SAPC  H12X 4264   3.905   3.108   8.507  1.0591  0.1119 -0.6684
   57SAPC  H12Y 4265   3.939   3.284   8.518  0.1199 -0.3960  0.0867
   57SAPC  C313 4266   3.895   3.190   8.320  0.4736  0.6256 -0.1309
   57SAPC  H13X 4267   3.872   3.281   8.260  1.4833  1.9176  1.4063
   57SAPC  H13Y 4268   3.810   3.122   8.299  0.0915  0.1557  2.7907
   57SAPC  C314 4269   4.019   3.120   8.264  0.4475  0.3542 -0.5441
   57SAPC  H14X 4270   4.020   3.020   8.311 -0.2523  0.9230  0.7108
   57SAPC  H14Y 4271   4.112   3.172   8.295  1.5943 -1.7009 -0.4296
   57SAPC  C315 4272   4.025   3.108   8.109 -0.2069 -0.2642 -0.3022
   57SAPC  H15X 4273   4.041   3.211   8.072 -3.4256  0.0500 -0.9473
   57SAPC  H15Y 4274   3.942   3.070   8.045 -1.5160  1.1243  0.5286
   57SAPC  C316 4275   4.145   3.029   8.069 -0.6686  0.5555 -0.0657
   57SAPC  H16X 4276   4.142   2.923   8.100  0.2435  1.0021  1.6530
   57SAPC  H16Y 4277   4.237   3.067   8.118  0.1491 -1.9935  0.4305
   57SAPC  C317 4278   4.166   3.004   7.914 -0.0214 -0.1206 -0.2516
   57SAPC  H17X 4279   4.251   2.936   7.894  0.8648 -0.1346  3.3594
   57SAPC  H17Y 4280   4.186   3.103   7.866 -1.2102  1.7082  2.8795
   57SAPC  C318 4281   4.044   2.929   7.854  0.2495 -0.2593  0.6973
   57SAPC  H18X 4282   3.965   3.002   7.828  0.9061  0.3905  0.5131
   57SAPC  H18Y 4283   4.003   2.847   7.917  2.3462  0.1605  2.6631
   57SAPC  H18Z 4284   4.082   2.885   7.758 -2.0288  1.1466 -0.8897
   58SAPC     N 4285   4.777   1.612  10.136  0.4401 -0.4192 -0.8377
   58SAPC   C12 4286   4.738   1.583   9.994 -0.0421  0.1613  0.0026
   58SAPC  H12A 4287   4.630   1.583   9.985 -0.0989  0.8010  0.6397
   58SAPC  H12B 4288   4.767   1.481   9.977 -0.7696  0.0412 -0.5571
   58SAPC   C13 4289   4.925   1.637  10.147 -0.5835 -0.5159 -0.1967
   58SAPC  H13A 4290   4.975   1.553  10.103  2.1473  0.3957  1.0841
   58SAPC  H13B 4291   4.947   1.724  10.087 -1.4475  0.2249  0.5345
   58SAPC  H13C 4292   4.954   1.655  10.249 -0.3962 -0.2058 -0.3059
   58SAPC   C14 4293   4.702   1.732  10.183  0.1313  0.3872 -0.2310
   58SAPC  H14A 4294   4.730   1.816  10.122  0.1978  1.9889  1.9838
   58SAPC  H14B 4295   4.596   1.711  10.188  0.3694 -0.8899 -0.2479
   58SAPC  H14C 4296   4.728   1.755  10.285 -0.8683  0.2343  0.0655
   58SAPC   C15 4297   4.739   1.494  10.222 -0.3648  0.4412 -0.3830
   58SAPC  H15A 4298   4.789   1.408  10.180  0.7990  1.6932 -1.5689
   58SAPC  H15B 4299   4.789   1.502  10.318  0.1009  1.6575 -0.7204
   58SAPC  H15C 4300   4.633   1.482  10.241 -0.2283  0.7634  0.6565
   58SAPC   C11 4301   4.788   1.669   9.880  0.0800 -0.5718 -0.5992
   58SAPC  H11A 4302   4.753   1.632   9.782  1.1655  0.2673 -1.3242
   58SAPC  H11B 4303   4.898   1.661   9.863  0.3154 -1.8105  1.3571
   58SAPC     P 4304   4.601   1.849   9.879 -0.0970  0.1161  0.2354
   58SAPC   O13 4305   4.513   1.769   9.970  0.2822 -0.0058  0.4082
   58SAPC   O14 4306   4.595   1.996   9.906 -0.2371  0.7051 -0.4174
   58SAPC   O12 4307   4.746   1.801   9.901 -0.2622 -0.2009  0.6652
   58SAPC   O11 4308   4.569   1.820   9.730 -0.4848 -0.4448 -0.1745
   58SAPC    C1 4309   4.659   1.851   9.625 -0.4429  0.2139 -0.9013
   58SAPC    HA 4310   4.685   1.959   9.626  0.6068 -0.0432 -0.0272
   58SAPC    HB 4311   4.752   1.795   9.645  0.1399  1.2453 -0.7038
   58SAPC    C2 4312   4.607   1.818   9.478  0.5507 -0.1891 -0.3188
   58SAPC    HS 4313   4.696   1.829   9.414  0.9031  0.1153  0.2173
   58SAPC   O21 4314   4.506   1.914   9.442 -0.0681 -0.1123  0.5166
   58SAPC   C21 4315   4.551   2.016   9.364 -0.0731 -0.2598 -0.7767
   58SAPC   O22 4316   4.656   2.018   9.306 -0.6263  0.1892  0.8685
   58SAPC   C22 4317   4.453   2.140   9.360 -0.7356  0.0827 -0.3967
   58SAPC   H2R 4318   4.361   2.107   9.307  0.1450 -1.1118 -1.2305
   58SAPC   H2S 4319   4.443   2.169   9.467 -3.6101  1.4326 -0.9841
   58SAPC    C3 4320   4.558   1.666   9.455  0.1764 -0.5335  0.1540
   58SAPC    HX 4321   4.492   1.630   9.537 -0.3774 -0.4086 -0.2349
   58SAPC    HY 4322   4.647   1.599   9.452 -0.8605 -1.8935 -2.7870
   58SAPC   O31 4323   4.482   1.656   9.334  0.1396  0.3839 -0.0743
   58SAPC   C31 4324   4.461   1.528   9.298  0.7612 -0.3128 -0.0242
   58SAPC   O32 4325   4.517   1.435   9.350  0.5694  0.0480 -0.3141
   58SAPC   C32 4326   4.357   1.525   9.190 -0.6211 -0.1072  0.0362
   58SAPC   H2X 4327   4.407   1.490   9.097 -1.0631 -1.0791  0.1644
   58SAPC   H2Y 4328   4.313   1.624   9.163 -0.4477 -0.4769 -1.6730
   58SAPC   C23 4329   4.523   2.264   9.289  0.7391  0.1329 -0.0364
   58SAPC   H3R 4330   4.632   2.264   9.310  0.6722  0.0286  0.3133
   58SAPC   H3S 4331   4.488   2.361   9.330 -0.5877 -0.5416  0.4489
   58SAPC   C24 4332   4.503   2.260   9.128  0.5820  0.3566  0.8603
   58SAPC   H4R 4333   4.505   2.152   9.102  0.6624 -0.2806  3.4302
   58SAPC   H4S 4334   4.590   2.302   9.073  0.0759  0.0134 -0.2083
   58SAPC   C25 4335   4.377   2.320   9.074  0.5468 -0.0295  0.4268
   58SAPC   H5R 4336   4.300   2.349   9.147  0.8567  0.6961  0.4723
   58SAPC   C26 4337   4.360   2.355   8.948 -0.0514  0.0147 -0.2196
   58SAPC   H6R 4338   4.277   2.420   8.918  2.1195  1.8797 -2.4006
   58SAPC   C27 4339   4.453   2.320   8.833 -0.5079  0.6089  0.2218
   58SAPC   H7R 4340   4.545   2.268   8.869 -0.7739 -1.2601 -1.6817
   58SAPC   H7S 4341   4.500   2.411   8.791  0.8935 -1.0073 -1.8507
   58SAPC   C28 4342   4.395   2.229   8.731  0.8004 -1.0299 -0.3540
   58SAPC   H8R 4343   4.381   2.124   8.763  1.3776 -0.7961  0.6738
   58SAPC   C29 4344   4.347   2.266   8.613  0.0904 -0.5278  0.2367
   58SAPC   H9R 4345   4.322   2.187   8.541  2.8626 -1.2011 -0.0269
   58SAPC  C210 4346   4.343   2.405   8.558 -0.1546  0.1498  0.1728
   58SAPC  H10R 4347   4.317   2.479   8.637  1.4962  1.9218 -0.9082
   58SAPC  H10S 4348   4.259   2.418   8.487  1.7506  1.3619 -1.8920
   58SAPC  C211 4349   4.479   2.441   8.500 -0.7299  0.3709 -0.6484
   58SAPC  H11R 4350   4.563   2.436   8.571 -1.1066 -1.0537 -0.2947
   58SAPC  C212 4351   4.499   2.498   8.383  0.1268 -0.4704  0.2700
   58SAPC  H12R 4352   4.601   2.534   8.365 -0.0553  0.8431  1.8213
   58SAPC  C213 4353   4.394   2.523   8.276 -0.1853 -0.1201  0.5248
   58SAPC  H13R 4354   4.322   2.602   8.307  0.8098  0.8762  0.3195
   58SAPC  H13S 4355   4.331   2.434   8.257 -1.7349  0.9836  0.3905
   58SAPC  C214 4356   4.450   2.578   8.151 -0.1880  0.1195 -0.2205
   58SAPC  H14R 4357   4.440   2.688   8.150  2.6483  0.4255  1.1052
   58SAPC  C215 4358   4.519   2.516   8.047 -0.5113 -0.2366 -0.2508
   58SAPC  H15R 4359   4.568   2.578   7.971  1.7542  0.5172  1.7267
   58SAPC  C216 4360   4.557   2.366   8.049  0.0515 -0.7891 -0.1004
   58SAPC  H16R 4361   4.509   2.317   7.961  0.7315 -0.1575 -0.8195
   58SAPC  H16S 4362   4.511   2.324   8.142 -1.3845 -0.3418 -0.6007
   58SAPC  C217 4363   4.709   2.349   8.031  0.5637  0.2005  0.6482
   58SAPC  H17R 4364   4.747   2.416   7.952  0.3933  0.9438  1.1888
   58SAPC  H17S 4365   4.737   2.247   7.997  2.6700  0.4230  1.6028
   58SAPC  C218 4366   4.779   2.383   8.166  0.2367  0.0719  0.0524
   58SAPC  H18R 4367   4.755   2.290   8.222 -0.4230 -1.0460 -2.0131
   58SAPC  H18S 4368   4.727   2.472   8.206  3.1875  0.9286  2.1572
   58SAPC  C219 4369   4.931   2.397   8.170 -1.0065 -0.7649 -0.2759
   58SAPC  H19R 4370   4.949   2.408   8.280  1.0565  0.1360 -0.6716
   58SAPC  H19S 4371   4.958   2.496   8.129 -0.0262 -0.6920  0.5016
   58SAPC  C220 4372   5.021   2.293   8.100  0.3237 -0.0138 -0.2032
   58SAPC  H20R 4373   4.999   2.279   7.992 -3.0414  0.8210  0.3212
   58SAPC  H20S 4374   5.011   2.204   8.165 -1.3078  0.1134 -0.2606
   58SAPC  H20T 4375   5.126   2.325   8.111 -0.2125  1.7063  0.0283
   58SAPC   C33 4376   4.256   1.410   9.197  0.1806  0.2529  0.3220
   58SAPC   H3X 4377   4.189   1.423   9.284 -0.6423 -0.6897 -0.1678
   58SAPC   H3Y 4378   4.318   1.319   9.209 -0.6484 -0.2359  0.8796
   58SAPC   C34 4379   4.164   1.399   9.072 -0.1370 -0.2951  0.1648
   58SAPC   H4X 4380   4.227   1.376   8.984 -0.6968  0.1650 -0.3566
   58SAPC   H4Y 4381   4.121   1.501   9.063  0.2550  0.3384  4.4391
   58SAPC   C35 4382   4.053   1.299   9.095  0.5788  0.2468 -0.4638
   58SAPC   H5X 4383   3.996   1.340   9.180  0.9425  0.4553 -0.3185
   58SAPC   H5Y 4384   4.097   1.208   9.140  0.0517  0.0337 -0.3788
   58SAPC   C36 4385   3.970   1.274   8.970 -0.7962  0.6456 -0.0406
   58SAPC   H6X 4386   3.883   1.212   9.002  0.4190  0.9793  4.2181
   58SAPC   H6Y 4387   4.031   1.213   8.900 -0.3753  1.6411 -0.5446
   58SAPC   C37 4388   3.920   1.400   8.896 -0.5642  0.2461 -0.4783
   58SAPC   H7X 4389   3.996   1.478   8.876  0.8441 -1.1925 -0.8935
   58SAPC   H7Y 4390   3.842   1.445   8.961 -0.1343  1.8322 -1.0490
   58SAPC   C38 4391   3.866   1.373   8.755 -0.1296  0.5763 -0.2828
   58SAPC   H8X 4392   3.805   1.463   8.732  0.7003  0.9458 -1.0578
   58SAPC   H8Y 4393   3.796   1.286   8.749  1.1466 -0.6274  1.7134
   58SAPC   C39 4394   3.974   1.364   8.647  0.3179 -0.0192  0.5194
   58SAPC   H9X 4395   4.044   1.282   8.674  0.4083 -0.1407 -0.0877
   58SAPC   H9Y 4396   4.036   1.456   8.656  1.0108 -0.3017 -1.1513
   58SAPC  C310 4397   3.913   1.346   8.507 -0.2348 -0.5557  0.4019
   58SAPC  H10X 4398   3.811   1.302   8.518 -0.5546 -0.2594 -1.2661
   58SAPC  H10Y 4399   3.975   1.273   8.452  1.0266  1.0583 -0.3677
   58SAPC  C311 4400   3.894   1.479   8.428  0.1142  0.4593 -0.3855
   58SAPC  H11X 4401   3.987   1.511   8.376  0.8976  0.6674  1.1103
   58SAPC  H11Y 4402   3.886   1.547   8.516  0.1420 -2.8681  2.2832
   58SAPC  C312 4403   3.770   1.497   8.334 -0.6175 -0.2385 -0.3515
   58SAPC  H12X 4404   3.675   1.468   8.383  0.4821 -3.1301  0.2268
   58SAPC  H12Y 4405   3.785   1.422   8.252  1.9004 -1.9133  1.5576
   58SAPC  C313 4406   3.762   1.641   8.265 -0.0652  0.5632  0.5419
   58SAPC  H13X 4407   3.855   1.672   8.212 -0.8735  2.1144 -0.0141
   58SAPC  H13Y 4408   3.744   1.717   8.344 -0.2888  1.2969 -0.2006
   58SAPC  C314 4409   3.650   1.664   8.164  0.0583 -0.6041 -0.1381
   58SAPC  H14X 4410   3.552   1.635   8.207  0.7036 -0.7930  1.2274
   58SAPC  H14Y 4411   3.665   1.598   8.076  0.5186 -0.8123  0.0968
   58SAPC  C315 4412   3.633   1.807   8.105 -0.1592 -0.1629 -0.1672
   58SAPC  H15X 4413   3.614   1.880   8.186  2.1039 -0.0484  0.3010
   58SAPC  H15Y 4414   3.549   1.804   8.033 -1.9136  3.1060  1.6333
   58SAPC  C316 4415   3.758   1.850   8.026  0.0095 -0.1185  0.2121
   58SAPC  H16X 4416   3.797   1.761   7.973  0.1525 -0.5092  0.9702
   58SAPC  H16Y 4417   3.837   1.876   8.100  1.2554 -2.0906 -0.3922
   58SAPC  C317 4418   3.730   1.958   7.926  0.1815  1.1362  0.9722
   58SAPC  H17X 4419   3.626   1.933   7.896  0.3968  0.3836  0.8281
   58SAPC  H17Y 4420   3.802   1.930   7.846 -2.5293 -4.8213  0.3793
   58SAPC  C318 4421   3.744   2.099   7.985 -0.6786 -0.0068 -0.1954
   58SAPC  H18X 4422   3.670   2.168   7.939 -0.2196  1.2431  0.9050
   58SAPC  H18Y 4423   3.846   2.123   7.948 -0.3963 -1.6719 -0.5235
   58SAPC  H18Z 4424   3.728   2.105   8.095  0.4470  0.8481 -0.0695
   59SAPC     N 4425   6.200   1.493   9.696 -0.4454 -0.4751  0.2892
   59SAPC   C12 4426   6.310   1.584   9.748 -0.4445  0.1626  1.2570
   59SAPC  H12A 4427   6.372   1.606   9.662 -1.6368  0.6973  0.5298
   59SAPC  H12B 4428   6.371   1.530   9.819 -1.4547 -0.4007  1.6874
   59SAPC   C13 4429   6.104   1.563   9.606 -0.2019 -0.6800 -1.0076
   59SAPC  H13A 4430   6.017   1.500   9.593 -1.2585  0.1424  1.7346
   59SAPC  H13B 4431   6.063   1.652   9.651 -3.0299 -1.7279 -1.3958
   59SAPC  H13C 4432   6.149   1.596   9.514  1.9549 -1.1626 -0.1563
   59SAPC   C14 4433   6.271   1.381   9.623 -0.0557 -0.1291 -0.5197
   59SAPC  H14A 4434   6.213   1.290   9.616 -4.2237  2.4352 -1.4470
   59SAPC  H14B 4435   6.289   1.407   9.520 -2.1493 -0.2475 -0.9402
   59SAPC  H14C 4436   6.361   1.350   9.673 -0.5956  0.3274  0.7569
   59SAPC   C15 4437   6.126   1.427   9.808 -0.3940  0.3089 -0.0647
   59SAPC  H15A 4438   6.067   1.497   9.866 -3.9636 -3.0745  0.6322
   59SAPC  H15B 4439   6.051   1.355   9.777  1.4110 -1.3937 -0.5632
   59SAPC  H15C 4440   6.204   1.384   9.869 -0.9584 -0.0152  0.4389
   59SAPC   C11 4441   6.264   1.721   9.816  0.5471 -0.0953  0.1408
   59SAPC  H11A 4442   6.345   1.765   9.879 -0.7160  1.8467  0.4361
   59SAPC  H11B 4443   6.180   1.702   9.886  0.9769 -0.0340  0.6758
   59SAPC     P 4444   6.332   1.893   9.630 -0.0508 -0.2035 -0.1362
   59SAPC   O13 4445   6.403   1.987   9.724  0.1969 -0.2894 -0.0239
   59SAPC   O14 4446   6.421   1.803   9.553  0.6207  0.5843 -0.0379
   59SAPC   O12 4447   6.228   1.808   9.712 -0.1399  0.0730 -0.0368
   59SAPC   O11 4448   6.226   1.963   9.534  0.1097 -0.0805 -0.0517
   59SAPC    C1 4449   6.111   1.909   9.467  0.3008  0.5435  0.2487
   59SAPC    HA 4450   6.102   1.801   9.492  0.1104  0.7587  1.1595
   59SAPC    HB 4451   6.010   1.951   9.489 -0.4340 -0.4219 -1.2072
   59SAPC    C2 4452   6.122   1.940   9.315 -0.0695 -0.3244  1.2572
   59SAPC    HS 4453   6.026   1.915   9.265 -0.2529  2.0500  0.4013
   59SAPC   O21 4454   6.227   1.866   9.250 -0.5819  0.3191  0.5645
   59SAPC   C21 4455   6.215   1.737   9.249  0.6499  0.2342  0.4966
   59SAPC   O22 4456   6.118   1.675   9.292  0.2994  0.4556 -0.2363
   59SAPC   C22 4457   6.340   1.684   9.189 -0.4496 -0.0375  0.4481
   59SAPC   H2R 4458   6.378   1.743   9.104 -0.2624 -1.3853 -0.4254
   59SAPC   H2S 4459   6.419   1.689   9.267 -2.5041  2.5787  2.4682
   59SAPC    C3 4460   6.147   2.096   9.293 -0.0795  0.1172  0.2925
   59SAPC    HX 4461   6.254   2.117   9.315  0.1981 -1.2531  0.2735
   59SAPC    HY 4462   6.086   2.144   9.373 -0.3825  0.6127 -0.2350
   59SAPC   O31 4463   6.110   2.150   9.158 -0.0588  0.5563  0.0915
   59SAPC   C31 4464   6.192   2.235   9.097  0.0594 -0.9049 -0.4264
   59SAPC   O32 4465   6.296   2.278   9.137 -0.1261  0.6621 -0.1471
   59SAPC   C32 4466   6.148   2.266   8.952  0.4201  0.2724  0.2941
   59SAPC   H2X 4467   6.177   2.373   8.938 -0.1517  0.5888  1.4672
   59SAPC   H2Y 4468   6.038   2.254   8.951  0.3604  0.6718  1.1603
   59SAPC   C23 4469   6.322   1.536   9.119 -0.2548  0.4238  0.2778
   59SAPC   H3R 4470   6.268   1.457   9.176  0.6710 -0.6155 -0.2730
   59SAPC   H3S 4471   6.424   1.495   9.107 -0.9902 -0.6432 -2.7243
   59SAPC   C24 4472   6.243   1.541   8.985  0.6930  0.5477 -0.1487
   59SAPC   H4R 4473   6.140   1.582   8.990 -0.1346 -1.2262 -1.7630
   59SAPC   H4S 4474   6.236   1.434   8.955  0.9735  0.8723 -1.4017
   59SAPC   C25 4475   6.333   1.598   8.881 -0.8638  0.3350  0.1506
   59SAPC   H5R 4476   6.439   1.595   8.912 -0.9813 -2.3067  0.4433
   59SAPC   C26 4477   6.295   1.645   8.764  0.4434 -0.3519  0.0228
   59SAPC   H6R 4478   6.381   1.679   8.704 -1.8243  2.3202 -1.8055
   59SAPC   C27 4479   6.152   1.662   8.707  0.5523 -0.3534  0.4297
   59SAPC   H7R 4480   6.092   1.588   8.764  1.3425  1.2870  3.4923
   59SAPC   H7S 4481   6.150   1.644   8.598  0.2353 -0.3358  0.4326
   59SAPC   C28 4482   6.092   1.794   8.747  0.2118 -0.1730 -0.7590
   59SAPC   H8R 4483   6.119   1.819   8.851  0.1236  1.0036 -1.0139
   59SAPC   C29 4484   6.016   1.890   8.685  0.2233  0.5910  0.1282
   59SAPC   H9R 4485   5.978   1.978   8.738 -2.4977 -0.5022  0.0616
   59SAPC  C210 4486   5.976   1.874   8.537 -0.1663  0.7760 -0.0040
   59SAPC  H10R 4487   5.875   1.917   8.519 -0.3742  0.5292  0.5589
   59SAPC  H10S 4488   5.959   1.767   8.512  0.1989  0.8173 -0.4331
   59SAPC  C211 4489   6.075   1.918   8.437  0.1885  0.5219 -0.3457
   59SAPC  H11R 4490   6.178   1.898   8.469 -0.1904 -0.0648  0.5064
   59SAPC  C212 4491   6.036   1.968   8.315 -0.7479  0.2945  0.0525
   59SAPC  H12R 4492   6.112   1.963   8.235  3.2042 -1.9506  3.7377
   59SAPC  C213 4493   5.893   1.989   8.266 -0.1287 -0.6684 -0.3151
   59SAPC  H13R 4494   5.899   2.071   8.191 -2.0956 -1.0992 -0.9669
   59SAPC  H13S 4495   5.839   2.040   8.348  1.9234  1.9299 -0.5055
   59SAPC  C214 4496   5.823   1.870   8.214  0.1077 -0.2696 -0.4181
   59SAPC  H14R 4497   5.883   1.778   8.227 -0.1789 -0.7056 -1.9971
   59SAPC  C215 4498   5.720   1.878   8.130 -0.2850 -0.3690  0.2057
   59SAPC  H15R 4499   5.675   1.784   8.093  1.4052 -0.9810 -0.3971
   59SAPC  C216 4500   5.656   2.006   8.081  0.3214 -0.0837  0.0549
   59SAPC  H16R 4501   5.660   2.006   7.970 -0.2940 -0.3443  0.0298
   59SAPC  H16S 4502   5.709   2.101   8.101  0.7968  0.1410 -2.1790
   59SAPC  C217 4503   5.503   2.027   8.102  0.4859 -0.0868 -0.5069
   59SAPC  H17R 4504   5.498   2.023   8.213 -0.5727 -1.0607 -0.5800
   59SAPC  H17S 4505   5.445   1.940   8.064  0.1308  0.1160 -0.4287
   59SAPC  C218 4506   5.450   2.164   8.065  0.4183 -0.8301 -0.7028
   59SAPC  H18R 4507   5.522   2.238   8.106 -2.1286  1.2055  0.2059
   59SAPC  H18S 4508   5.348   2.190   8.100  1.2764  1.1174  0.4356
   59SAPC  C219 4509   5.448   2.179   7.916 -0.4606 -0.4833 -0.2392
   59SAPC  H19R 4510   5.551   2.170   7.874 -0.4222 -3.0764  0.3498
   59SAPC  H19S 4511   5.407   2.280   7.895 -1.6008 -0.6170  1.2237
   59SAPC  C220 4512   5.352   2.083   7.857 -0.0360 -0.0532 -0.2196
   59SAPC  H20R 4513   5.315   2.122   7.760  0.1168 -1.7656 -0.9986
   59SAPC  H20S 4514   5.260   2.083   7.918  0.1903 -1.0785  0.1313
   59SAPC  H20T 4515   5.395   1.980   7.852  0.6059  0.1447  1.0176
   59SAPC   C33 4516   6.215   2.166   8.844 -0.3008 -0.0433  0.0427
   59SAPC   H3X 4517   6.167   2.068   8.869  1.6812 -0.9475  0.4256
   59SAPC   H3Y 4518   6.322   2.145   8.861 -0.3351 -1.6228 -1.6008
   59SAPC   C34 4519   6.194   2.194   8.699  0.2502 -0.1758 -0.0409
   59SAPC   H4X 4520   6.087   2.217   8.683  0.6296  1.0211 -0.9967
   59SAPC   H4Y 4521   6.209   2.101   8.640  2.0828 -1.5436  2.4955
   59SAPC   C35 4522   6.274   2.308   8.643  0.8181  0.6778  0.4415
   59SAPC   H5X 4523   6.368   2.322   8.700  1.0546  2.9344 -0.4437
   59SAPC   H5Y 4524   6.213   2.401   8.652 -1.5943 -1.0108  2.6730
   59SAPC   C36 4525   6.318   2.275   8.500  0.4720 -0.0493  0.5814
   59SAPC   H6X 4526   6.337   2.166   8.492 -0.5475 -0.0443 -2.3924
   59SAPC   H6Y 4527   6.408   2.329   8.467 -0.8842  2.5288  0.9524
   59SAPC   C37 4528   6.212   2.318   8.399  1.2388 -1.2061  0.0207
   59SAPC   H7X 4529   6.207   2.429   8.396  0.2889 -1.1882  1.8634
   59SAPC   H7Y 4530   6.117   2.270   8.430  1.2731 -1.3600 -0.1087
   59SAPC   C38 4531   6.244   2.259   8.260  0.3462 -0.0355  0.5570
   59SAPC   H8X 4532   6.261   2.149   8.270  2.9063  0.1134 -1.8040
   59SAPC   H8Y 4533   6.341   2.306   8.237 -0.3933  1.5302  0.5777
   59SAPC   C39 4534   6.149   2.287   8.145 -0.2353 -0.4766  0.2077
   59SAPC   H9X 4535   6.087   2.376   8.169 -0.4194 -1.3704  3.2158
   59SAPC   H9Y 4536   6.081   2.201   8.128 -0.3567 -0.3966  0.2932
   59SAPC  C310 4537   6.217   2.309   8.009 -0.2083  0.0988  0.0031
   59SAPC  H10X 4538   6.278   2.225   7.970 -1.8425 -1.5945  1.0272
   59SAPC  H10Y 4539   6.283   2.397   8.029 -1.0597  0.9278 -0.7675
   59SAPC  C311 4540   6.117   2.334   7.894  0.5158  0.1166  0.4161
   59SAPC  H11X 4541   6.167   2.377   7.805  1.0081  1.5636  1.3682
   59SAPC  H11Y 4542   6.061   2.424   7.926  0.6597  1.0775 -1.9301
   59SAPC  C312 4543   6.029   2.212   7.865 -0.6350  0.5074 -0.6961
   59SAPC  H12X 4544   5.972   2.170   7.950  1.6088 -0.9186  0.1503
   59SAPC  H12Y 4545   6.101   2.131   7.840  2.3663  3.0829 -0.7621
   59SAPC  C313 4546   5.934   2.243   7.743 -0.0565  0.0061  0.6015
   59SAPC  H13X 4547   6.000   2.263   7.656 -0.1457  0.8927  0.7313
   59SAPC  H13Y 4548   5.876   2.335   7.768  1.5220  1.2741 -0.3187
   59SAPC  C314 4549   5.853   2.114   7.720  0.3967  1.0050 -0.8909
   59SAPC  H14X 4550   5.810   2.074   7.814 -0.7338  4.7151  0.2640
   59SAPC  H14Y 4551   5.918   2.037   7.674 -0.4445  0.0287 -0.4666
   59SAPC  C315 4552   5.732   2.135   7.623 -0.5470 -0.3760 -0.5016
   59SAPC  H15X 4553   5.777   2.180   7.533 -2.2062 -1.7899 -2.0696
   59SAPC  H15Y 4554   5.665   2.211   7.669  1.0890  0.2018  0.9723
   59SAPC  C316 4555   5.649   2.012   7.596 -0.0087 -0.0205 -0.1846
   59SAPC  H16X 4556   5.630   1.966   7.695 -1.7117 -0.5055 -0.7298
   59SAPC  H16Y 4557   5.704   1.934   7.540  1.4768  0.8025  0.0880
   59SAPC  C317 4558   5.529   2.040   7.507 -0.7044 -0.2364  0.3043
   59SAPC  H17X 4559   5.474   2.127   7.548 -0.3953 -0.5950  1.5278
   59SAPC  H17Y 4560   5.465   1.951   7.489 -0.3301 -0.1145 -1.7589
   59SAPC  C318 4561   5.556   2.083   7.365  0.9033  0.1044 -0.2649
   59SAPC  H18X 4562   5.616   2.013   7.303  2.4765  0.4722  0.8164
   59SAPC  H18Y 4563   5.615   2.177   7.358 -2.0366  2.0044 -0.5125
   59SAPC  H18Z 4564   5.453   2.094   7.324  1.2668 -2.3249 -1.9193
   60SAPC     N 4565   5.364   0.963   9.990 -0.7799  0.6336  0.2106
   60SAPC   C12 4566   5.500   1.013   9.970 -0.2058  0.1621 -0.2773
   60SAPC  H12A 4567   5.563   0.941  10.020  2.1862  2.0234 -0.4965
   60SAPC  H12B 4568   5.517   1.104  10.027  0.2388 -0.1604  0.1076
   60SAPC   C13 4569   5.263   1.048   9.923  0.0209  0.3169  0.7428
   60SAPC  H13A 4570   5.164   1.008   9.908  0.8225 -0.8275 -1.9194
   60SAPC  H13B 4571   5.255   1.146   9.968 -4.8749  1.0840 -1.4727
   60SAPC  H13C 4572   5.298   1.070   9.822  0.9261 -0.7205  0.8227
   60SAPC   C14 4573   5.355   0.817   9.956 -0.7011 -0.4035  0.2983
   60SAPC  H14A 4574   5.390   0.786   9.858  1.0164 -0.4370  0.9204
   60SAPC  H14B 4575   5.418   0.771  10.029 -0.6275  0.1587  0.5916
   60SAPC  H14C 4576   5.254   0.778   9.960 -0.5609 -0.8013  0.0160
   60SAPC   C15 4577   5.336   0.961  10.137 -0.0909 -0.2869  0.2377
   60SAPC  H15A 4578   5.390   0.888  10.196 -1.0473 -1.3718 -0.2169
   60SAPC  H15B 4579   5.342   1.058  10.184 -1.6923 -0.6659  1.2613
   60SAPC  H15C 4580   5.233   0.934  10.155 -0.8455  2.0186 -0.4736
   60SAPC   C11 4581   5.545   1.020   9.823 -0.1745 -0.3083 -0.4375
   60SAPC  H11A 4582   5.510   0.927   9.774  1.3062 -1.2693  0.2827
   60SAPC  H11B 4583   5.656   1.021   9.819 -0.1971  1.6430 -1.0382
   60SAPC     P 4584   5.542   1.273   9.820  0.2153  0.0974 -0.6956
   60SAPC   O13 4585   5.439   1.320   9.917 -0.1100 -0.2461 -0.5320
   60SAPC   O14 4586   5.678   1.246   9.869  0.9796  0.4421 -0.3775
   60SAPC   O12 4587   5.490   1.136   9.756 -0.4229  0.5379 -0.1874
   60SAPC   O11 4588   5.549   1.371   9.705  0.8133 -0.0566  0.0674
   60SAPC    C1 4589   5.486   1.348   9.574 -0.1819 -0.6648  0.2258
   60SAPC    HA 4590   5.418   1.261   9.576 -0.3656 -0.5093  0.6810
   60SAPC    HB 4591   5.427   1.437   9.544 -0.2023 -1.2027 -1.3684
   60SAPC    C2 4592   5.603   1.325   9.476 -0.3321 -0.0249  0.6887
   60SAPC    HS 4593   5.576   1.329   9.368  2.1469 -1.0315  0.0036
   60SAPC   O21 4594   5.675   1.211   9.513 -0.4892 -0.6332 -0.3990
   60SAPC   C21 4595   5.636   1.088   9.468  0.0513  0.0249  0.5246
   60SAPC   O22 4596   5.537   1.063   9.409 -0.0241  0.3905 -0.1756
   60SAPC   C22 4597   5.745   0.992   9.493  0.3117 -1.2857 -0.6425
   60SAPC   H2R 4598   5.831   1.027   9.432  2.0077 -1.3550  1.6399
   60SAPC   H2S 4599   5.769   1.002   9.601  0.8645 -0.5273 -0.8297
   60SAPC    C3 4600   5.701   1.441   9.498  0.0294  0.2136  0.5651
   60SAPC    HX 4601   5.771   1.417   9.582  0.0857 -3.2118 -0.3807
   60SAPC    HY 4602   5.638   1.529   9.522  0.0409  0.3626  0.0392
   60SAPC   O31 4603   5.765   1.456   9.368  0.7925  0.2998  0.1993
   60SAPC   C31 4604   5.881   1.400   9.350  0.0028  0.2711 -0.1545
   60SAPC   O32 4605   5.941   1.333   9.429 -0.0999  0.1871  0.1970
   60SAPC   C32 4606   5.918   1.423   9.201  0.2969  0.1317 -0.0057
   60SAPC   H2X 4607   6.015   1.478   9.200 -0.3154  1.3117  2.6361
   60SAPC   H2Y 4608   5.849   1.490   9.145  1.5024  0.6098 -0.9564
   60SAPC   C23 4609   5.707   0.850   9.467  0.0737 -0.7254  0.1994
   60SAPC   H3R 4610   5.604   0.834   9.504 -0.7880  0.2351 -1.7569
   60SAPC   H3S 4611   5.778   0.788   9.526  1.2790 -0.0579 -0.5323
   60SAPC   C24 4612   5.721   0.813   9.317  0.2449 -0.8517  0.2813
   60SAPC   H4R 4613   5.800   0.871   9.264 -0.1452 -1.1707 -0.6699
   60SAPC   H4S 4614   5.618   0.832   9.280  0.3892 -0.3785  0.1191
   60SAPC   C25 4615   5.763   0.671   9.282  0.3277  0.0638 -0.0940
   60SAPC   H5R 4616   5.832   0.632   9.358 -0.0236 -0.9106 -0.2756
   60SAPC   C26 4617   5.722   0.610   9.168 -0.0257  1.1795 -0.3973
   60SAPC   H6R 4618   5.753   0.504   9.168 -0.7495  0.9595 -1.7253
   60SAPC   C27 4619   5.643   0.658   9.053  0.2944  1.0077 -0.0537
   60SAPC   H7R 4620   5.614   0.764   9.069  0.5686  0.8789  1.3706
   60SAPC   H7S 4621   5.548   0.600   9.051 -0.1401  1.7214 -0.3451
   60SAPC   C28 4622   5.697   0.650   8.914  0.7041 -0.7518 -0.2636
   60SAPC   H8R 4623   5.666   0.559   8.859 -1.9568  0.5296 -0.9709
   60SAPC   C29 4624   5.794   0.714   8.860 -0.4041 -0.6625  0.8584
   60SAPC   H9R 4625   5.831   0.663   8.769 -0.7264 -0.7770  0.7912
   60SAPC  C210 4626   5.872   0.830   8.913  0.7944  0.6787 -0.4131
   60SAPC  H10R 4627   5.828   0.865   9.009  1.0540  1.2629 -0.5040
   60SAPC  H10S 4628   5.859   0.910   8.837 -2.0929 -1.3384 -2.1405
   60SAPC  C211 4629   6.018   0.808   8.918  0.1863  0.1893 -0.6464
   60SAPC  H11R 4630   6.059   0.780   9.016  1.4316  0.9946 -0.9248
   60SAPC  C212 4631   6.104   0.809   8.815  0.2062  0.5507  0.2418
   60SAPC  H12R 4632   6.211   0.795   8.837  1.0285  0.9890 -3.2001
   60SAPC  C213 4633   6.079   0.846   8.670  0.3439 -0.3612 -0.5975
   60SAPC  H13R 4634   6.159   0.908   8.623 -0.3376  0.0319 -1.2570
   60SAPC  H13S 4635   5.991   0.913   8.666  1.3660  1.0176 -0.4752
   60SAPC  C214 4636   6.044   0.726   8.578 -0.3450 -0.4781 -0.3893
   60SAPC  H14R 4637   6.079   0.630   8.621  0.4668 -0.1662 -0.3464
   60SAPC  C215 4638   5.983   0.726   8.462 -0.3113 -0.6038  0.6852
   60SAPC  H15R 4639   5.973   0.634   8.402  0.0291 -0.3026  0.1518
   60SAPC  C216 4640   5.933   0.854   8.395  0.5909 -0.8319  0.0999
   60SAPC  H16R 4641   5.951   0.944   8.457  2.7781 -1.4026  0.3208
   60SAPC  H16S 4642   5.822   0.844   8.386  0.4863  1.5825 -1.9583
   60SAPC  C217 4643   5.993   0.882   8.256  0.3212 -0.0345  0.5033
   60SAPC  H17R 4644   5.953   0.805   8.188  2.3059 -0.1063 -0.6213
   60SAPC  H17S 4645   6.104   0.876   8.266  0.2736 -2.4160 -0.2717
   60SAPC  C218 4646   5.957   1.025   8.211  0.5855 -0.1065 -0.6101
   60SAPC  H18R 4647   5.991   1.097   8.288  0.2439 -1.4766  0.8582
   60SAPC  H18S 4648   5.847   1.027   8.193  0.6434  0.6740 -0.9164
   60SAPC  C219 4649   6.017   1.063   8.075  0.4413  0.8668 -0.5508
   60SAPC  H19R 4650   5.975   1.161   8.042 -0.9902  0.1993 -0.7240
   60SAPC  H19S 4651   5.990   0.986   8.000  1.5004  0.9772 -1.0638
   60SAPC  C220 4652   6.173   1.078   8.074  0.0471  0.4915  0.4746
   60SAPC  H20R 4653   6.203   1.068   7.967 -0.8850 -1.4364  0.3929
   60SAPC  H20S 4654   6.217   0.996   8.134 -3.1274 -1.6127  0.0267
   60SAPC  H20T 4655   6.207   1.175   8.117 -2.8263  0.9538  1.8234
   60SAPC   C33 4656   5.918   1.300   9.112  0.0185  0.3406 -0.4070
   60SAPC   H3X 4657   5.818   1.252   9.124  0.5990 -0.5481  1.0070
   60SAPC   H3Y 4658   5.977   1.216   9.156  1.0450  1.1917 -0.1536
   60SAPC   C34 4659   5.944   1.325   8.966  0.0772 -0.2528  0.6187
   60SAPC   H4X 4660   6.034   1.389   8.958  0.1241 -0.6878 -2.6663
   60SAPC   H4Y 4661   5.857   1.386   8.933  0.0557 -1.0285 -0.7634
   60SAPC   C35 4662   5.943   1.200   8.885  0.2865  0.1802  0.9283
   60SAPC   H5X 4663   5.845   1.151   8.902  1.1043 -1.9781 -0.3735
   60SAPC   H5Y 4664   6.025   1.131   8.914  0.1750 -0.0247  0.7594
   60SAPC   C36 4665   5.959   1.223   8.730  0.3406  0.3898  0.5269
   60SAPC   H6X 4666   5.942   1.129   8.674 -0.4310  1.6987 -1.5263
   60SAPC   H6Y 4667   6.068   1.238   8.719  0.3627  1.3157  1.8732
   60SAPC   C37 4668   5.884   1.329   8.665  0.2972  0.4648  0.3776
   60SAPC   H7X 4669   5.893   1.423   8.724  0.4995 -0.9702  2.6835
   60SAPC   H7Y 4670   5.777   1.298   8.673  0.3871  0.1422  0.3471
   60SAPC   C38 4671   5.917   1.355   8.515  0.2662 -0.0513  0.5429
   60SAPC   H8X 4672   5.886   1.256   8.474 -0.5174 -0.3239  1.7955
   60SAPC   H8Y 4673   6.027   1.374   8.513  0.3725 -0.0645  3.6912
   60SAPC   C39 4674   5.844   1.471   8.438  0.0639 -0.0917  0.3277
   60SAPC   H9X 4675   5.889   1.479   8.337  1.7976 -1.9682  0.9228
   60SAPC   H9Y 4676   5.862   1.562   8.498  3.0037  0.7621 -1.7770
   60SAPC  C310 4677   5.697   1.448   8.426  0.5248 -0.1459 -0.0683
   60SAPC  H10X 4678   5.648   1.453   8.526  1.2270 -0.3233  0.2893
   60SAPC  H10Y 4679   5.674   1.347   8.387 -0.4859 -0.7647  2.0513
   60SAPC  C311 4680   5.638   1.555   8.332 -0.3972  0.2994  0.1716
   60SAPC  H11X 4681   5.683   1.539   8.232 -1.1871 -4.4356  0.4701
   60SAPC  H11Y 4682   5.658   1.656   8.374 -1.8843  0.2888  0.9458
   60SAPC  C312 4683   5.491   1.547   8.317  0.7377  0.2962 -0.0356
   60SAPC  H12X 4684   5.443   1.550   8.416  1.3861  0.6979  0.2699
   60SAPC  H12Y 4685   5.458   1.451   8.271  0.3923  0.3356  0.1307
   60SAPC  C313 4686   5.429   1.656   8.229  0.0273 -0.3266 -0.1151
   60SAPC  H13X 4687   5.466   1.643   8.125  1.7955 -0.9481  0.5686
   60SAPC  H13Y 4688   5.457   1.760   8.257 -1.2048 -0.8540  3.2696
   60SAPC  C314 4689   5.274   1.650   8.215 -0.4930  0.3909  0.1974
   60SAPC  H14X 4690   5.230   1.646   8.317  1.0737 -0.7964  0.8501
   60SAPC  H14Y 4691   5.238   1.558   8.164 -0.2168 -0.4405  1.4749
   60SAPC  C315 4692   5.224   1.772   8.134 -0.6160  0.0881  0.1841
   60SAPC  H15X 4693   5.264   1.769   8.031 -4.1967 -0.1508 -1.2800
   60SAPC  H15Y 4694   5.272   1.856   8.189 -0.6831 -1.5357  2.8208
   60SAPC  C316 4695   5.069   1.788   8.121 -0.9490 -0.7602 -0.3451
   60SAPC  H16X 4696   5.025   1.809   8.221 -0.9606 -1.7443 -0.1412
   60SAPC  H16Y 4697   5.036   1.686   8.092 -0.0517 -1.7437  1.9906
   60SAPC  C317 4698   5.034   1.903   8.031 -0.3604  0.7172 -0.2917
   60SAPC  H17X 4699   5.089   1.894   7.935 -2.0770  0.5570 -1.2826
   60SAPC  H17Y 4700   5.067   1.987   8.096  2.1443  0.6083 -1.3655
   60SAPC  C318 4701   4.885   1.929   8.025  0.0313 -0.0007 -0.5463
   60SAPC  H18X 4702   4.851   2.023   7.976 -1.1587 -0.5960 -0.8918
   60SAPC  H18Y 4703   4.839   1.903   8.123 -1.0765  0.4252 -0.9452
   60SAPC  H18Z 4704   4.839   1.862   7.949  0.2985  0.6890 -1.3218
   61SAPC     N 4705   1.800   6.945   9.309 -0.5045 -0.4970  0.5447
   61SAPC   C12 4706   1.877   6.814   9.294 -0.4348  0.1761  0.1086
   61SAPC  H12A 4707   1.942   6.832   9.209 -2.9881  1.6757 -1.5763
   61SAPC  H12B 4708   1.809   6.737   9.261  0.7600 -0.6414 -0.4831
   61SAPC   C13 4709   1.759   7.003   9.180 -0.0938  0.2279 -0.3748
   61SAPC  H13A 4710   1.854   7.012   9.131 -1.0460 -1.0824 -2.5452
   61SAPC  H13B 4711   1.708   6.934   9.115 -1.3460  1.9401 -1.2284
   61SAPC  H13C 4712   1.703   7.095   9.186  0.0819  0.2382  1.7044
   61SAPC   C14 4713   1.678   6.927   9.393 -0.4696  0.0104  0.4897
   61SAPC  H14A 4714   1.706   6.873   9.482  1.9200 -0.3355 -0.4431
   61SAPC  H14B 4715   1.636   7.022   9.424  2.4969  1.1976  1.0125
   61SAPC  H14C 4716   1.597   6.878   9.341 -0.2483 -2.0184  2.0208
   61SAPC   C15 4717   1.891   7.042   9.376  0.4895 -0.0844  0.0748
   61SAPC  H15A 4718   1.900   7.005   9.477  0.1502 -1.4710 -0.3789
   61SAPC  H15B 4719   1.981   7.068   9.322 -0.9640  2.5522 -1.1641
   61SAPC  H15C 4720   1.836   7.134   9.385  1.0902  0.1726  1.1295
   61SAPC   C11 4721   1.942   6.759   9.417  0.6993  0.4827  0.1947
   61SAPC  H11A 4722   2.014   6.838   9.448  1.3491 -0.1849  0.4215
   61SAPC  H11B 4723   2.013   6.675   9.397 -1.8355 -1.2519 -1.7866
   61SAPC     P 4724   1.776   6.589   9.537  0.2847 -0.1083  0.2445
   61SAPC   O13 4725   1.856   6.485   9.606  0.0126 -0.5947 -0.0417
   61SAPC   O14 4726   1.642   6.610   9.591  0.7552 -0.0251 -0.8305
   61SAPC   O12 4727   1.859   6.730   9.528 -0.5230  0.1878  0.0956
   61SAPC   O11 4728   1.751   6.549   9.386 -1.0835 -0.0215 -0.2810
   61SAPC    C1 4729   1.676   6.438   9.346  0.5274  0.2088  0.1527
   61SAPC    HA 4730   1.730   6.342   9.355 -0.8048 -0.6380 -0.6556
   61SAPC    HB 4731   1.582   6.437   9.405  1.7592  1.3825  2.2012
   61SAPC    C2 4732   1.627   6.448   9.197 -0.5052  0.2649  0.8532
   61SAPC    HS 4733   1.561   6.360   9.180  0.4866 -0.5571  1.1689
   61SAPC   O21 4734   1.742   6.435   9.110 -0.5488 -0.0400 -0.0069
   61SAPC   C21 4735   1.720   6.371   8.997 -0.5368  0.1026 -0.6267
   61SAPC   O22 4736   1.610   6.349   8.947 -0.7301 -0.2756  0.3154
   61SAPC   C22 4737   1.848   6.320   8.938  0.3703  0.0820  0.3174
   61SAPC   H2R 4738   1.936   6.382   8.966  0.8938  0.4386 -2.0212
   61SAPC   H2S 4739   1.867   6.219   8.980  2.7301 -0.1408 -1.2017
   61SAPC    C3 4740   1.540   6.570   9.177 -0.0778  0.0874  0.4299
   61SAPC    HX 4741   1.595   6.648   9.234  0.7276 -1.1923  1.4360
   61SAPC    HY 4742   1.449   6.541   9.234 -1.7579  0.2399 -2.1093
   61SAPC   O31 4743   1.492   6.596   9.042  0.2979  0.2621 -0.0113
   61SAPC   C31 4744   1.565   6.676   8.972  1.0111 -0.6418 -0.1282
   61SAPC   O32 4745   1.658   6.749   9.005  0.4792 -0.3592 -0.0239
   61SAPC   C32 4746   1.526   6.648   8.823 -0.2895  0.2352 -0.1741
   61SAPC   H2X 4747   1.419   6.622   8.808  0.1152 -1.0228 -1.0394
   61SAPC   H2Y 4748   1.590   6.568   8.780  0.1616 -0.4276  1.6753
   61SAPC   C23 4749   1.824   6.307   8.784 -1.3459  0.4797 -0.1958
   61SAPC   H3R 4750   1.798   6.408   8.743 -1.2639  0.6723  0.2273
   61SAPC   H3S 4751   1.737   6.245   8.755 -1.2338  1.1279 -2.0047
   61SAPC   C24 4752   1.948   6.235   8.718 -0.8961 -0.0087  0.1631
   61SAPC   H4R 4753   1.985   6.159   8.790 -1.3009 -1.6579 -1.3597
   61SAPC   H4S 4754   2.019   6.319   8.701 -1.4250  0.5679  0.7418
   61SAPC   C25 4755   1.909   6.170   8.586 -0.5469  0.1628 -0.2274
   61SAPC   H5R 4756   1.904   6.060   8.588  0.9725  0.0349 -1.8851
   61SAPC   C26 4757   1.904   6.234   8.471  0.7496 -0.4529  0.3075
   61SAPC   H6R 4758   1.883   6.168   8.387 -2.7420 -2.0221  2.2955
   61SAPC   C27 4759   1.915   6.377   8.442  0.0534  0.1172  0.7492
   61SAPC   H7R 4760   2.019   6.403   8.412 -0.0173  0.5711  0.8820
   61SAPC   H7S 4761   1.917   6.430   8.540  1.9564 -1.2805  1.5070
   61SAPC   C28 4762   1.810   6.429   8.345 -0.4012  0.3049 -0.0420
   61SAPC   H8R 4763   1.738   6.500   8.390 -0.6138  1.0334 -1.4817
   61SAPC   C29 4764   1.793   6.410   8.214  0.2473 -0.1001 -0.2352
   61SAPC   H9R 4765   1.705   6.461   8.172  0.9992  2.9365  1.7222
   61SAPC  C210 4766   1.870   6.323   8.125  0.3759 -0.0466  0.3501
   61SAPC  H10R 4767   1.951   6.272   8.182  0.0278  0.5149  1.3713
   61SAPC  H10S 4768   1.924   6.385   8.051  2.0389  1.8824  3.0677
   61SAPC  C211 4769   1.792   6.206   8.055  0.3397 -0.4599 -0.0054
   61SAPC  H11R 4770   1.713   6.176   8.126  0.6835 -0.6401  0.3033
   61SAPC  C212 4771   1.812   6.158   7.935 -0.4989  0.5092  1.2011
   61SAPC  H12R 4772   1.758   6.063   7.926  0.1745  0.1409  1.0195
   61SAPC  C213 4773   1.936   6.190   7.843  0.1054 -0.4342  0.1485
   61SAPC  H13R 4774   1.926   6.300   7.827  0.1203 -0.6006 -1.0480
   61SAPC  H13S 4775   1.920   6.158   7.738  1.9372 -0.7182 -0.0515
   61SAPC  C214 4776   2.076   6.173   7.888  1.2539  0.8924 -0.9921
   61SAPC  H14R 4777   2.083   6.116   7.982  2.4217  1.2799 -0.8406
   61SAPC  C215 4778   2.181   6.222   7.818  0.4437  0.2589 -0.1904
   61SAPC  H15R 4779   2.281   6.211   7.863 -0.4084 -0.3953  1.5937
   61SAPC  C216 4780   2.172   6.311   7.698  0.6780 -0.6401  0.1211
   61SAPC  H16R 4781   2.117   6.404   7.722  2.5810  0.0025  2.1720
   61SAPC  H16S 4782   2.117   6.248   7.625 -0.4451 -1.5640  1.7536
   61SAPC  C217 4783   2.311   6.347   7.644 -0.0100 -0.4949  0.3814
   61SAPC  H17R 4784   2.366   6.395   7.727  0.1759  1.0312 -0.6084
   61SAPC  H17S 4785   2.291   6.424   7.567 -1.4702 -1.1427  0.1032
   61SAPC  C218 4786   2.377   6.230   7.570 -0.1964  0.6545 -0.0936
   61SAPC  H18R 4787   2.310   6.188   7.492 -2.8364  0.2803  2.3006
   61SAPC  H18S 4788   2.408   6.143   7.633 -0.4047  1.2922  0.9027
   61SAPC  C219 4789   2.500   6.277   7.488 -0.2154 -0.5829  0.2604
   61SAPC  H19R 4790   2.481   6.371   7.434  0.5821 -0.4230  0.2613
   61SAPC  H19S 4791   2.530   6.200   7.413  0.4671 -1.0808  1.0329
   61SAPC  C220 4792   2.619   6.296   7.585 -0.1876 -0.3323 -0.0989
   61SAPC  H20R 4793   2.597   6.366   7.668  1.0534  0.9207 -0.8057
   61SAPC  H20S 4794   2.702   6.346   7.530  0.2171 -1.0144 -0.1218
   61SAPC  H20T 4795   2.656   6.198   7.622 -1.9455 -0.6990  0.7148
   61SAPC   C33 4796   1.556   6.774   8.740  0.2917 -0.3173 -0.2189
   61SAPC   H3X 4797   1.663   6.805   8.742  0.0413  0.6524 -0.9750
   61SAPC   H3Y 4798   1.507   6.865   8.780 -0.2838 -0.7891  0.1460
   61SAPC   C34 4799   1.525   6.749   8.590  0.5556 -0.9574 -0.3206
   61SAPC   H4X 4800   1.417   6.746   8.566  0.3402  0.9680  0.3542
   61SAPC   H4Y 4801   1.564   6.652   8.554 -2.6477 -2.5093  0.1689
   61SAPC   C35 4802   1.589   6.859   8.497  0.5805  0.2905  0.0883
   61SAPC   H5X 4803   1.700   6.855   8.498  0.5919 -0.9194 -2.8633
   61SAPC   H5Y 4804   1.557   6.960   8.532  1.7028  0.4919  0.5520
   61SAPC   C36 4805   1.557   6.825   8.352  0.1609  0.3598  0.4648
   61SAPC   H6X 4806   1.446   6.823   8.352  0.1140  1.4884 -1.0127
   61SAPC   H6Y 4807   1.603   6.736   8.304  1.7405  0.3224  2.0110
   61SAPC   C37 4808   1.571   6.941   8.251  0.4174 -0.6604 -0.3942
   61SAPC   H7X 4809   1.521   7.029   8.297 -2.0784 -2.3253  0.1524
   61SAPC   H7Y 4810   1.516   6.912   8.159  2.1165  2.9087 -2.6790
   61SAPC   C38 4811   1.717   6.964   8.207  0.0389 -0.2493  0.9819
   61SAPC   H8X 4812   1.761   6.876   8.155 -0.4764  0.4339 -0.6112
   61SAPC   H8Y 4813   1.768   6.984   8.304  1.4203 -1.9295  0.6179
   61SAPC   C39 4814   1.732   7.092   8.128 -0.2827  0.0316  0.0570
   61SAPC   H9X 4815   1.831   7.121   8.085 -0.8156  0.7548 -0.6997
   61SAPC   H9Y 4816   1.709   7.175   8.198 -1.3080  0.2416 -0.5200
   61SAPC  C310 4817   1.632   7.087   8.009  0.5063  0.2449 -0.5092
   61SAPC  H10X 4818   1.525   7.077   8.036  0.6138 -2.5202 -0.9537
   61SAPC  H10Y 4819   1.661   6.993   7.956  3.7072  0.6461  0.3962
   61SAPC  C311 4820   1.645   7.204   7.903  0.3364  0.1160 -0.0119
   61SAPC  H11X 4821   1.742   7.194   7.849  0.5471 -0.7508  0.5101
   61SAPC  H11Y 4822   1.653   7.302   7.953  0.9888  0.5431 -0.9280
   61SAPC  C312 4823   1.527   7.199   7.800 -1.2378  0.1796 -0.3825
   61SAPC  H12X 4824   1.526   7.297   7.749 -1.2947  0.2554 -0.2365
   61SAPC  H12Y 4825   1.442   7.180   7.870 -2.1649 -1.4061 -1.9008
   61SAPC  C313 4826   1.546   7.085   7.697 -0.1019  0.9515  0.4232
   61SAPC  H13X 4827   1.529   6.988   7.747 -2.0663  0.5924 -0.9157
   61SAPC  H13Y 4828   1.654   7.079   7.671  0.0555  1.0505  1.0443
   61SAPC  C314 4829   1.472   7.116   7.570  0.3568  0.2635 -0.0871
   61SAPC  H14X 4830   1.516   7.212   7.534  1.2603 -0.9577 -2.3607
   61SAPC  H14Y 4831   1.365   7.135   7.594  0.3123  2.3756 -1.7760
   61SAPC  C315 4832   1.493   7.008   7.459  0.1813  0.7857  0.0491
   61SAPC  H15X 4833   1.600   6.978   7.460  0.3750  1.3635 -1.8213
   61SAPC  H15Y 4834   1.480   7.055   7.360  0.8858 -1.6289 -1.2337
   61SAPC  C316 4835   1.393   6.886   7.460 -0.0859 -0.0098 -0.7422
   61SAPC  H16X 4836   1.297   6.921   7.417 -1.5038 -1.0169  1.5238
   61SAPC  H16Y 4837   1.382   6.857   7.566  1.7128  2.3528  0.1433
   61SAPC  C317 4838   1.459   6.771   7.378  0.3812  0.1394 -0.0941
   61SAPC  H17X 4839   1.391   6.688   7.349 -1.1065  0.7290  1.6814
   61SAPC  H17Y 4840   1.545   6.723   7.430 -2.7150 -2.7594  2.5371
   61SAPC  C318 4841   1.503   6.820   7.242 -0.0911  0.0850 -0.0967
   61SAPC  H18X 4842   1.587   6.892   7.248 -0.0768 -0.0569  1.8416
   61SAPC  H18Y 4843   1.419   6.871   7.191 -0.8766 -1.6574 -0.5893
   61SAPC  H18Z 4844   1.527   6.736   7.173  1.1153  1.0674 -0.8869
   62SAPC     N 4845   1.542   6.313   9.866  0.3788  0.3904 -0.5897
   62SAPC   C12 4846   1.532   6.341   9.719  0.9824  0.4049 -0.3655
   62SAPC  H12A 4847   1.621   6.300   9.674  1.4012  0.5695  0.3097
   62SAPC  H12B 4848   1.556   6.446   9.707  0.1904  0.9084  2.0722
   62SAPC   C13 4849   1.548   6.164   9.900  0.3581 -0.3953 -0.4247
   62SAPC  H13A 4850   1.566   6.155  10.006 -1.1398 -1.8825 -0.2776
   62SAPC  H13B 4851   1.446   6.132   9.886 -0.6196  1.9653  1.0092
   62SAPC  H13C 4852   1.619   6.099   9.852  1.3026  0.2990  0.0055
   62SAPC   C14 4853   1.662   6.377   9.913  0.2737  0.2865 -0.2517
   62SAPC  H14A 4854   1.757   6.359   9.864 -0.8662 -1.7280 -1.7810
   62SAPC  H14B 4855   1.659   6.485   9.914  1.2939  0.3246  2.0865
   62SAPC  H14C 4856   1.683   6.344  10.014 -0.6440 -0.6113 -0.3549
   62SAPC   C15 4857   1.421   6.367   9.937 -0.7842 -0.6736  0.6859
   62SAPC  H15A 4858   1.444   6.373  10.042 -1.7580 -0.7406  0.9068
   62SAPC  H15B 4859   1.413   6.471   9.908 -0.2186 -0.6405  0.6499
   62SAPC  H15C 4860   1.331   6.311   9.914 -3.1896  1.6354  3.9976
   62SAPC   C11 4861   1.407   6.287   9.633  0.1275  0.4670  0.2885
   62SAPC  H11A 4862   1.395   6.177   9.641  1.4333  0.2210 -1.0789
   62SAPC  H11B 4863   1.414   6.304   9.524 -1.5318  0.6554  0.1984
   62SAPC     P 4864   1.268   6.507   9.639  0.0782  0.4494  0.0397
   62SAPC   O13 4865   1.335   6.596   9.732  0.2306  0.0364  0.0838
   62SAPC   O14 4866   1.303   6.516   9.496  0.1100 -0.5648 -0.2306
   62SAPC   O12 4867   1.291   6.349   9.677 -0.7028  0.7503 -1.0900
   62SAPC   O11 4868   1.108   6.518   9.657  0.2290  0.3693 -0.4124
   62SAPC    C1 4869   1.009   6.474   9.561 -0.6414  0.0920 -0.3964
   62SAPC    HA 4870   1.047   6.482   9.457  0.7181  1.3626  0.1703
   62SAPC    HB 4871   0.986   6.367   9.581 -1.2256  0.5740  1.6755
   62SAPC    C2 4872   0.874   6.551   9.570 -0.4353  0.0320  0.0764
   62SAPC    HS 4873   0.829   6.525   9.668  0.0570 -2.6397 -0.3498
   62SAPC   O21 4874   0.787   6.517   9.461 -0.2487 -0.5246 -0.7143
   62SAPC   C21 4875   0.653   6.536   9.474  0.4029  0.2353  0.0756
   62SAPC   O22 4876   0.597   6.577   9.578 -0.3906  0.1832  0.4392
   62SAPC   C22 4877   0.592   6.525   9.332  0.8865  0.3661  0.4222
   62SAPC   H2R 4878   0.642   6.596   9.263 -0.7590  0.3271 -0.8557
   62SAPC   H2S 4879   0.628   6.427   9.292 -1.2811 -0.3117  0.0355
   62SAPC    C3 4880   0.905   6.706   9.580  0.4411  0.4898 -0.5706
   62SAPC    HX 4881   0.976   6.718   9.665 -0.6651 -0.7554  0.5393
   62SAPC    HY 4882   0.814   6.765   9.606  0.8415  1.2149 -0.8023
   62SAPC   O31 4883   0.964   6.760   9.460 -0.0966  0.5519 -0.5827
   62SAPC   C31 4884   0.869   6.806   9.369 -0.5106  0.1437 -0.3614
   62SAPC   O32 4885   0.746   6.801   9.384  0.3806 -0.1116  0.1366
   62SAPC   C32 4886   0.938   6.848   9.240 -0.0135 -0.0963  0.5026
   62SAPC   H2X 4887   1.037   6.893   9.264 -0.5422  2.5428 -1.9671
   62SAPC   H2Y 4888   0.873   6.928   9.199  1.0739  0.7784  0.4577
   62SAPC   C23 4889   0.440   6.544   9.347  0.0755 -0.2803  0.2397
   62SAPC   H3R 4890   0.418   6.644   9.389  0.1780 -0.4003  0.5805
   62SAPC   H3S 4891   0.398   6.477   9.426 -0.7651  1.2747  1.1329
   62SAPC   C24 4892   0.355   6.527   9.225 -0.5400  0.3379 -0.4730
   62SAPC   H4R 4893   0.248   6.547   9.246  0.3756  3.8441  1.2091
   62SAPC   H4S 4894   0.376   6.421   9.200  1.5225  1.0564 -1.9622
   62SAPC   C25 4895   0.412   6.619   9.114  0.4860 -0.2124 -0.0984
   62SAPC   H5R 4896   0.390   6.727   9.121  1.6728  0.1724 -2.0069
   62SAPC   C26 4897   0.488   6.584   9.006  0.0559 -0.7109 -0.2645
   62SAPC   H6R 4898   0.515   6.657   8.929  0.2576 -1.7991 -1.2370
   62SAPC   C27 4899   0.531   6.445   8.977  0.2487 -0.3111  0.3021
   62SAPC   H7R 4900   0.453   6.375   9.015 -1.0884 -0.0298 -1.8311
   62SAPC   H7S 4901   0.627   6.415   9.024 -0.6282 -2.1168  0.9679
   62SAPC   C28 4902   0.540   6.412   8.825 -0.0252  0.1264 -0.5530
   62SAPC   H8R 4903   0.458   6.347   8.792 -3.0298  3.5364 -0.1571
   62SAPC   C29 4904   0.622   6.459   8.731 -0.1995  0.8775 -0.4610
   62SAPC   H9R 4905   0.610   6.427   8.626 -1.9155  2.3448 -0.7375
   62SAPC  C210 4906   0.730   6.555   8.760  0.4539 -0.2558  0.4341
   62SAPC  H10R 4907   0.703   6.634   8.833 -1.6808 -1.0707  0.5829
   62SAPC  H10S 4908   0.728   6.619   8.669  2.3004 -1.4004 -0.4334
   62SAPC  C211 4909   0.862   6.497   8.768  0.2039  0.7929 -0.1278
   62SAPC  H11R 4910   0.868   6.426   8.852  1.6401 -0.3029 -1.1248
   62SAPC  C212 4911   0.976   6.538   8.705 -0.1202 -0.6318 -0.7577
   62SAPC  H12R 4912   1.070   6.482   8.718  0.7556  0.9406 -0.2266
   62SAPC  C213 4913   0.981   6.652   8.603  0.3117  0.0944  0.0114
   62SAPC  H13R 4914   0.979   6.742   8.668  2.2464 -0.6254  1.1169
   62SAPC  H13S 4915   0.893   6.640   8.536 -0.2439 -0.4147  0.8166
   62SAPC  C214 4916   1.115   6.651   8.528  0.2120 -0.0138  0.0338
   62SAPC  H14R 4917   1.204   6.632   8.589 -0.6471  2.2294  2.0826
   62SAPC  C215 4918   1.135   6.676   8.398  0.5285  0.6430  0.1084
   62SAPC  H15R 4919   1.235   6.674   8.352 -0.4758  1.6616 -2.1853
   62SAPC  C216 4920   1.029   6.726   8.301  0.1832  0.5609  0.3103
   62SAPC  H16R 4921   0.928   6.725   8.347 -0.1596  2.5941 -0.3848
   62SAPC  H16S 4922   1.017   6.648   8.223  1.6765  0.9574 -0.3454
   62SAPC  C217 4923   1.041   6.860   8.228  0.6719 -1.1466 -0.2210
   62SAPC  H17R 4924   1.027   6.941   8.304  3.2639 -0.2425 -0.6869
   62SAPC  H17S 4925   0.960   6.875   8.153  0.0021  4.0380  1.3290
   62SAPC  C218 4926   1.171   6.895   8.158  0.2236 -0.0323 -0.1032
   62SAPC  H18R 4927   1.205   6.794   8.127 -1.1204 -1.0589  1.6976
   62SAPC  H18S 4928   1.242   6.935   8.234  0.7359  1.6774 -1.4453
   62SAPC  C219 4929   1.141   6.989   8.035 -1.0064 -0.1277  0.2771
   62SAPC  H19R 4930   1.119   7.095   8.062 -1.5120 -0.1765  0.0546
   62SAPC  H19S 4931   1.047   6.951   7.989 -0.3958 -0.3875 -0.7843
   62SAPC  C220 4932   1.252   6.982   7.924  0.1870  0.4561  0.0652
   62SAPC  H20R 4933   1.347   6.939   7.961 -1.0201 -2.8115 -0.4240
   62SAPC  H20S 4934   1.263   7.081   7.876 -4.0952  0.3639 -1.3058
   62SAPC  H20T 4935   1.221   6.913   7.842  1.6551  1.3324 -1.2482
   62SAPC   C33 4936   0.949   6.730   9.141  0.0156  0.4981 -0.0707
   62SAPC   H3X 4937   1.011   6.771   9.059 -0.0876 -0.0554 -0.4233
   62SAPC   H3Y 4938   0.849   6.705   9.099 -0.7580  1.9850  0.8326
   62SAPC   C34 4939   1.025   6.611   9.188  0.4447 -0.2150 -0.1212
   62SAPC   H4X 4940   0.958   6.541   9.242  0.4181  0.3610  0.6043
   62SAPC   H4Y 4941   1.104   6.637   9.261  1.9008  1.4680 -2.2131
   62SAPC   C35 4942   1.080   6.524   9.074 -0.2435  0.3276  0.7227
   62SAPC   H5X 4943   1.132   6.583   8.996 -1.7281  1.6603  0.7323
   62SAPC   H5Y 4944   0.999   6.475   9.016  1.8680 -1.5022 -0.7788
   62SAPC   C36 4945   1.171   6.413   9.134  0.5736 -0.3451  0.2718
   62SAPC   H6X 4946   1.136   6.379   9.234 -0.1997  1.0873  0.5013
   62SAPC   H6Y 4947   1.273   6.454   9.150  0.0705  1.2484 -0.5571
   62SAPC   C37 4948   1.175   6.287   9.046  0.2855 -0.4653 -0.1669
   62SAPC   H7X 4949   1.071   6.260   9.020  0.7053 -1.1005 -1.2648
   62SAPC   H7Y 4950   1.230   6.202   9.093  0.5373  0.3707  1.0491
   62SAPC   C38 4951   1.245   6.317   8.910 -0.0872 -0.4275 -0.6826
   62SAPC   H8X 4952   1.354   6.332   8.924 -0.2655 -0.4093  0.7178
   62SAPC   H8Y 4953   1.214   6.414   8.864  0.8808 -0.0355 -0.5207
   62SAPC   C39 4954   1.238   6.200   8.805 -0.0773  0.3541  0.2410
   62SAPC   H9X 4955   1.133   6.181   8.774  0.4940 -2.3701 -0.0928
   62SAPC   H9Y 4956   1.265   6.103   8.851 -1.1940 -0.4797 -0.8227
   62SAPC  C310 4957   1.332   6.230   8.686 -0.3959  0.3348  0.3460
   62SAPC  H10X 4958   1.354   6.137   8.629  2.7818 -0.0780  2.1184
   62SAPC  H10Y 4959   1.428   6.266   8.730 -0.0767  1.6908 -1.4082
   62SAPC  C311 4960   1.288   6.339   8.592 -0.2092  0.3422 -0.1793
   62SAPC  H11X 4961   1.273   6.433   8.649  1.3337  0.9158 -0.6795
   62SAPC  H11Y 4962   1.197   6.316   8.532 -0.1368  0.2587 -0.2585
   62SAPC  C312 4963   1.387   6.358   8.478 -0.9050 -0.3617  0.3783
   62SAPC  H12X 4964   1.489   6.321   8.503 -0.3211  0.9543 -0.0238
   62SAPC  H12Y 4965   1.391   6.469   8.465  1.9395 -0.1806  2.3640
   62SAPC  C313 4966   1.348   6.287   8.351  0.8497 -0.6690 -0.1183
   62SAPC  H13X 4967   1.244   6.315   8.321  0.5771 -0.8100  0.6854
   62SAPC  H13Y 4968   1.361   6.178   8.365  0.1608 -0.9987 -1.8796
   62SAPC  C314 4969   1.446   6.318   8.232 -0.1084  0.3716  0.6342
   62SAPC  H14X 4970   1.549   6.293   8.263  0.0747 -0.2163 -0.4174
   62SAPC  H14Y 4971   1.439   6.429   8.226 -1.1105  0.3531  1.3244
   62SAPC  C315 4972   1.403   6.244   8.100 -0.3996  0.4939 -0.0477
   62SAPC  H15X 4973   1.409   6.135   8.120  1.7945  0.4435 -0.7971
   62SAPC  H15Y 4974   1.461   6.279   8.012 -1.2997  1.1356 -0.3943
   62SAPC  C316 4975   1.257   6.279   8.059  0.2006  0.5592 -0.6259
   62SAPC  H16X 4976   1.248   6.386   8.031 -1.2595  0.7355  0.4447
   62SAPC  H16Y 4977   1.181   6.256   8.137 -0.0171  1.0403 -0.6952
   62SAPC  C317 4978   1.212   6.202   7.930  0.5413  0.5479 -0.4181
   62SAPC  H17X 4979   1.265   6.246   7.843  1.8221  1.0039  0.5696
   62SAPC  H17Y 4980   1.112   6.235   7.896  0.9310  0.0772 -2.0794
   62SAPC  C318 4981   1.217   6.044   7.921  0.4813  0.1709 -0.2153
   62SAPC  H18X 4982   1.216   6.000   7.819 -0.5156  2.1352 -1.0792
   62SAPC  H18Y 4983   1.130   5.998   7.974 -0.5379  0.5439 -1.5317
   62SAPC  H18Z 4984   1.313   6.017   7.970  1.2721  0.9423 -1.3185
   63SAPC     N 4985   3.642   4.216   5.470  0.0498  0.1431  0.6581
   63SAPC   C12 4986   3.789   4.241   5.431 -0.4353 -0.1380  0.4502
   63SAPC  H12A 4987   3.813   4.197   5.335 -3.8579  3.0030 -1.9754
   63SAPC  H12B 4988   3.851   4.187   5.501  1.0186 -0.8700 -1.3285
   63SAPC   C13 4989   3.624   4.247   5.610 -0.3059 -0.0138  0.1971
   63SAPC  H13A 4990   3.702   4.199   5.667  2.4735  2.6043 -1.2397
   63SAPC  H13B 4991   3.655   4.350   5.622 -1.3722  0.0487  2.7807
   63SAPC  H13C 4992   3.522   4.239   5.646 -0.1033 -0.6635  0.6367
   63SAPC   C14 4993   3.545   4.290   5.382 -0.7965  0.9487 -0.1068
   63SAPC  H14A 4994   3.511   4.240   5.293  1.7959  0.1117 -0.6579
   63SAPC  H14B 4995   3.466   4.325   5.448  1.1075  0.8684  2.3001
   63SAPC  H14C 4996   3.578   4.389   5.352  0.2280  0.4023 -0.7787
   63SAPC   C15 4997   3.611   4.064   5.453 -0.2986 -0.2622 -0.5966
   63SAPC  H15A 4998   3.679   4.010   5.517  0.2533  1.8240  0.6301
   63SAPC  H15B 4999   3.517   4.053   5.505 -0.7873  3.4072 -0.5519
   63SAPC  H15C 5000   3.617   4.031   5.350  0.5595 -0.3295 -0.5288
   63SAPC   C11 5001   3.836   4.391   5.426 -0.5580 -0.2843 -0.4892
   63SAPC  H11A 5002   3.761   4.464   5.391 -1.6606 -1.8763 -1.5357
   63SAPC  H11B 5003   3.923   4.392   5.356 -1.3252  0.0175 -1.4449
   63SAPC     P 5004   3.869   4.560   5.631 -0.6122  0.1089  0.3542
   63SAPC   O13 5005   4.009   4.600   5.681  0.0430 -0.0962 -0.0758
   63SAPC   O14 5006   3.800   4.651   5.544 -0.0253 -0.5195 -0.7644
   63SAPC   O12 5007   3.888   4.428   5.557  0.5038  0.0460  0.3942
   63SAPC   O11 5008   3.769   4.527   5.748  0.0720 -0.0652 -0.3960
   63SAPC    C1 5009   3.794   4.422   5.840  0.1157  0.0414  0.2618
   63SAPC    HA 5010   3.818   4.326   5.789 -3.2052 -0.8180  0.2109
   63SAPC    HB 5011   3.868   4.456   5.916 -1.1456  1.6242  0.7914
   63SAPC    C2 5012   3.665   4.382   5.922 -0.5924 -0.1022  0.2280
   63SAPC    HS 5013   3.587   4.364   5.846  0.5180  0.1114 -0.9837
   63SAPC   O21 5014   3.622   4.498   5.999 -0.2212  0.5795  0.1462
   63SAPC   C21 5015   3.536   4.478   6.103  0.0249 -0.0899  0.3439
   63SAPC   O22 5016   3.480   4.371   6.126  0.7005  0.3626  0.1961
   63SAPC   C22 5017   3.527   4.600   6.195 -0.5777 -0.7510  0.3336
   63SAPC   H2R 5018   3.622   4.656   6.181  0.9586 -2.7946  2.0927
   63SAPC   H2S 5019   3.439   4.657   6.160  1.4988  2.8707  0.8319
   63SAPC    C3 5020   3.695   4.253   5.999  0.2381  0.1863  0.1756
   63SAPC    HX 5021   3.722   4.175   5.925  0.2226 -0.3854  0.7661
   63SAPC    HY 5022   3.607   4.214   6.055 -0.4598 -0.7942 -1.5557
   63SAPC   O31 5023   3.801   4.273   6.100  0.4741  0.2657 -0.2414
   63SAPC   C31 5024   3.845   4.156   6.143  0.3205  0.3072  0.6191
   63SAPC   O32 5025   3.797   4.049   6.117 -0.8147  0.3856  0.0939
   63SAPC   C32 5026   3.975   4.175   6.219 -0.3570 -0.1782 -0.0740
   63SAPC   H2X 5027   3.974   4.262   6.287 -1.3404  0.9121 -1.4594
   63SAPC   H2Y 5028   4.059   4.197   6.149 -1.5514 -0.4928 -1.6280
   63SAPC   C23 5029   3.512   4.558   6.344  0.6990 -0.0381  0.1628
   63SAPC   H3R 5030   3.430   4.484   6.356 -1.0865  1.5828 -1.6843
   63SAPC   H3S 5031   3.491   4.661   6.382  1.1971  0.8625 -1.9228
   63SAPC   C24 5032   3.653   4.511   6.388 -0.5332 -0.1785  0.9326
   63SAPC   H4R 5033   3.728   4.581   6.346 -1.6039 -0.0883 -0.8943
   63SAPC   H4S 5034   3.668   4.409   6.347 -1.4477  0.0538 -0.0357
   63SAPC   C25 5035   3.657   4.500   6.540 -0.2820 -0.3842  0.2108
   63SAPC   H5R 5036   3.587   4.418   6.565 -0.8913 -0.1181 -0.5703
   63SAPC   C26 5037   3.720   4.571   6.640 -0.0617  0.0770  0.5550
   63SAPC   H6R 5038   3.707   4.529   6.741  0.2475 -1.9813 -0.2403
   63SAPC   C27 5039   3.808   4.693   6.615  0.3543  0.0613  0.0672
   63SAPC   H7R 5040   3.761   4.783   6.659 -1.5191 -0.7539 -0.2213
   63SAPC   H7S 5041   3.818   4.724   6.509  2.9139  0.4397  0.3732
   63SAPC   C28 5042   3.946   4.692   6.685 -0.2456 -0.0540 -0.5719
   63SAPC   H8R 5043   3.946   4.695   6.795 -3.0986 -0.1614 -0.5223
   63SAPC   C29 5044   4.067   4.694   6.627  0.4653 -0.3873 -0.7458
   63SAPC   H9R 5045   4.149   4.706   6.699 -1.2034  1.4420  0.9114
   63SAPC  C210 5046   4.103   4.694   6.483 -0.1059  0.3857  0.2616
   63SAPC  H10R 5047   4.212   4.713   6.478 -0.0656 -0.3142 -1.6374
   63SAPC  H10S 5048   4.041   4.778   6.444  1.1770  1.1882 -0.0782
   63SAPC  C211 5049   4.061   4.568   6.411 -0.1033  1.2749  0.0529
   63SAPC  H11R 5050   3.954   4.563   6.388 -0.0748  1.8417 -0.2274
   63SAPC  C212 5051   4.142   4.468   6.375  0.7619 -0.1608 -0.4174
   63SAPC  H12R 5052   4.102   4.401   6.297  0.8756  2.5205 -2.8590
   63SAPC  C213 5053   4.295   4.454   6.402  0.5149 -0.0648  0.1551
   63SAPC  H13R 5054   4.337   4.555   6.388 -0.0276 -0.0706 -1.6149
   63SAPC  H13S 5055   4.337   4.391   6.321  0.7223 -0.5327  0.6207
   63SAPC  C214 5056   4.319   4.398   6.538 -0.5018 -0.4730 -0.0127
   63SAPC  H14R 5057   4.325   4.469   6.622 -0.5765 -0.6415  0.1341
   63SAPC  C215 5058   4.365   4.276   6.565  0.0906 -0.7250 -0.8682
   63SAPC  H15R 5059   4.367   4.237   6.668  0.5661 -1.2855 -1.0864
   63SAPC  C216 5060   4.407   4.177   6.466 -0.1852 -0.8078  0.7406
   63SAPC  H16R 5061   4.493   4.216   6.408 -1.1598  1.8640  0.9962
   63SAPC  H16S 5062   4.332   4.160   6.385  0.9265 -0.1954 -0.4443
   63SAPC  C217 5063   4.432   4.037   6.518  0.1406 -0.1357  0.4800
   63SAPC  H17R 5064   4.514   4.031   6.591  1.9834  0.1892 -1.5143
   63SAPC  H17S 5065   4.455   3.970   6.432  0.0650  0.4775 -0.0230
   63SAPC  C218 5066   4.302   3.975   6.586  0.0193 -0.3358 -0.1949
   63SAPC  H18R 5067   4.225   3.991   6.507  0.4029 -0.3099 -0.5680
   63SAPC  H18S 5068   4.262   4.040   6.667 -0.2519  2.2484 -2.3302
   63SAPC  C219 5069   4.313   3.828   6.632  0.2624 -0.9283 -0.0924
   63SAPC  H19R 5070   4.334   3.775   6.536  1.8435 -0.3976 -0.0506
   63SAPC  H19S 5071   4.217   3.792   6.673 -0.2641 -0.1211 -0.6108
   63SAPC  C220 5072   4.424   3.789   6.734 -0.7107 -0.3953  0.8036
   63SAPC  H20R 5073   4.521   3.815   6.687 -1.5042  1.1372 -0.0106
   63SAPC  H20S 5074   4.430   3.682   6.762 -0.5282 -0.4772  0.4571
   63SAPC  H20T 5075   4.414   3.842   6.832  1.0096 -0.1105  0.8461
   63SAPC   C33 5076   4.011   4.053   6.299 -0.9139  0.4864 -0.0342
   63SAPC   H3X 5077   4.116   4.053   6.334 -0.4660 -0.5368 -1.3428
   63SAPC   H3Y 5078   4.000   3.965   6.231  1.3730  0.6449 -0.6614
   63SAPC   C34 5079   3.925   4.021   6.427  0.6265 -0.4992  0.5488
   63SAPC   H4X 5080   3.953   3.918   6.459  0.4152 -1.5072 -2.4070
   63SAPC   H4Y 5081   3.821   4.018   6.390  1.1163 -0.0561 -0.8841
   63SAPC   C35 5082   3.951   4.119   6.541 -0.5627 -0.1673 -0.4587
   63SAPC   H5X 5083   3.880   4.204   6.531  0.8154  1.1805  0.9468
   63SAPC   H5Y 5084   4.053   4.160   6.524 -1.2317  1.8511  0.2779
   63SAPC   C36 5085   3.951   4.055   6.679  0.2143 -0.1481  0.4731
   63SAPC   H6X 5086   4.025   3.971   6.687 -0.4999 -0.9504 -1.2237
   63SAPC   H6Y 5087   3.853   4.007   6.698 -0.7320  2.2460  1.7248
   63SAPC   C37 5088   3.988   4.158   6.786 -0.7568  0.0813 -0.5911
   63SAPC   H7X 5089   4.095   4.188   6.789 -0.4631 -1.1362  1.7859
   63SAPC   H7Y 5090   3.973   4.104   6.881  0.8431  1.2470  0.3513
   63SAPC   C38 5091   3.921   4.300   6.783  0.0651  0.0642 -0.2997
   63SAPC   H8X 5092   3.818   4.283   6.745  0.1524  0.6621 -0.8149
   63SAPC   H8Y 5093   3.973   4.353   6.701 -0.0237 -1.2822 -1.2330
   63SAPC   C39 5094   3.926   4.386   6.909  0.7735  0.3948 -0.0789
   63SAPC   H9X 5095   3.868   4.329   6.984 -0.6418  0.6727 -0.9396
   63SAPC   H9Y 5096   3.868   4.481   6.901 -0.0653  0.0298  1.5405
   63SAPC  C310 5097   4.062   4.414   6.965  0.0478  0.0253  0.0521
   63SAPC  H10X 5098   4.104   4.495   6.902 -1.1210  2.2421  2.0361
   63SAPC  H10Y 5099   4.122   4.322   6.949  1.6010  1.0636 -0.2133
   63SAPC  C311 5100   4.059   4.445   7.113  0.0154 -0.5606  0.1421
   63SAPC  H11X 5101   4.009   4.368   7.176 -0.5574  1.2704  1.9831
   63SAPC  H11Y 5102   4.010   4.543   7.126 -1.6729 -1.1602 -1.4667
   63SAPC  C312 5103   4.209   4.468   7.164  0.3898 -0.1547 -0.3547
   63SAPC  H12X 5104   4.246   4.552   7.101 -1.4392 -0.3645 -1.7845
   63SAPC  H12Y 5105   4.257   4.372   7.138 -1.2494 -1.1486  0.2498
   63SAPC  C313 5106   4.229   4.489   7.310  0.1402  0.1332  0.6523
   63SAPC  H13X 5107   4.203   4.399   7.370 -1.9462  0.3749  0.1684
   63SAPC  H13Y 5108   4.163   4.575   7.333  0.7881  2.2645 -4.7109
   63SAPC  C314 5109   4.366   4.528   7.337  0.2911 -0.3528  0.4070
   63SAPC  H14X 5110   4.379   4.623   7.281 -1.0368  0.1813  0.9679
   63SAPC  H14Y 5111   4.440   4.453   7.303  0.4715 -0.4136  0.9325
   63SAPC  C315 5112   4.385   4.563   7.487 -0.5851  0.4028 -0.4453
   63SAPC  H15X 5113   4.495   4.556   7.501 -0.5550  0.7082 -0.5252
   63SAPC  H15Y 5114   4.339   4.476   7.539  1.3526 -1.6333 -2.0188
   63SAPC  C316 5115   4.329   4.702   7.530 -0.4304 -0.8141 -0.1899
   63SAPC  H16X 5116   4.218   4.695   7.534 -0.3473 -1.1957  2.1818
   63SAPC  H16Y 5117   4.365   4.770   7.450 -1.2916  0.9079  0.8611
   63SAPC  C317 5118   4.374   4.733   7.672 -1.0042  0.1131 -0.0442
   63SAPC  H17X 5119   4.478   4.695   7.684 -1.2703 -0.6688 -0.1634
   63SAPC  H17Y 5120   4.317   4.669   7.743  0.6069  0.5764  1.7068
   63SAPC  C318 5121   4.366   4.875   7.713 -0.5565 -0.1217  0.5206
   63SAPC  H18X 5122   4.424   4.935   7.641 -1.8836  0.0145 -0.4561
   63SAPC  H18Y 5123   4.419   4.890   7.810 -0.8938  2.9368  0.3027
   63SAPC  H18Z 5124   4.258   4.903   7.719 -0.7472  0.0169 -2.8937
   64SAPC     N 5125   3.577   5.438   5.371 -0.1269  0.0581  0.8267
   64SAPC   C12 5126   3.569   5.525   5.497  0.6180 -0.1159  0.1279
   64SAPC  H12A 5127   3.494   5.601   5.481  0.9120  0.4692  1.5018
   64SAPC  H12B 5128   3.666   5.572   5.508  0.7599 -0.1215 -1.0147
   64SAPC   C13 5129   3.697   5.351   5.370  0.1362 -0.5845 -0.4142
   64SAPC  H13A 5130   3.789   5.409   5.369 -1.1968  1.6223  1.1351
   64SAPC  H13B 5131   3.702   5.298   5.464 -0.5788  0.5221  0.2561
   64SAPC  H13C 5132   3.689   5.275   5.294 -0.8339 -1.2652  0.3633
   64SAPC   C14 5133   3.460   5.335   5.349 -0.0529 -0.3131  0.0758
   64SAPC  H14A 5134   3.462   5.267   5.433  1.5291 -2.6593 -1.7819
   64SAPC  H14B 5135   3.368   5.391   5.344  0.1466 -0.1261 -1.9402
   64SAPC  H14C 5136   3.473   5.278   5.258 -2.0383  0.3884 -0.6736
   64SAPC   C15 5137   3.585   5.520   5.246  0.5901  0.5095 -0.0130
   64SAPC  H15A 5138   3.671   5.585   5.245  0.1907  1.0567 -2.1982
   64SAPC  H15B 5139   3.591   5.467   5.151  0.1538  1.5062 -0.5984
   64SAPC  H15C 5140   3.497   5.580   5.236 -0.6524 -1.1739  0.5652
   64SAPC   C11 5141   3.531   5.451   5.626  0.1060  0.6496 -0.1615
   64SAPC  H11A 5142   3.614   5.379   5.638  0.2319  1.3186  3.2987
   64SAPC  H11B 5143   3.434   5.396   5.616  0.0891  0.6679 -0.0887
   64SAPC     P 5144   3.427   5.642   5.764 -0.1857 -0.0040 -0.3594
   64SAPC   O13 5145   3.426   5.744   5.652  0.1664  0.5480 -0.2828
   64SAPC   O14 5146   3.296   5.579   5.787  0.7742 -0.2553  0.3095
   64SAPC   O12 5147   3.529   5.529   5.744 -0.1594  0.2585 -0.3476
   64SAPC   O11 5148   3.471   5.720   5.894  0.6927 -0.2227 -0.3669
   64SAPC    C1 5149   3.612   5.765   5.897  0.4013 -0.3431  0.0285
   64SAPC    HA 5150   3.640   5.797   6.000  0.2557 -0.2984  0.0542
   64SAPC    HB 5151   3.688   5.689   5.868  1.2454  0.0881  1.0498
   64SAPC    C2 5152   3.638   5.890   5.812 -0.1504  0.4089 -0.4779
   64SAPC    HS 5153   3.639   5.861   5.705  0.7430  0.5807 -0.5238
   64SAPC   O21 5154   3.774   5.932   5.854  0.3803  0.8379 -0.2417
   64SAPC   C21 5155   3.870   5.881   5.779 -0.2772 -0.4365 -0.6162
   64SAPC   O22 5156   3.861   5.802   5.685  0.5797  0.2303  0.1289
   64SAPC   C22 5157   4.003   5.937   5.823  0.5211 -0.1700 -0.4362
   64SAPC   H2R 5158   4.082   5.919   5.747  1.3731  1.3562  0.0728
   64SAPC   H2S 5159   3.986   6.045   5.840 -0.2183 -0.3304 -0.1594
   64SAPC    C3 5160   3.535   6.002   5.832  0.2634  0.4625 -0.0980
   64SAPC    HX 5161   3.430   5.965   5.832 -0.7011  2.9691  1.9141
   64SAPC    HY 5162   3.541   6.063   5.739  2.0417 -0.2558 -0.4611
   64SAPC   O31 5163   3.552   6.073   5.959 -0.0568  0.5578  0.0827
   64SAPC   C31 5164   3.626   6.182   5.950 -0.3889 -0.1410  0.2967
   64SAPC   O32 5165   3.696   6.211   5.851 -0.8606  0.0269 -0.3274
   64SAPC   C32 5166   3.624   6.260   6.081  0.1599 -0.0038  0.4983
   64SAPC   H2X 5167   3.552   6.344   6.076 -0.0436 -0.1960  0.1852
   64SAPC   H2Y 5168   3.724   6.308   6.077 -0.1061  0.7728  2.4109
   64SAPC   C23 5169   4.065   5.891   5.962  0.0402 -0.1046  0.4637
   64SAPC   H3R 5170   4.137   5.968   5.997 -0.3423 -0.2711  1.6406
   64SAPC   H3S 5171   4.125   5.797   5.955 -1.4956 -1.0359 -0.4281
   64SAPC   C24 5172   3.974   5.871   6.080  0.1403  0.2966 -0.0942
   64SAPC   H4R 5173   3.890   5.942   6.066 -0.7564 -0.9974 -1.3807
   64SAPC   H4S 5174   4.023   5.912   6.171 -0.6512 -0.4331  0.6626
   64SAPC   C25 5175   3.922   5.732   6.092  0.4638  0.7863 -0.1405
   64SAPC   H5R 5176   3.930   5.672   6.000  2.2526  2.2713 -0.9906
   64SAPC   C26 5177   3.862   5.669   6.196 -0.0535 -0.1771  0.0421
   64SAPC   H6R 5178   3.827   5.566   6.179 -3.6253  1.4684 -3.2975
   64SAPC   C27 5179   3.827   5.725   6.329  0.0207  0.7094  0.1831
   64SAPC   H7R 5180   3.732   5.781   6.317 -1.6782 -2.0727  0.2064
   64SAPC   H7S 5181   3.912   5.790   6.359  1.5466 -0.7340 -0.8911
   64SAPC   C28 5182   3.814   5.616   6.433  1.5523  0.7800 -0.3118
   64SAPC   H8R 5183   3.849   5.515   6.406 -1.7501  0.0929 -2.2877
   64SAPC   C29 5184   3.762   5.625   6.562 -0.6157  0.0209  0.6076
   64SAPC   H9R 5185   3.774   5.532   6.620  0.2088 -0.7807 -0.8257
   64SAPC  C210 5186   3.715   5.751   6.627 -0.1945  0.5851 -0.5599
   64SAPC  H10R 5187   3.613   5.736   6.667  1.1348 -2.1852  1.9710
   64SAPC  H10S 5188   3.702   5.827   6.546 -0.5348 -0.0272 -1.0847
   64SAPC  C211 5189   3.815   5.799   6.728 -0.3210 -0.0380 -0.5217
   64SAPC  H11R 5190   3.894   5.847   6.669  1.2272 -0.6207  1.0600
   64SAPC  C212 5191   3.825   5.792   6.866 -0.5997 -0.8546  0.1760
   64SAPC  H12R 5192   3.915   5.831   6.915  0.4944 -0.3704 -2.1507
   64SAPC  C213 5193   3.723   5.733   6.958  0.5058  0.1992 -0.3939
   64SAPC  H13R 5194   3.745   5.625   6.969 -3.3818 -0.7335 -0.9971
   64SAPC  H13S 5195   3.622   5.729   6.911  0.5793  1.2696 -0.6715
   64SAPC  C214 5196   3.711   5.804   7.090 -0.6104  0.5419  0.1452
   64SAPC  H14R 5197   3.648   5.892   7.107  1.4417  2.2473 -0.8583
   64SAPC  C215 5198   3.781   5.776   7.200 -0.4502  1.1766 -0.2804
   64SAPC  H15R 5199   3.760   5.837   7.289  0.8697 -0.7947  1.4416
   64SAPC  C216 5200   3.876   5.663   7.216 -0.0920 -0.5175 -0.2560
   64SAPC  H16R 5201   3.948   5.687   7.297 -0.4606  0.3726 -0.1863
   64SAPC  H16S 5202   3.943   5.648   7.129  0.1571 -0.1856 -0.1230
   64SAPC  C217 5203   3.799   5.538   7.237 -0.1259  0.1877 -0.9765
   64SAPC  H17R 5204   3.863   5.447   7.243  1.3058  1.2802  0.6817
   64SAPC  H17S 5205   3.719   5.527   7.161 -0.4323 -0.6927 -0.5457
   64SAPC  C218 5206   3.717   5.530   7.370  0.6405 -0.4707 -0.1913
   64SAPC  H18R 5207   3.630   5.466   7.344  0.5758  0.0405 -1.2455
   64SAPC  H18S 5208   3.682   5.632   7.398  1.7617 -0.4972  1.4258
   64SAPC  C219 5209   3.797   5.469   7.489  0.5757  0.8116 -0.3812
   64SAPC  H19R 5210   3.820   5.370   7.446  1.6586  1.2573 -0.8271
   64SAPC  H19S 5211   3.734   5.456   7.580  0.6287  0.5744 -0.3799
   64SAPC  C220 5212   3.927   5.540   7.529 -0.6741  0.0808  0.4745
   64SAPC  H20R 5213   3.977   5.485   7.612 -0.0454 -1.6517 -1.0382
   64SAPC  H20S 5214   3.910   5.643   7.567 -0.0658  0.5417 -0.4971
   64SAPC  H20T 5215   3.991   5.567   7.443 -1.4854  0.7753  0.0860
   64SAPC   C33 5216   3.634   6.176   6.210  0.1068  0.3210 -1.0837
   64SAPC   H3X 5217   3.708   6.093   6.214  1.0403  1.1618 -0.7281
   64SAPC   H3Y 5218   3.534   6.131   6.226  1.4352 -1.3102  3.4465
   64SAPC   C34 5219   3.647   6.256   6.341  0.4760  0.2275  0.8732
   64SAPC   H4X 5220   3.593   6.352   6.355  0.1351  0.4079 -1.4511
   64SAPC   H4Y 5221   3.755   6.281   6.353  1.4665 -3.1363 -0.3150
   64SAPC   C35 5222   3.605   6.180   6.470  0.4317 -0.5091 -0.2353
   64SAPC   H5X 5223   3.656   6.081   6.465  2.2465  0.4805 -2.2639
   64SAPC   H5Y 5224   3.497   6.157   6.474  0.5551 -1.3875 -1.4560
   64SAPC   C36 5225   3.643   6.252   6.605 -0.5334  0.6657  0.3247
   64SAPC   H6X 5226   3.594   6.351   6.614 -0.2450  0.9758 -1.3130
   64SAPC   H6Y 5227   3.753   6.270   6.603 -0.3123 -0.6910 -1.8453
   64SAPC   C37 5228   3.615   6.158   6.718 -0.0874 -0.2492 -0.9944
   64SAPC   H7X 5229   3.697   6.085   6.738 -1.8021 -2.7287 -2.7458
   64SAPC   H7Y 5230   3.521   6.102   6.700  0.1180 -0.7884 -0.4082
   64SAPC   C38 5231   3.588   6.244   6.844  0.6322 -0.7861  0.9615
   64SAPC   H8X 5232   3.546   6.177   6.923 -2.9380 -0.4872 -0.5706
   64SAPC   H8Y 5233   3.526   6.334   6.826  2.3963  0.4530  0.9752
   64SAPC   C39 5234   3.719   6.318   6.898 -0.7598 -0.6375  0.6637
   64SAPC   H9X 5235   3.744   6.394   6.821 -0.8431  0.0510  1.3055
   64SAPC   H9Y 5236   3.792   6.234   6.906 -1.2590 -1.1508 -0.0819
   64SAPC  C310 5237   3.709   6.392   7.035  0.3050 -0.7265 -0.0529
   64SAPC  H10X 5238   3.651   6.486   7.022  3.1955  0.7635 -2.9358
   64SAPC  H10Y 5239   3.805   6.430   7.076  0.1663 -0.8521  0.3925
   64SAPC  C311 5240   3.644   6.302   7.139 -0.0541 -0.7878 -0.6019
   64SAPC  H11X 5241   3.692   6.202   7.133 -0.8084 -1.1817 -0.2357
   64SAPC  H11Y 5242   3.538   6.290   7.108 -0.8126 -0.0064  1.6018
   64SAPC  C312 5243   3.652   6.361   7.278  0.4371 -0.3434 -0.4641
   64SAPC  H12X 5244   3.639   6.472   7.279 -0.9850 -0.4434  3.8766
   64SAPC  H12Y 5245   3.757   6.354   7.311  0.8256 -2.2047 -2.0237
   64SAPC  C313 5246   3.557   6.287   7.374  0.3023 -0.4007 -0.5043
   64SAPC  H13X 5247   3.520   6.196   7.321 -1.5250 -0.3158  0.5627
   64SAPC  H13Y 5248   3.461   6.341   7.393  0.6377 -0.2621  0.8086
   64SAPC  C314 5249   3.610   6.241   7.504 -0.2842 -0.1271 -0.6001
   64SAPC  H14X 5250   3.661   6.320   7.562  0.2188  0.8829 -2.3793
   64SAPC  H14Y 5251   3.681   6.157   7.486 -1.1173 -0.8439 -0.5677
   64SAPC  C315 5252   3.503   6.192   7.603  0.5422 -0.2615 -0.4487
   64SAPC  H15X 5253   3.442   6.107   7.565  0.0656  0.1827 -0.6840
   64SAPC  H15Y 5254   3.426   6.270   7.619 -0.1188 -1.2067  1.1404
   64SAPC  C316 5255   3.561   6.160   7.741 -0.3567  0.1767  0.4776
   64SAPC  H16X 5256   3.578   6.257   7.792  2.4638  0.2034 -0.4383
   64SAPC  H16Y 5257   3.660   6.111   7.731 -0.5195  0.3346 -2.2849
   64SAPC  C317 5258   3.470   6.095   7.841  0.2128  0.2542  0.1834
   64SAPC  H17X 5259   3.364   6.125   7.829 -0.0207 -0.3422  0.7017
   64SAPC  H17Y 5260   3.508   6.116   7.943  2.9805  0.0271 -0.7449
   64SAPC  C318 5261   3.466   5.940   7.836  0.0747  0.1302  0.5333
   64SAPC  H18X 5262   3.409   5.906   7.925 -1.2153  0.1351 -0.2751
   64SAPC  H18Y 5263   3.571   5.910   7.854 -0.4387 -1.2161  1.3963
   64SAPC  H18Z 5264   3.438   5.890   7.741 -1.1746 -1.1686  1.5576
   65SAPC     N 5265   4.769   6.363   5.671 -0.0624  0.3153  0.4296
   65SAPC   C12 5266   4.869   6.381   5.781  0.6085  1.0436  0.0563
   65SAPC  H12A 5267   4.908   6.482   5.783  0.8129  0.9687 -0.0746
   65SAPC  H12B 5268   4.952   6.314   5.767 -0.4052 -0.4227  1.0164
   65SAPC   C13 5269   4.647   6.438   5.703  0.3059 -0.6365  0.1611
   65SAPC  H13A 5270   4.629   6.446   5.809  0.1024 -0.0437  0.0818
   65SAPC  H13B 5271   4.662   6.537   5.664  0.9761 -1.0768 -0.7310
   65SAPC  H13C 5272   4.560   6.402   5.650 -0.3900  1.1271  0.0683
   65SAPC   C14 5273   4.823   6.416   5.538 -0.2048  0.1782  0.4612
   65SAPC  H14A 5274   4.810   6.523   5.535 -0.9343  0.0461 -1.9594
   65SAPC  H14B 5275   4.925   6.384   5.525  0.2395  1.8320 -0.1763
   65SAPC  H14C 5276   4.765   6.370   5.459 -0.1761 -2.1136  1.7133
   65SAPC   C15 5277   4.727   6.217   5.667 -0.1570 -0.0900 -0.4276
   65SAPC  H15A 5278   4.721   6.180   5.768 -0.5632  2.0974  0.3858
   65SAPC  H15B 5279   4.639   6.196   5.609 -0.2374 -1.1758  0.0792
   65SAPC  H15C 5280   4.802   6.156   5.619 -1.9393 -1.8643 -1.0064
   65SAPC   C11 5281   4.825   6.361   5.927  0.1780 -0.5652 -0.1755
   65SAPC  H11A 5282   4.762   6.446   5.960  0.2240 -0.4960 -0.2678
   65SAPC  H11B 5283   4.919   6.363   5.988 -0.3517 -1.4427  0.6813
   65SAPC     P 5284   4.834   6.105   6.027  0.0430  0.0532 -0.2163
   65SAPC   O13 5285   4.732   6.001   6.019  0.6341  0.5806  0.1674
   65SAPC   O14 5286   4.966   6.071   5.961 -0.1223  0.0853  0.5628
   65SAPC   O12 5287   4.773   6.231   5.957 -0.4912 -0.0693 -0.5637
   65SAPC   O11 5288   4.855   6.155   6.173  0.6992  0.3139  0.0289
   65SAPC    C1 5289   4.765   6.163   6.276 -0.1769  0.5695  0.3923
   65SAPC    HA 5290   4.680   6.095   6.253  0.5134  0.0358 -0.6097
   65SAPC    HB 5291   4.814   6.132   6.371 -0.8522  2.7876  1.4937
   65SAPC    C2 5292   4.729   6.309   6.289 -1.0267 -0.1763 -0.5613
   65SAPC    HS 5293   4.735   6.353   6.187  1.0610  1.3856  0.1882
   65SAPC   O21 5294   4.830   6.374   6.376 -0.3470 -0.2717 -0.7040
   65SAPC   C21 5295   4.849   6.502   6.342  0.3478 -0.2448 -0.8683
   65SAPC   O22 5296   4.792   6.567   6.256  0.7114  0.2908  0.0476
   65SAPC   C22 5297   4.947   6.558   6.443  0.4859  0.0241  0.1721
   65SAPC   H2R 5298   4.927   6.514   6.543  1.0698 -0.9460 -0.1275
   65SAPC   H2S 5299   5.048   6.528   6.405 -0.5051 -0.2187 -2.3958
   65SAPC    C3 5300   4.590   6.330   6.355  0.0597  0.8044  0.3986
   65SAPC    HX 5301   4.510   6.293   6.287 -0.0800 -1.0196  1.5225
   65SAPC    HY 5302   4.568   6.439   6.366 -1.6517  0.8299 -2.7022
   65SAPC   O31 5303   4.565   6.247   6.472 -0.1257  0.1973  0.2061
   65SAPC   C31 5304   4.590   6.316   6.588 -0.1861 -0.1817  0.4771
   65SAPC   O32 5305   4.619   6.433   6.594 -0.3390 -0.1680 -0.1416
   65SAPC   C32 5306   4.585   6.213   6.702  0.2869 -0.3401 -0.3826
   65SAPC   H2X 5307   4.563   6.109   6.668 -0.3463 -0.9473  1.7956
   65SAPC   H2Y 5308   4.505   6.238   6.775 -0.2101  0.6521 -1.2477
   65SAPC   C23 5309   4.951   6.716   6.448  0.2764 -0.0952  0.3454
   65SAPC   H3R 5310   4.943   6.757   6.345 -1.8395  1.7889  1.2301
   65SAPC   H3S 5311   5.051   6.740   6.491  1.5661  0.0998 -2.5813
   65SAPC   C24 5312   4.842   6.773   6.532  0.1885  0.3060 -0.3509
   65SAPC   H4R 5313   4.846   6.724   6.632 -1.6083  0.1155 -0.3429
   65SAPC   H4S 5314   4.740   6.744   6.497 -0.9041  1.6244  1.6337
   65SAPC   C25 5315   4.846   6.920   6.543 -0.3110 -0.1676  0.0575
   65SAPC   H5R 5316   4.787   6.976   6.469  1.8512  0.7419 -1.0051
   65SAPC   C26 5317   4.910   6.994   6.647 -0.4648 -0.0870  0.0697
   65SAPC   H6R 5318   4.917   7.103   6.635  1.1955 -0.2901 -0.8896
   65SAPC   C27 5319   4.968   6.937   6.772 -0.4881  0.0437 -0.5625
   65SAPC   H7R 5320   4.926   6.835   6.786 -0.1156 -0.0818 -0.3393
   65SAPC   H7S 5321   4.939   6.999   6.859  1.4487 -2.5410  2.0182
   65SAPC   C28 5322   5.115   6.922   6.757 -0.3340 -0.2877 -0.1669
   65SAPC   H8R 5323   5.167   7.009   6.715  1.1780 -1.3063 -0.4334
   65SAPC   C29 5324   5.178   6.829   6.830  0.0894  1.1534 -0.0339
   65SAPC   H9R 5325   5.288   6.825   6.822 -0.1204 -1.9417 -2.5225
   65SAPC  C210 5326   5.119   6.731   6.924 -0.6677  0.2805 -0.0426
   65SAPC  H10R 5327   5.047   6.776   6.995 -1.7625 -3.0701  1.0798
   65SAPC  H10S 5328   5.200   6.695   6.991  0.4920  2.0351 -0.4784
   65SAPC  C211 5329   5.075   6.598   6.871 -0.1830  0.5223 -0.7490
   65SAPC  H11R 5330   5.139   6.543   6.801 -1.3595 -0.7120 -0.8855
   65SAPC  C212 5331   4.954   6.539   6.890  0.3712 -0.5962 -0.0568
   65SAPC  H12R 5332   4.954   6.430   6.876  2.2602 -0.6337  0.0629
   65SAPC  C213 5333   4.846   6.595   6.979 -0.1914  0.0688  0.6674
   65SAPC  H13R 5334   4.860   6.702   7.007 -0.8638  0.6114 -1.0653
   65SAPC  H13S 5335   4.853   6.534   7.072 -0.3409  1.0448  1.3311
   65SAPC  C214 5336   4.711   6.586   6.913 -0.2791  0.1229  0.2344
   65SAPC  H14R 5337   4.700   6.622   6.810 -2.8171 -1.4156 -0.0649
   65SAPC  C215 5338   4.599   6.536   6.977  0.1819  0.2670 -0.8652
   65SAPC  H15R 5339   4.506   6.526   6.919 -0.9962 -3.5379  1.4859
   65SAPC  C216 5340   4.582   6.502   7.121 -0.4126 -0.4326 -0.2003
   65SAPC  H16R 5341   4.512   6.575   7.167  0.5294  0.0589  0.4647
   65SAPC  H16S 5342   4.670   6.531   7.182 -0.3165  0.5557 -0.8030
   65SAPC  C217 5343   4.538   6.357   7.147  0.5746  0.3080 -0.0320
   65SAPC  H17R 5344   4.602   6.285   7.091  1.1056 -0.3006  1.3466
   65SAPC  H17S 5345   4.433   6.342   7.112 -0.8251 -0.4804  4.1559
   65SAPC  C218 5346   4.536   6.325   7.297  0.1314 -0.5237 -0.0685
   65SAPC  H18R 5347   4.480   6.412   7.338 -3.1709 -1.0813 -3.1475
   65SAPC  H18S 5348   4.642   6.318   7.331  0.0196 -2.2843 -0.0304
   65SAPC  C219 5349   4.456   6.202   7.339  0.2489  0.1365 -0.5228
   65SAPC  H19R 5350   4.513   6.125   7.283  0.2584 -0.2694  0.0469
   65SAPC  H19S 5351   4.358   6.206   7.288  0.9133 -1.9739 -2.0522
   65SAPC  C220 5352   4.447   6.173   7.490  0.3556 -0.9155 -0.0742
   65SAPC  H20R 5353   4.390   6.078   7.501 -1.4179 -0.2742 -3.4578
   65SAPC  H20S 5354   4.381   6.247   7.539  0.2397 -1.2749  0.3201
   65SAPC  H20T 5355   4.547   6.159   7.538  0.6316 -0.6073 -0.5562
   65SAPC   C33 5356   4.715   6.226   6.774  0.2090  0.0119  0.4347
   65SAPC   H3X 5357   4.712   6.163   6.866 -2.7151 -1.5329 -0.6584
   65SAPC   H3Y 5358   4.729   6.332   6.804  0.0558  0.2884 -0.4569
   65SAPC   C34 5359   4.835   6.186   6.686 -0.3075 -0.4758 -0.5391
   65SAPC   H4X 5360   4.850   6.264   6.609 -0.3730 -0.6278 -0.7060
   65SAPC   H4Y 5361   4.813   6.091   6.634  2.0435 -1.4223  0.1103
   65SAPC   C35 5362   4.972   6.151   6.763  1.3139  0.5997  0.1838
   65SAPC   H5X 5363   5.027   6.246   6.779  2.1415 -0.1280  1.7612
   65SAPC   H5Y 5364   5.032   6.091   6.691 -0.0476  0.7549 -1.1276
   65SAPC   C36 5365   4.956   6.093   6.906  0.4838  0.0311  0.3170
   65SAPC   H6X 5366   4.904   5.995   6.905  1.6993 -0.6355  0.6866
   65SAPC   H6Y 5367   4.909   6.169   6.972  0.0120  0.9282 -1.0236
   65SAPC   C37 5368   5.094   6.053   6.955 -0.3403  0.0068 -0.2134
   65SAPC   H7X 5369   5.141   6.139   7.008  0.4878 -0.6537  0.1261
   65SAPC   H7Y 5370   5.158   6.031   6.867 -0.3000 -0.9140  0.0462
   65SAPC   C38 5371   5.101   5.949   7.065  0.0998  0.5858 -0.4673
   65SAPC   H8X 5372   5.044   5.859   7.034  0.6060  0.7608 -1.9720
   65SAPC   H8Y 5373   5.035   5.989   7.145 -1.0802  2.9820 -2.5832
   65SAPC   C39 5374   5.239   5.913   7.108  0.6716 -0.4968  0.1738
   65SAPC   H9X 5375   5.286   5.999   7.162 -0.6126 -0.0172  0.5400
   65SAPC   H9Y 5376   5.303   5.892   7.019 -0.4809  0.9995 -1.0482
   65SAPC  C310 5377   5.250   5.784   7.195 -0.2596 -0.0153 -0.4195
   65SAPC  H10X 5378   5.203   5.700   7.140  1.6221 -3.0798  2.4221
   65SAPC  H10Y 5379   5.199   5.799   7.293  1.1737  2.2178  0.0185
   65SAPC  C311 5380   5.402   5.764   7.216 -0.5311 -0.3324  0.3466
   65SAPC  H11X 5381   5.428   5.868   7.243  1.7228 -0.5246 -0.9112
   65SAPC  H11Y 5382   5.462   5.742   7.125 -0.4367  0.0577  0.3157
   65SAPC  C312 5383   5.436   5.666   7.328 -0.5861  1.1004  0.3925
   65SAPC  H12X 5384   5.358   5.589   7.312  1.4964 -1.0726  0.3473
   65SAPC  H12Y 5385   5.422   5.721   7.424 -2.6696  2.8228 -0.8524
   65SAPC  C313 5386   5.572   5.591   7.312 -0.5245  0.2553  0.2040
   65SAPC  H13X 5387   5.646   5.635   7.382 -0.4255 -0.2070  0.3957
   65SAPC  H13Y 5388   5.594   5.583   7.203 -0.6298  0.8728  0.1353
   65SAPC  C314 5389   5.565   5.448   7.370  0.5534  0.9359  0.8130
   65SAPC  H14X 5390   5.664   5.403   7.353  0.5341  0.8099  1.0306
   65SAPC  H14Y 5391   5.497   5.389   7.305  0.3601  2.0248  0.0061
   65SAPC  C315 5392   5.515   5.439   7.517 -0.3208  0.0153 -0.3952
   65SAPC  H15X 5393   5.498   5.330   7.531 -1.3954 -0.1022 -2.4580
   65SAPC  H15Y 5394   5.415   5.486   7.530 -0.3237 -0.2980  0.7302
   65SAPC  C316 5395   5.612   5.490   7.629  0.0633 -0.5790  0.3901
   65SAPC  H16X 5396   5.549   5.487   7.720 -2.7881  0.2618 -1.4917
   65SAPC  H16Y 5397   5.651   5.593   7.616 -2.2330  0.1515 -1.0640
   65SAPC  C317 5398   5.733   5.398   7.662 -0.0121 -0.1862 -0.2413
   65SAPC  H17X 5399   5.799   5.406   7.573  0.7130 -1.5414  0.1684
   65SAPC  H17Y 5400   5.689   5.296   7.668  1.7243 -0.8849  1.3085
   65SAPC  C318 5401   5.819   5.438   7.781 -0.1279 -0.2303 -0.0915
   65SAPC  H18X 5402   5.902   5.366   7.798 -1.2534 -1.1992  1.4551
   65SAPC  H18Y 5403   5.759   5.438   7.874  2.5766  0.9138  1.7084
   65SAPC  H18Z 5404   5.866   5.535   7.755 -0.6961 -0.4829 -2.1649
   66SAPC     N 5405   1.935   5.762   5.578 -0.1710  0.8474 -0.2389
   66SAPC   C12 5406   2.045   5.699   5.665  0.3087 -0.0891  0.9246
   66SAPC  H12A 5407   2.027   5.594   5.652  0.6748 -0.2351  1.5860
   66SAPC  H12B 5408   2.026   5.722   5.769 -0.3371  2.2210  0.3456
   66SAPC   C13 5409   1.955   5.733   5.432  0.2771 -0.2193 -0.1564
   66SAPC  H13A 5410   1.890   5.799   5.377 -1.6265 -2.6172 -0.8997
   66SAPC  H13B 5411   2.052   5.766   5.401  0.5684  0.0913  1.0623
   66SAPC  H13C 5412   1.941   5.628   5.407 -1.3530 -0.2936  0.9735
   66SAPC   C14 5413   1.808   5.692   5.624 -0.0778  0.2081  0.0305
   66SAPC  H14A 5414   1.822   5.587   5.602  0.0651 -0.3557  2.6627
   66SAPC  H14B 5415   1.795   5.691   5.731  1.1351  1.1124  0.1962
   66SAPC  H14C 5416   1.720   5.742   5.587  0.7268  2.1132  0.6519
   66SAPC   C15 5417   1.931   5.908   5.593 -0.2135 -0.1196  0.4181
   66SAPC  H15A 5418   2.027   5.956   5.597 -0.6825  1.0809 -1.9563
   66SAPC  H15B 5419   1.878   5.954   5.511  1.6999  1.3137 -0.0251
   66SAPC  H15C 5420   1.875   5.923   5.685 -1.1421 -0.9486 -0.0039
   66SAPC   C11 5421   2.189   5.726   5.620 -0.4392 -0.1108 -0.0936
   66SAPC  H11A 5422   2.219   5.672   5.528  0.6158  0.4316 -0.0837
   66SAPC  H11B 5423   2.255   5.684   5.700  0.6643 -2.4796 -2.1828
   66SAPC     P 5424   2.347   5.955   5.640  0.4874  0.1537 -0.1116
   66SAPC   O13 5425   2.468   5.897   5.581 -0.4278  0.2667  0.0996
   66SAPC   O14 5426   2.327   6.100   5.637 -0.0157  0.5352 -0.2675
   66SAPC   O12 5427   2.221   5.867   5.592 -0.3433  0.2700  0.2434
   66SAPC   O11 5428   2.343   5.917   5.796 -0.8762 -0.0264 -0.2972
   66SAPC    C1 5429   2.234   5.950   5.881 -0.2681 -0.7391 -0.8068
   66SAPC    HA 5430   2.137   5.951   5.826 -1.3481  0.3510  1.0626
   66SAPC    HB 5431   2.233   5.873   5.961  0.0724  0.4277  0.3404
   66SAPC    C2 5432   2.256   6.089   5.947 -0.2736 -0.3945 -0.5861
   66SAPC    HS 5433   2.299   6.160   5.872  2.5626 -0.0424  1.2843
   66SAPC   O21 5434   2.345   6.076   6.060 -0.4560 -0.3225  0.9839
   66SAPC   C21 5435   2.419   6.186   6.080 -0.3978  0.5178  0.2061
   66SAPC   O22 5436   2.424   6.280   5.999 -0.6299 -0.7547 -0.3640
   66SAPC   C22 5437   2.486   6.193   6.217  0.0894  0.0892 -0.4439
   66SAPC   H2R 5438   2.468   6.100   6.275 -2.1296 -0.2670 -1.6588
   66SAPC   H2S 5439   2.596   6.197   6.202  0.3073 -1.2522  0.6503
   66SAPC    C3 5440   2.129   6.154   5.995  0.4490 -0.3100  0.4177
   66SAPC    HX 5441   2.065   6.161   5.905  0.3774 -0.5920  0.4473
   66SAPC    HY 5442   2.129   6.258   6.034  2.4153 -0.8081  1.8526
   66SAPC   O31 5443   2.071   6.072   6.102 -0.6559  0.2774 -0.6181
   66SAPC   C31 5444   1.944   6.058   6.098  0.4661 -0.3932  0.1325
   66SAPC   O32 5445   1.867   6.090   6.007  0.1803  0.5398  0.0458
   66SAPC   C32 5446   1.886   5.985   6.220  0.0301  1.2003  0.1480
   66SAPC   H2X 5447   1.931   5.883   6.223 -1.4527  0.5489  1.3247
   66SAPC   H2Y 5448   1.778   5.962   6.211  0.1998  0.7348 -0.7985
   66SAPC   C23 5449   2.431   6.315   6.297  0.2825 -0.2269 -0.1100
   66SAPC   H3R 5450   2.330   6.292   6.338  0.7655  0.2207  1.3577
   66SAPC   H3S 5451   2.412   6.392   6.219  0.7012 -2.0016 -2.0263
   66SAPC   C24 5452   2.529   6.359   6.400 -0.3814 -0.3743 -0.7705
   66SAPC   H4R 5453   2.484   6.452   6.442  0.5120  0.0919 -0.8475
   66SAPC   H4S 5454   2.620   6.383   6.342  0.3650 -1.0038  0.1297
   66SAPC   C25 5455   2.572   6.253   6.497  0.4847 -0.0809  0.4974
   66SAPC   H5R 5456   2.655   6.191   6.460  2.0547  1.8334  0.6875
   66SAPC   C26 5457   2.529   6.243   6.625 -0.8225 -0.0395 -0.1248
   66SAPC   H6R 5458   2.553   6.144   6.666 -2.1711 -0.7236 -0.9417
   66SAPC   C27 5459   2.430   6.324   6.696 -0.2469 -0.7117  0.0363
   66SAPC   H7R 5460   2.338   6.264   6.707 -0.8151 -0.3919 -2.5326
   66SAPC   H7S 5461   2.394   6.405   6.628 -0.1846 -1.2671 -0.6560
   66SAPC   C28 5462   2.464   6.390   6.832 -0.3479  0.1767  0.1923
   66SAPC   H8R 5463   2.493   6.495   6.820 -0.5803  0.4514  1.8895
   66SAPC   C29 5464   2.447   6.346   6.961 -0.0992  0.6032  0.4479
   66SAPC   H9R 5465   2.496   6.401   7.043  1.0433  1.5311 -0.8305
   66SAPC  C210 5466   2.376   6.216   6.988  0.0367  0.9631  0.0473
   66SAPC  H10R 5467   2.383   6.151   6.899 -0.3064  3.2638 -1.7059
   66SAPC  H10S 5468   2.272   6.253   7.001  0.6533  2.2115  1.7093
   66SAPC  C211 5469   2.415   6.147   7.119  0.8401 -0.1247  0.7378
   66SAPC  H11R 5470   2.491   6.201   7.177 -1.7079  2.8900  1.4216
   66SAPC  C212 5471   2.363   6.031   7.161 -0.0132  0.9628  0.0458
   66SAPC  H12R 5472   2.419   5.993   7.248  3.2019  1.0098 -1.9270
   66SAPC  C213 5473   2.261   5.941   7.097  0.1090  1.0410 -0.2760
   66SAPC  H13R 5474   2.222   6.006   7.016  1.2906  0.6397 -1.1885
   66SAPC  H13S 5475   2.180   5.911   7.167  0.0762  0.0313 -0.7407
   66SAPC  C214 5476   2.336   5.821   7.036 -0.7403  0.3706  0.1095
   66SAPC  H14R 5477   2.377   5.755   7.113 -1.1664  0.0930  0.1011
   66SAPC  C215 5478   2.352   5.790   6.904 -0.5947  0.1171 -0.8668
   66SAPC  H15R 5479   2.404   5.696   6.881  0.3958  0.3734  0.2736
   66SAPC  C216 5480   2.304   5.866   6.785  0.0979  0.9387 -0.2619
   66SAPC  H16R 5481   2.280   5.966   6.828 -0.1415  1.0243 -0.5975
   66SAPC  H16S 5482   2.210   5.823   6.745  0.1753  1.0129 -0.5261
   66SAPC  C217 5483   2.402   5.871   6.674 -0.7423 -0.2870 -0.7353
   66SAPC  H17R 5484   2.458   5.776   6.665 -0.7662 -0.4357  0.5287
   66SAPC  H17S 5485   2.483   5.939   6.708 -1.1218  0.9164 -2.1552
   66SAPC  C218 5486   2.346   5.921   6.537 -0.1935  0.2660 -0.1446
   66SAPC  H18R 5487   2.431   5.939   6.467  1.6800 -2.5867  1.2889
   66SAPC  H18S 5488   2.298   6.020   6.546 -0.5283  0.0942 -0.0202
   66SAPC  C219 5489   2.244   5.827   6.470  0.1319  0.3282 -0.1783
   66SAPC  H19R 5490   2.149   5.836   6.526 -0.2425 -1.8438 -0.3941
   66SAPC  H19S 5491   2.289   5.725   6.468  1.3441  0.8453  0.1929
   66SAPC  C220 5492   2.227   5.856   6.324  0.5920 -0.6337  0.2246
   66SAPC  H20R 5493   2.312   5.833   6.257  0.0970 -0.5350 -0.4364
   66SAPC  H20S 5494   2.209   5.965   6.317 -0.5309 -0.7350  1.3350
   66SAPC  H20T 5495   2.143   5.795   6.284 -0.3842  1.7657 -1.5098
   66SAPC   C33 5496   1.912   6.065   6.354  0.2709  0.3676 -0.3236
   66SAPC   H3X 5497   1.873   6.168   6.343  0.0056  0.4079  0.9098
   66SAPC   H3Y 5498   2.018   6.071   6.388  0.5782 -1.2725 -0.9314
   66SAPC   C34 5499   1.851   5.983   6.467 -0.1713 -0.9520  0.0548
   66SAPC   H4X 5500   1.903   5.885   6.462  0.5070 -0.5717 -0.4630
   66SAPC   H4Y 5501   1.743   5.963   6.450 -0.4731 -0.1286  0.9980
   66SAPC   C35 5502   1.875   6.049   6.602 -0.0110  0.3238  0.2633
   66SAPC   H5X 5503   1.837   6.154   6.604 -1.5875 -0.2161 -0.4469
   66SAPC   H5Y 5504   1.986   6.059   6.613  0.4018 -3.6566  0.3800
   66SAPC   C36 5505   1.831   5.966   6.723 -0.2144 -0.4052  0.1167
   66SAPC   H6X 5506   1.868   5.861   6.723 -1.2365 -0.7722  0.4623
   66SAPC   H6Y 5507   1.722   5.970   6.702  0.0307 -1.5593 -1.4627
   66SAPC   C37 5508   1.864   6.035   6.855  0.5840 -0.2774 -0.5665
   66SAPC   H7X 5509   1.850   6.144   6.842 -2.2824 -0.7039 -1.3422
   66SAPC   H7Y 5510   1.972   6.017   6.876  0.1561 -1.9560  0.2839
   66SAPC   C38 5511   1.769   5.995   6.970  0.7080 -0.0341 -0.0776
   66SAPC   H8X 5512   1.806   5.896   7.005 -0.0897 -0.0494  0.7527
   66SAPC   H8Y 5513   1.667   5.970   6.935  0.2901 -0.4897  1.4373
   66SAPC   C39 5514   1.768   6.099   7.084  0.1018  0.3300 -0.5402
   66SAPC   H9X 5515   1.688   6.074   7.157  1.1629 -1.3839  0.0852
   66SAPC   H9Y 5516   1.733   6.201   7.058  0.5841  1.3578  2.5533
   66SAPC  C310 5517   1.884   6.097   7.180  0.1838  0.3072  0.2763
   66SAPC  H10X 5518   1.978   6.094   7.121  1.2822  1.3636  1.9235
   66SAPC  H10Y 5519   1.872   6.010   7.248  1.6835 -0.3545 -0.2920
   66SAPC  C311 5520   1.896   6.230   7.266 -0.0610  0.0364 -0.2533
   66SAPC  H11X 5521   1.882   6.317   7.199  1.8117  0.1578 -0.4950
   66SAPC  H11Y 5522   2.001   6.239   7.300 -0.6665 -0.0707  1.6928
   66SAPC  C312 5523   1.795   6.227   7.380 -0.2453 -0.1011 -0.7062
   66SAPC  H12X 5524   1.829   6.169   7.469  1.3167  2.6540  0.5605
   66SAPC  H12Y 5525   1.698   6.185   7.347 -0.2938 -0.8375  0.3213
   66SAPC  C313 5526   1.773   6.367   7.433  0.4853 -0.4158  0.0135
   66SAPC  H13X 5527   1.676   6.375   7.487  0.4340  2.3393 -0.4127
   66SAPC  H13Y 5528   1.774   6.434   7.345 -1.2538  0.1393  0.3980
   66SAPC  C314 5529   1.883   6.408   7.531 -0.1478 -0.2833 -0.3292
   66SAPC  H14X 5530   1.983   6.396   7.484  0.3871  1.7645  0.2057
   66SAPC  H14Y 5531   1.868   6.342   7.619 -1.5090 -0.9680 -1.0708
   66SAPC  C315 5532   1.869   6.550   7.588  0.4559 -0.2077 -0.3141
   66SAPC  H15X 5533   1.930   6.562   7.680 -0.6568  0.6903  0.3296
   66SAPC  H15Y 5534   1.764   6.550   7.627 -0.6319 -1.8225 -3.0818
   66SAPC  C316 5535   1.901   6.645   7.474  0.6104  0.3465  0.0708
   66SAPC  H16X 5536   1.854   6.622   7.376  0.1845 -1.1966  0.6152
   66SAPC  H16Y 5537   2.009   6.643   7.451  0.9659  1.1716  1.5941
   66SAPC  C317 5538   1.871   6.798   7.502 -0.0937  0.6454  0.1944
   66SAPC  H17X 5539   1.949   6.828   7.575  1.1754 -2.9431  0.4513
   66SAPC  H17Y 5540   1.773   6.794   7.554 -0.4990  1.0303 -0.5360
   66SAPC  C318 5541   1.857   6.887   7.371 -0.6539  0.4824  0.3291
   66SAPC  H18X 5542   1.949   6.880   7.311 -1.0095  0.1648 -0.1777
   66SAPC  H18Y 5543   1.826   6.991   7.395 -1.0410  0.5187 -0.3229
   66SAPC  H18Z 5544   1.776   6.835   7.315 -0.4783  1.2442 -0.6425
   67SAPC     N 5545   6.800   2.260   5.353  0.0655  0.0096  0.1809
   67SAPC   C12 5546   6.759   2.347   5.477  0.2273  0.7032  0.0727
   67SAPC  H12A 5547   6.846   2.406   5.503  1.3934 -0.6571 -0.6300
   67SAPC  H12B 5548   6.739   2.275   5.555 -2.0832  0.7613 -0.4327
   67SAPC   C13 5549   6.907   2.162   5.396  0.3097  0.1702 -0.6886
   67SAPC  H13A 5550   6.989   2.215   5.440 -0.1296  0.3025 -0.0218
   67SAPC  H13B 5551   6.868   2.086   5.462 -0.0555  1.7221  0.9075
   67SAPC  H13C 5552   6.940   2.117   5.303  0.6662  1.8251 -1.3766
   67SAPC   C14 5553   6.686   2.176   5.298 -0.5528 -0.2612 -0.1111
   67SAPC  H14A 5554   6.637   2.110   5.367 -2.4223 -0.3336 -1.4714
   67SAPC  H14B 5555   6.608   2.228   5.244  0.5373  0.3720 -1.1135
   67SAPC  H14C 5556   6.727   2.117   5.216 -1.9230 -1.5158  0.0877
   67SAPC   C15 5557   6.853   2.336   5.241 -0.5609 -0.1753 -0.2809
   67SAPC  H15A 5558   6.885   2.269   5.163  1.9455  0.6215  0.0146
   67SAPC  H15B 5559   6.793   2.417   5.201  1.1367  1.2098 -0.0753
   67SAPC  H15C 5560   6.950   2.379   5.261  0.3817 -1.1575 -2.6482
   67SAPC   C11 5561   6.641   2.450   5.464  0.1805 -0.7249 -0.7347
   67SAPC  H11A 5562   6.634   2.502   5.366 -2.4116  0.2417 -0.0599
   67SAPC  H11B 5563   6.666   2.514   5.551 -1.7154 -1.5217  0.4270
   67SAPC     P 5564   6.445   2.357   5.607  0.1235  0.3307  0.5339
   67SAPC   O13 5565   6.393   2.479   5.672  0.2511 -0.2706 -0.3891
   67SAPC   O14 5566   6.347   2.248   5.587  0.5458  0.8027 -0.0369
   67SAPC   O12 5567   6.514   2.388   5.476  0.7548  0.0492  0.0077
   67SAPC   O11 5568   6.571   2.304   5.686 -0.2036  0.2103  0.0911
   67SAPC    C1 5569   6.602   2.157   5.680  0.1056  0.2277 -0.0872
   67SAPC    HA 5570   6.584   2.111   5.580 -0.9933 -1.1260  0.7128
   67SAPC    HB 5571   6.710   2.140   5.697  0.0008  1.8109  2.3633
   67SAPC    C2 5572   6.528   2.075   5.793  0.0960 -0.7995  0.4469
   67SAPC    HS 5573   6.421   2.076   5.763  0.1608  1.1020  0.1604
   67SAPC   O21 5574   6.546   2.131   5.924 -0.1409 -0.3240 -0.2002
   67SAPC   C21 5575   6.470   2.228   5.966 -0.2888  0.3419 -0.5680
   67SAPC   O22 5576   6.365   2.260   5.916 -0.1833  0.1387 -0.4403
   67SAPC   C22 5577   6.525   2.269   6.106 -0.2748 -0.3112 -0.2103
   67SAPC   H2R 5578   6.632   2.241   6.119  0.0191 -0.0691 -2.0288
   67SAPC   H2S 5579   6.526   2.380   6.115  0.7048 -0.3793  0.6744
   67SAPC    C3 5580   6.576   1.927   5.806 -0.4608  0.7692 -0.5127
   67SAPC    HX 5581   6.542   1.871   5.716  1.2167 -1.6130  0.2998
   67SAPC    HY 5582   6.521   1.879   5.890  0.5752 -1.6936 -1.1980
   67SAPC   O31 5583   6.721   1.916   5.825  0.0176  0.0656  0.4425
   67SAPC   C31 5584   6.763   1.836   5.914  0.2257  0.9583  0.2983
   67SAPC   O32 5585   6.690   1.765   5.984 -0.2110  0.8488 -0.3336
   67SAPC   C32 5586   6.918   1.858   5.944  0.8518 -0.0864  0.4242
   67SAPC   H2X 5587   6.947   1.960   5.910 -0.4565  0.1631  0.0428
   67SAPC   H2Y 5588   6.974   1.782   5.885 -0.0539  1.8313 -2.9966
   67SAPC   C23 5589   6.432   2.231   6.225 -0.9854 -0.0151  0.6456
   67SAPC   H3R 5590   6.327   2.225   6.191 -0.2150  1.4859 -2.1722
   67SAPC   H3S 5591   6.448   2.305   6.307  1.2059  1.4977 -1.0649
   67SAPC   C24 5592   6.475   2.094   6.280 -0.5122  1.0365 -0.1672
   67SAPC   H4R 5593   6.431   2.086   6.382 -0.2354  0.6299 -0.0793
   67SAPC   H4S 5594   6.585   2.083   6.289 -0.4395  1.6923 -0.2600
   67SAPC   C25 5595   6.426   1.974   6.202 -0.3357  0.2145 -0.0378
   67SAPC   H5R 5596   6.433   1.992   6.094  1.8311  5.1119  0.7781
   67SAPC   C26 5597   6.382   1.859   6.257  0.9695  1.0787 -0.2096
   67SAPC   H6R 5598   6.343   1.783   6.187 -2.6075  1.9184  0.7378
   67SAPC   C27 5599   6.369   1.816   6.400 -0.4076  0.3290 -0.5599
   67SAPC   H7R 5600   6.346   1.707   6.396  0.9667  0.0109 -0.2091
   67SAPC   H7S 5601   6.288   1.876   6.447  0.6183  1.4178 -0.1550
   67SAPC   C28 5602   6.495   1.831   6.487 -0.8176 -0.2981 -0.2346
   67SAPC   H8R 5603   6.587   1.800   6.434 -0.7687  0.2491 -0.4762
   67SAPC   C29 5604   6.504   1.861   6.619 -1.2169  0.2661 -0.2254
   67SAPC   H9R 5605   6.597   1.848   6.675 -1.1502 -1.6221 -0.7166
   67SAPC  C210 5606   6.381   1.894   6.706  0.3962 -0.1108  0.3826
   67SAPC  H10R 5607   6.314   1.958   6.644  0.9448 -1.5553 -1.7885
   67SAPC  H10S 5608   6.419   1.944   6.797 -0.8553  0.0738  0.8103
   67SAPC  C211 5609   6.308   1.770   6.749 -0.0068 -0.7759  0.2410
   67SAPC  H11R 5610   6.304   1.690   6.673  1.1745 -1.3603  0.7834
   67SAPC  C212 5611   6.245   1.750   6.866 -0.6858  0.2428 -0.6299
   67SAPC  H12R 5612   6.172   1.667   6.868 -1.4006  0.8573 -0.9754
   67SAPC  C213 5613   6.228   1.859   6.972 -0.5072  1.0923 -0.0171
   67SAPC  H13R 5614   6.238   1.964   6.937 -2.2904  0.6327 -2.0512
   67SAPC  H13S 5615   6.309   1.841   7.046 -1.9850  0.3765  1.4664
   67SAPC  C214 5616   6.091   1.836   7.030  0.1387 -0.4208 -0.2904
   67SAPC  H14R 5617   6.006   1.831   6.960 -0.3194  1.5737  0.0982
   67SAPC  C215 5618   6.055   1.820   7.157 -0.0873 -0.8910 -0.5475
   67SAPC  H15R 5619   5.953   1.806   7.196 -0.6368  1.5310 -1.0443
   67SAPC  C216 5620   6.155   1.831   7.266  0.0606 -0.2423 -0.9183
   67SAPC  H16R 5621   6.261   1.810   7.238  0.4472 -1.0947  1.1389
   67SAPC  H16S 5622   6.118   1.759   7.343  1.3446  0.5435  0.4525
   67SAPC  C217 5623   6.159   1.984   7.320 -0.2170 -0.7073 -0.5760
   67SAPC  H17R 5624   6.057   2.021   7.346 -0.0875 -0.7403 -0.0216
   67SAPC  H17S 5625   6.195   2.046   7.235 -2.1665  0.1464 -0.8143
   67SAPC  C218 5626   6.255   2.010   7.439  0.7988 -0.1260  0.1815
   67SAPC  H18R 5627   6.260   2.118   7.462 -2.2856  0.8662 -3.3105
   67SAPC  H18S 5628   6.359   1.974   7.423  1.2028  0.2168  2.0003
   67SAPC  C219 5629   6.203   1.934   7.561  0.4363 -0.2927  1.2481
   67SAPC  H19R 5630   6.192   1.825   7.546  0.2869 -0.1227  0.1095
   67SAPC  H19S 5631   6.102   1.971   7.588  0.1057  1.3433 -1.9707
   67SAPC  C220 5632   6.286   1.945   7.689  1.0531  0.2670 -0.1250
   67SAPC  H20R 5633   6.393   1.923   7.671  1.8057  3.2068  0.3409
   67SAPC  H20S 5634   6.245   1.893   7.778  1.4585 -0.6321 -0.4690
   67SAPC  H20T 5635   6.284   2.054   7.713 -2.2404 -0.1230  1.6573
   67SAPC   C33 5636   6.955   1.852   6.097 -0.1510 -0.1210 -0.7260
   67SAPC   H3X 5637   7.062   1.879   6.110 -0.5909  1.0602  0.5718
   67SAPC   H3Y 5638   6.942   1.750   6.137 -0.3403 -0.9242 -2.7882
   67SAPC   C34 5639   6.883   1.949   6.198  0.1315  0.6628  1.7920
   67SAPC   H4X 5640   6.775   1.922   6.210  0.2072  0.1884  1.4291
   67SAPC   H4Y 5641   6.891   2.056   6.168 -0.7711  0.3437  0.3474
   67SAPC   C35 5642   6.947   1.958   6.333  0.9051  0.4704  0.8620
   67SAPC   H5X 5643   7.056   1.971   6.320  0.9444  0.7483  1.4653
   67SAPC   H5Y 5644   6.920   1.865   6.388 -1.1363 -0.5033 -1.6388
   67SAPC   C36 5645   6.887   2.083   6.416 -0.4575 -0.1862 -0.0154
   67SAPC   H6X 5646   6.777   2.091   6.404 -0.4350  0.9008  0.4137
   67SAPC   H6Y 5647   6.933   2.168   6.362 -0.8612  1.0177  1.5048
   67SAPC   C37 5648   6.946   2.086   6.557 -0.1336  0.2339  0.0884
   67SAPC   H7X 5649   6.971   2.190   6.588  1.6647 -0.4283  0.9041
   67SAPC   H7Y 5650   7.039   2.025   6.556 -0.3455 -0.0938  0.4446
   67SAPC   C38 5651   6.851   2.013   6.658 -0.4313  0.2367  0.5351
   67SAPC   H8X 5652   6.859   1.903   6.648  2.3520  0.5945 -1.7681
   67SAPC   H8Y 5653   6.745   2.038   6.636 -0.7245 -1.4908 -0.0133
   67SAPC   C39 5654   6.869   2.067   6.797  0.7276 -0.3947  0.6892
   67SAPC   H9X 5655   6.831   2.171   6.805 -1.4168 -1.1967  1.2603
   67SAPC   H9Y 5656   6.979   2.070   6.815  0.9135 -0.0154 -0.4703
   67SAPC  C310 5657   6.796   1.977   6.898 -0.7441  0.4765  0.0971
   67SAPC  H10X 5658   6.847   1.879   6.910  2.2065  2.0768  1.1009
   67SAPC  H10Y 5659   6.690   1.955   6.871 -0.3397 -1.5370  0.0239
   67SAPC  C311 5660   6.780   2.033   7.040  0.6836 -0.2929 -0.1248
   67SAPC  H11X 5661   6.750   2.140   7.034  1.0763 -0.1786 -0.0649
   67SAPC  H11Y 5662   6.879   2.037   7.091  1.8847  1.6335 -2.5010
   67SAPC  C312 5663   6.663   1.952   7.120 -0.6606 -0.9914 -0.4812
   67SAPC  H12X 5664   6.715   1.857   7.144 -0.4316 -0.5865  0.6751
   67SAPC  H12Y 5665   6.583   1.939   7.045  0.7608  2.0121 -2.6042
   67SAPC  C313 5666   6.604   2.025   7.242  0.4929 -0.6671  0.2137
   67SAPC  H13X 5667   6.523   1.958   7.278 -0.4626  1.0800  1.3472
   67SAPC  H13Y 5668   6.562   2.122   7.211  2.2204 -0.4522 -1.5248
   67SAPC  C314 5669   6.701   2.065   7.355  0.7822  0.4119 -0.0468
   67SAPC  H14X 5670   6.751   2.161   7.329  0.3677  1.1308  1.7283
   67SAPC  H14Y 5671   6.780   1.987   7.349  1.0080  0.7254 -1.2643
   67SAPC  C315 5672   6.633   2.087   7.489  0.3170 -0.4127 -0.2007
   67SAPC  H15X 5673   6.707   2.061   7.567  0.0969  0.8325  0.4259
   67SAPC  H15Y 5674   6.554   2.009   7.498 -1.0429  0.9696  0.1841
   67SAPC  C316 5675   6.573   2.229   7.517  0.5710 -0.8180 -0.1485
   67SAPC  H16X 5676   6.485   2.261   7.457  0.8841  2.1610  0.8888
   67SAPC  H16Y 5677   6.638   2.315   7.486 -1.3394  1.0997  1.0583
   67SAPC  C317 5678   6.548   2.259   7.670  0.8888 -0.3213  0.1758
   67SAPC  H17X 5679   6.639   2.270   7.732  2.0899  3.5710 -2.0851
   67SAPC  H17Y 5680   6.480   2.180   7.708 -0.6737  2.3217  3.1971
   67SAPC  C318 5681   6.472   2.395   7.690  0.4303 -0.5210  0.1353
   67SAPC  H18X 5682   6.427   2.404   7.792 -1.1827 -1.9322 -0.4177
   67SAPC  H18Y 5683   6.391   2.399   7.614  1.2204 -0.5017 -0.7117
   67SAPC  H18Z 5684   6.535   2.486   7.685 -1.0701  0.6101  1.2748
   68SAPC     N 5685   2.107   0.043   5.773 -0.6704 -1.2103 -0.0568
   68SAPC   C12 5686   2.044  -0.045   5.671  0.0069  0.2966 -0.1177
   68SAPC  H12A 5687   2.058  -0.004   5.572  1.0138 -3.1952 -1.4844
   68SAPC  H12B 5688   1.936  -0.053   5.679  0.0137 -1.4069 -1.4241
   68SAPC   C13 5689   2.083  -0.021   5.910  0.4048  0.1730  0.0777
   68SAPC  H13A 5690   2.115   0.037   5.995  0.9782  0.3821 -0.2767
   68SAPC  H13B 5691   1.980  -0.044   5.930  0.9333 -0.8616  1.7135
   68SAPC  H13C 5692   2.142  -0.112   5.918 -0.7654 -0.8163 -2.0275
   68SAPC   C14 5693   2.253   0.056   5.756 -0.1330 -0.4019  0.1743
   68SAPC  H14A 5694   2.287   0.114   5.841 -1.0919  0.3188  0.0790
   68SAPC  H14B 5695   2.300  -0.040   5.748  0.9138 -0.0380  1.7022
   68SAPC  H14C 5696   2.269   0.108   5.662  4.1960 -1.5301  0.1957
   68SAPC   C15 5697   2.048   0.185   5.781 -0.2968  0.3715  0.0881
   68SAPC  H15A 5698   1.957   0.189   5.839 -0.4728  2.1135 -0.2699
   68SAPC  H15B 5699   2.117   0.247   5.837  3.2449 -0.1769 -3.4582
   68SAPC  H15C 5700   2.041   0.232   5.684  1.4216  1.0137  0.2432
   68SAPC   C11 5701   2.093  -0.190   5.662 -0.2933 -0.2723  0.1924
   68SAPC  H11A 5702   2.045  -0.227   5.569 -0.1077 -2.4333  0.9124
   68SAPC  H11B 5703   2.052  -0.244   5.751  2.0449 -0.5056  1.1591
   68SAPC     P 5704   2.324  -0.298   5.722 -0.5493 -0.0142 -0.2628
   68SAPC   O13 5705   2.291  -0.442   5.690  0.0903  0.2541 -0.4708
   68SAPC   O14 5706   2.466  -0.255   5.701 -0.0629 -0.9980  0.2200
   68SAPC   O12 5707   2.238  -0.200   5.635 -0.3114 -0.7632 -0.4251
   68SAPC   O11 5708   2.276  -0.259   5.862 -0.4067 -0.0788 -0.4520
   68SAPC    C1 5709   2.321  -0.335   5.973  0.7981 -0.1585 -0.2065
   68SAPC    HA 5710   2.233  -0.346   6.040 -0.6614  1.0150 -1.8676
   68SAPC    HB 5711   2.367  -0.432   5.943  0.6511  0.1892 -1.6121
   68SAPC    C2 5712   2.430  -0.255   6.055  0.6662 -1.0589  0.5714
   68SAPC    HS 5713   2.519  -0.256   5.988  1.0494  0.9023  1.0268
   68SAPC   O21 5714   2.449  -0.335   6.173 -0.1665  0.0021 -0.0504
   68SAPC   C21 5715   2.573  -0.317   6.228  0.9643  0.2654  0.3821
   68SAPC   O22 5716   2.654  -0.241   6.182 -0.1882 -0.6688 -0.2094
   68SAPC   C22 5717   2.574  -0.398   6.359 -0.0125  0.1608  1.0249
   68SAPC   H2R 5718   2.467  -0.392   6.388 -1.2114  1.5219 -3.3271
   68SAPC   H2S 5719   2.604  -0.502   6.332 -2.2538 -0.7495  1.9147
   68SAPC    C3 5720   2.392  -0.109   6.082 -0.3235 -0.1918 -0.3646
   68SAPC    HX 5721   2.351  -0.066   5.989 -1.4729  0.3598  0.3809
   68SAPC    HY 5722   2.483  -0.047   6.097  1.6662 -3.4464  1.6232
   68SAPC   O31 5723   2.284  -0.089   6.181 -0.1998 -0.3715 -0.0404
   68SAPC   C31 5724   2.325  -0.065   6.305 -0.0785 -0.7090 -0.7135
   68SAPC   O32 5725   2.437  -0.070   6.347  0.0047  0.4127 -0.3185
   68SAPC   C32 5726   2.209  -0.023   6.387  0.3716  0.5340  0.2671
   68SAPC   H2X 5727   2.188  -0.114   6.447 -0.2677 -1.4079 -2.7837
   68SAPC   H2Y 5728   2.119   0.005   6.328  1.2768 -1.0661 -1.9720
   68SAPC   C23 5729   2.660  -0.339   6.466  0.1041 -0.6054  0.7938
   68SAPC   H3R 5730   2.649  -0.234   6.500  2.1432 -0.5865  1.4650
   68SAPC   H3S 5731   2.767  -0.342   6.436  0.5945  0.9489  2.3467
   68SAPC   C24 5732   2.648  -0.413   6.595  0.4679  0.0343 -1.0975
   68SAPC   H4R 5733   2.724  -0.380   6.669 -0.5897 -1.7691  0.8839
   68SAPC   H4S 5734   2.670  -0.521   6.579  0.5814 -0.0595 -0.3511
   68SAPC   C25 5735   2.508  -0.410   6.654 -0.6188  0.1618 -0.0086
   68SAPC   H5R 5736   2.432  -0.461   6.594 -0.8596 -0.5891  0.9239
   68SAPC   C26 5737   2.464  -0.344   6.764 -0.2310  0.2279  0.4762
   68SAPC   H6R 5738   2.367  -0.373   6.806  1.0788 -0.2421  3.2900
   68SAPC   C27 5739   2.538  -0.250   6.856 -0.1268 -0.0036  0.1596
   68SAPC   H7R 5740   2.641  -0.225   6.822  0.4692 -0.3095  1.6912
   68SAPC   H7S 5741   2.557  -0.308   6.949 -0.7857  0.5633  0.6534
   68SAPC   C28 5742   2.458  -0.134   6.906 -0.6101 -0.9968 -0.1323
   68SAPC   H8R 5743   2.357  -0.165   6.938 -0.1352 -1.5464  0.8552
   68SAPC   C29 5744   2.501  -0.006   6.908 -0.6679  0.0159 -0.1733
   68SAPC   H9R 5745   2.429   0.074   6.935 -1.1431 -0.7540  0.8920
   68SAPC  C210 5746   2.632   0.046   6.864  0.1438  0.1420  0.2136
   68SAPC  H10R 5747   2.660  -0.003   6.768 -1.0461 -2.7751  1.2895
   68SAPC  H10S 5748   2.703   0.018   6.945  0.0981 -1.4536 -0.2639
   68SAPC  C211 5749   2.633   0.188   6.834  0.2518 -0.6930 -0.1917
   68SAPC  H11R 5750   2.654   0.213   6.729  1.9173  2.7807  0.8902
   68SAPC  C212 5751   2.613   0.291   6.920  0.3281  0.1731  0.0760
   68SAPC  H12R 5752   2.603   0.391   6.876 -0.3342  0.5625  1.0931
   68SAPC  C213 5753   2.579   0.283   7.063  0.5868  0.5260 -0.6175
   68SAPC  H13R 5754   2.663   0.336   7.112  0.6465 -0.0195 -0.1205
   68SAPC  H13S 5755   2.578   0.179   7.103  0.6631  0.7929  0.0868
   68SAPC  C214 5756   2.451   0.351   7.107  0.3696 -0.5342 -0.0390
   68SAPC  H14R 5757   2.366   0.355   7.036  0.2708 -1.9794 -0.0124
   68SAPC  C215 5758   2.434   0.407   7.232  0.8469 -0.5016 -0.0247
   68SAPC  H15R 5759   2.340   0.460   7.253  1.3880  0.0029  1.2109
   68SAPC  C216 5760   2.546   0.418   7.337 -0.2809  0.0981 -0.4458
   68SAPC  H16R 5761   2.623   0.342   7.314 -1.6008 -0.4912 -3.1290
   68SAPC  H16S 5762   2.508   0.399   7.440  1.4248 -0.2001  0.1467
   68SAPC  C217 5763   2.609   0.557   7.309  0.1703  0.1665 -1.1802
   68SAPC  H17R 5764   2.528   0.633   7.297 -1.5656 -1.3194  0.8474
   68SAPC  H17S 5765   2.658   0.567   7.210  2.8741  0.5651  0.1776
   68SAPC  C218 5766   2.711   0.597   7.421  0.4750  0.2342  0.2425
   68SAPC  H18R 5767   2.756   0.692   7.386  0.6774  0.3164  0.7278
   68SAPC  H18S 5768   2.787   0.519   7.444  0.1586 -0.7613 -1.9877
   68SAPC  C219 5769   2.645   0.640   7.551  1.1453  0.0665 -0.3349
   68SAPC  H19R 5770   2.550   0.685   7.515  0.8630 -0.1926  0.0864
   68SAPC  H19S 5771   2.707   0.723   7.591 -1.4903  0.7236  2.5980
   68SAPC  C220 5772   2.624   0.536   7.660  0.2429 -0.0252  0.7493
   68SAPC  H20R 5773   2.516   0.531   7.687 -0.5362 -0.3701 -2.2150
   68SAPC  H20S 5774   2.681   0.558   7.753  0.9166  0.6582  0.1819
   68SAPC  H20T 5775   2.653   0.439   7.614 -0.0205  0.6272 -0.8327
   68SAPC   C33 5776   2.236   0.108   6.460  0.2436 -0.0534 -0.2573
   68SAPC   H3X 5777   2.257   0.187   6.384  3.0381  0.0250  0.5308
   68SAPC   H3Y 5778   2.335   0.097   6.510  0.9253  3.0063 -0.7927
   68SAPC   C34 5779   2.135   0.157   6.564  0.9264  0.1639  0.4737
   68SAPC   H4X 5780   2.035   0.181   6.522 -0.0099 -2.1391  1.2864
   68SAPC   H4Y 5781   2.177   0.245   6.617 -1.7682  0.7498  1.7443
   68SAPC   C35 5782   2.107   0.047   6.668 -0.1826  0.2626 -0.0393
   68SAPC   H5X 5783   2.204  -0.004   6.685 -1.5043 -2.9814 -1.8192
   68SAPC   H5Y 5784   2.029  -0.027   6.639 -0.9457  0.6169  1.0762
   68SAPC   C36 5785   2.063   0.098   6.798  0.0310 -0.5846 -0.5594
   68SAPC   H6X 5786   1.958   0.132   6.786 -0.5213 -1.2477  2.1598
   68SAPC   H6Y 5787   2.106   0.198   6.818  0.2007 -0.1465 -2.9952
   68SAPC   C37 5788   2.076  -0.002   6.915  0.2708 -0.3501  0.0283
   68SAPC   H7X 5789   2.172  -0.056   6.907 -0.2278 -1.0981 -1.1376
   68SAPC   H7Y 5790   1.992  -0.074   6.922  0.7673 -1.2221 -2.4357
   68SAPC   C38 5791   2.079   0.086   7.045 -0.3939 -0.1573 -0.7212
   68SAPC   H8X 5792   1.990   0.152   7.052 -1.6909 -1.9502  0.1872
   68SAPC   H8Y 5793   2.168   0.151   7.032  0.8439 -2.3180 -3.6401
   68SAPC   C39 5794   2.089  -0.011   7.169  0.0775 -0.2209  0.1594
   68SAPC   H9X 5795   2.012  -0.089   7.188  0.1183 -0.3433 -0.1775
   68SAPC   H9Y 5796   2.080   0.056   7.257 -2.4465 -0.6085  0.2212
   68SAPC  C310 5797   2.237  -0.064   7.179 -0.0725 -0.9365 -0.4957
   68SAPC  H10X 5798   2.304   0.020   7.149  1.1613 -1.3343  1.0730
   68SAPC  H10Y 5799   2.238  -0.134   7.092  0.0509 -0.5824 -0.7813
   68SAPC  C311 5800   2.280  -0.131   7.315  0.5287 -0.1437  0.3926
   68SAPC  H11X 5801   2.390  -0.147   7.311  0.6632  0.8188 -0.1071
   68SAPC  H11Y 5802   2.220  -0.223   7.328 -2.1186  1.3878 -0.5728
   68SAPC  C312 5803   2.262  -0.043   7.439  0.5506  0.2194 -0.8811
   68SAPC  H12X 5804   2.158  -0.005   7.436 -0.0658 -1.3767 -0.0025
   68SAPC  H12Y 5805   2.325   0.048   7.423  1.6336 -0.6394 -1.5856
   68SAPC  C313 5806   2.302  -0.105   7.568 -0.1118 -0.1427 -0.0252
   68SAPC  H13X 5807   2.312  -0.025   7.645  1.0142  1.0573 -1.3893
   68SAPC  H13Y 5808   2.396  -0.162   7.547 -0.6289 -0.5443 -1.2909
   68SAPC  C314 5809   2.217  -0.206   7.639 -0.3025  0.1546 -0.8091
   68SAPC  H14X 5810   2.155  -0.262   7.567 -0.9271 -1.5074  0.9797
   68SAPC  H14Y 5811   2.139  -0.159   7.703 -0.7839 -0.6692 -0.7942
   68SAPC  C315 5812   2.283  -0.318   7.732 -0.2441  0.6189  0.4224
   68SAPC  H15X 5813   2.342  -0.255   7.802  0.8562 -1.1277  1.1037
   68SAPC  H15Y 5814   2.346  -0.386   7.670 -1.4337  0.6677 -0.8697
   68SAPC  C316 5815   2.191  -0.385   7.839  0.4457  0.3258  0.3124
   68SAPC  H16X 5816   2.253  -0.464   7.887 -2.1516 -2.3231 -0.5656
   68SAPC  H16Y 5817   2.111  -0.443   7.788  1.7282 -2.4424  1.3230
   68SAPC  C317 5818   2.129  -0.291   7.946  0.3522 -0.0669  0.2758
   68SAPC  H17X 5819   2.074  -0.209   7.896 -1.7698 -0.6743  1.5308
   68SAPC  H17Y 5820   2.208  -0.250   8.013 -0.5157 -2.1543  2.6980
   68SAPC  C318 5821   2.033  -0.358   8.039 -0.1927 -0.1743  0.1631
   68SAPC  H18X 5822   1.944  -0.404   7.990  0.6902  0.1439 -1.7826
   68SAPC  H18Y 5823   1.999  -0.283   8.114  2.1659  0.5547  0.5302
   68SAPC  H18Z 5824   2.087  -0.430   8.103 -0.7403  1.0563  2.0485
   69SLPC     N 5825   3.100   4.508   9.501  0.1853  0.4893  0.2116
   69SLPC   C13 5826   3.067   4.426   9.618  0.1247 -0.1572 -0.1067
   69SLPC  H13A 5827   3.146   4.357   9.641 -1.3273 -1.9136 -0.3272
   69SLPC  H13B 5828   3.049   4.479   9.711  0.0620  1.0136 -0.7730
   69SLPC  H13C 5829   2.969   4.381   9.614 -0.8208  1.8014 -0.0054
   69SLPC   C14 5830   3.107   4.418   9.379  0.0175  0.2965  0.3372
   69SLPC  H14A 5831   3.185   4.346   9.400  0.7202  1.4034  1.5494
   69SLPC  H14B 5832   3.016   4.362   9.367  0.3934 -0.4003  0.6814
   69SLPC  H14C 5833   3.128   4.462   9.283 -2.3745 -2.0232 -1.3267
   69SLPC   C15 5834   3.231   4.575   9.526  0.0033  0.5159 -0.7637
   69SLPC  H15A 5835   3.306   4.500   9.541 -0.5424 -0.0657 -0.9271
   69SLPC  H15B 5836   3.263   4.648   9.453  1.4201  1.7400  1.0313
   69SLPC  H15C 5837   3.221   4.630   9.618 -3.2419  0.0604 -0.7956
   69SLPC   C12 5838   2.991   4.608   9.471  0.3788  0.3977  0.0524
   69SLPC  H12A 5839   3.030   4.680   9.400 -0.8119 -0.6697 -1.7344
   69SLPC  H12B 5840   2.978   4.659   9.565  0.1510  0.3762  0.0341
   69SLPC   C11 5841   2.845   4.552   9.427  0.3208  0.3573  0.8600
   69SLPC  H11A 5842   2.838   4.493   9.333 -0.8707 -1.6229  2.1490
   69SLPC  H11B 5843   2.784   4.644   9.418 -1.4442 -1.0527 -2.5823
   69SLPC     P 5844   2.726   4.332   9.536 -0.2273 -0.2168 -0.1548
   69SLPC   O13 5845   2.829   4.228   9.560 -0.6215  0.1489 -0.4993
   69SLPC   O14 5846   2.613   4.333   9.631  0.0506 -0.4893  0.5190
   69SLPC   O12 5847   2.793   4.477   9.533 -1.2438  0.0851 -0.3831
   69SLPC   O11 5848   2.673   4.320   9.385  0.3359 -0.5865 -0.8603
   69SLPC    C1 5849   2.627   4.191   9.335  0.3379  0.1954  0.7014
   69SLPC    HA 5850   2.640   4.113   9.414  1.3156  0.4250  0.7737
   69SLPC    HB 5851   2.520   4.202   9.309 -0.2370  0.2900  3.0083
   69SLPC    C2 5852   2.719   4.139   9.213 -0.2067  1.0665 -0.6548
   69SLPC    HS 5853   2.672   4.042   9.184  1.4172  0.6084 -1.8788
   69SLPC   O21 5854   2.859   4.132   9.232  0.6470 -0.3689 -0.6295
   69SLPC   C21 5855   2.891   4.048   9.325 -0.4517 -0.3294 -0.1391
   69SLPC   O22 5856   2.812   3.970   9.373  0.4992  0.0257  0.6644
   69SLPC   C22 5857   3.035   4.052   9.371 -0.0944 -0.4818 -0.4662
   69SLPC   H2R 5858   3.033   4.132   9.448  0.3428 -1.4211  0.5356
   69SLPC   H2S 5859   3.054   3.959   9.430  1.6775  0.3055  0.2468
   69SLPC    C3 5860   2.688   4.230   9.088 -0.5443  0.1619  0.0374
   69SLPC    HX 5861   2.716   4.334   9.118 -1.6434  1.4317 -3.1366
   69SLPC    HY 5862   2.579   4.226   9.070 -0.5866 -1.2728  0.5500
   69SLPC   O31 5863   2.767   4.189   8.977 -0.0151 -0.0022  0.0385
   69SLPC   C31 5864   2.893   4.230   8.964  0.4203 -0.5891  0.2739
   69SLPC   O32 5865   2.947   4.325   9.022  0.2807  0.5974  0.8664
   69SLPC   C32 5866   2.970   4.138   8.872  0.3534 -0.0991 -0.0467
   69SLPC   H2X 5867   2.901   4.097   8.795 -0.6294  1.6518 -0.1296
   69SLPC   H2Y 5868   3.027   4.062   8.930 -2.0544 -2.4213 -0.6361
   69SLPC   C23 5869   3.122   4.081   9.248 -0.1718 -0.2510 -1.1149
   69SLPC   H3R 5870   3.081   4.173   9.203 -0.9934 -1.1343 -2.1954
   69SLPC   H3S 5871   3.101   4.001   9.175  0.7917 -2.1731  0.6467
   69SLPC   C24 5872   3.269   4.112   9.280  0.0822 -0.1618  0.3184
   69SLPC   H4R 5873   3.328   4.021   9.304  1.6684  0.6693 -0.3513
   69SLPC   H4S 5874   3.261   4.169   9.375  1.2800 -0.8140  0.8186
   69SLPC   C25 5875   3.348   4.200   9.183  0.4316  0.4036 -0.1616
   69SLPC   H5R 5876   3.271   4.262   9.133 -0.1748 -1.9091 -2.2229
   69SLPC   H5S 5877   3.396   4.145   9.100 -0.5264  1.6302 -1.5469
   69SLPC   C26 5878   3.454   4.286   9.260 -0.0695 -0.1522  0.5393
   69SLPC   H6R 5879   3.519   4.208   9.305 -0.4781 -0.7339  0.1344
   69SLPC   H6S 5880   3.420   4.342   9.349 -1.5366 -0.3473  0.1278
   69SLPC   C27 5881   3.528   4.372   9.156  0.0150  0.0263  0.3535
   69SLPC   H7R 5882   3.571   4.305   9.079 -1.8137 -0.3985 -0.3077
   69SLPC   H7S 5883   3.614   4.422   9.206  1.1248  1.5911 -3.0169
   69SLPC   C28 5884   3.436   4.475   9.093  0.1161  0.1146  0.0107
   69SLPC   H8R 5885   3.352   4.441   9.028  0.5853  2.0804 -1.6779
   69SLPC   H8S 5886   3.506   4.529   9.026  2.5977  0.1063  2.4946
   69SLPC   C29 5887   3.377   4.583   9.180  0.8537  0.1791 -0.3357
   69SLPC   H9R 5888   3.385   4.566   9.289 -0.8366  1.2085 -0.0327
   69SLPC  C210 5889   3.310   4.692   9.137 -0.3296  0.4335 -0.7022
   69SLPC  H10R 5890   3.270   4.764   9.211  1.0944  0.0981  0.4232
   69SLPC  C211 5891   3.271   4.724   8.996 -0.2597 -0.2029  0.0284
   69SLPC  H11R 5892   3.366   4.708   8.940  0.4220  1.1640  0.7489
   69SLPC  H11S 5893   3.243   4.831   8.983  2.4469  0.4393 -0.9012
   69SLPC  C212 5894   3.154   4.640   8.943 -0.2355 -0.2360  0.2362
   69SLPC  H12R 5895   3.180   4.534   8.932 -0.6065 -0.7021  3.4339
   69SLPC  C213 5896   3.034   4.684   8.910  0.2947  0.1859 -0.2496
   69SLPC  H13R 5897   2.971   4.604   8.869  0.0573  0.3388 -0.1826
   69SLPC  C214 5898   2.983   4.820   8.911 -0.2737  0.3925 -0.2691
   69SLPC  H14R 5899   3.003   4.854   8.807  1.4434 -0.9158 -0.3827
   69SLPC  H14S 5900   3.036   4.897   8.971 -1.4397  0.9757  0.0262
   69SLPC  C215 5901   2.834   4.818   8.945 -0.9154  0.0285 -0.2822
   69SLPC  H15R 5902   2.777   4.750   8.878  1.2106 -2.5713  0.4987
   69SLPC  H15S 5903   2.795   4.921   8.928  0.2442  0.3758 -0.8860
   69SLPC  C216 5904   2.817   4.787   9.092  0.3367  0.3272  0.8171
   69SLPC  H16R 5905   2.884   4.843   9.161  2.9948 -0.3262 -1.1627
   69SLPC  H16S 5906   2.838   4.678   9.099 -3.6643 -0.6491 -1.0666
   69SLPC  C217 5907   2.675   4.819   9.143 -0.4213  0.3279 -0.6682
   69SLPC  H17R 5908   2.666   4.929   9.136  1.6381  0.5635 -0.1094
   69SLPC  H17S 5909   2.675   4.795   9.252  1.9987  1.9946 -0.2559
   69SLPC  C218 5910   2.567   4.750   9.058 -0.1248  0.5112  0.5131
   69SLPC  H18R 5911   2.580   4.640   9.051 -3.0542  0.1463  0.2770
   69SLPC  H18S 5912   2.582   4.789   8.955  3.1677  0.8868  1.0801
   69SLPC  H18T 5913   2.472   4.778   9.108 -1.0845  0.3186 -1.1697
   69SLPC   C33 5914   3.073   4.212   8.779  0.2944  0.1471 -0.1554
   69SLPC   H3X 5915   3.035   4.314   8.756  0.2290  0.7729  2.6211
   69SLPC   H3Y 5916   3.078   4.164   8.679  0.8260 -1.7246  0.7487
   69SLPC   C34 5917   3.212   4.204   8.838 -0.6668  0.1139  0.3020
   69SLPC   H4X 5918   3.239   4.102   8.874  1.5365  0.2031 -1.0051
   69SLPC   H4Y 5919   3.209   4.270   8.927  1.0013  1.4886 -0.6374
   69SLPC   C35 5920   3.313   4.248   8.737  0.1655 -0.5432  0.1377
   69SLPC   H5X 5921   3.297   4.355   8.712 -2.2114 -0.7881  0.5181
   69SLPC   H5Y 5922   3.313   4.181   8.648 -0.8986 -0.6678  0.2239
   69SLPC   C36 5923   3.460   4.231   8.776  0.1445  0.7004  0.2461
   69SLPC   H6X 5924   3.479   4.124   8.796 -1.3098  0.3983  0.0792
   69SLPC   H6Y 5925   3.475   4.299   8.863  0.6744  0.2866  0.4764
   69SLPC   C37 5926   3.560   4.277   8.662  0.1963  0.1131 -0.0044
   69SLPC   H7X 5927   3.527   4.380   8.636 -0.1251 -0.0478 -0.2363
   69SLPC   H7Y 5928   3.555   4.214   8.571  0.0192 -1.3720  1.0203
   69SLPC   C38 5929   3.707   4.280   8.717  0.2134 -0.3901  0.0334
   69SLPC   H8X 5930   3.744   4.175   8.722 -1.0018 -0.7761  0.8069
   69SLPC   H8Y 5931   3.712   4.339   8.810  1.3075 -0.9651  0.3565
   69SLPC   C39 5932   3.812   4.343   8.618  0.2354  0.2489 -0.1146
   69SLPC   H9X 5933   3.913   4.328   8.661  1.1881  1.0517 -1.9748
   69SLPC   H9Y 5934   3.804   4.453   8.603  1.7555  0.0419 -2.8378
   69SLPC  C310 5935   3.816   4.289   8.476  0.3141  0.6695 -0.2161
   69SLPC  H10X 5936   3.900   4.338   8.423  0.8270  1.2314  1.0935
   69SLPC  H10Y 5937   3.722   4.318   8.423  1.5232 -1.3889 -3.6682
   69SLPC  C311 5938   3.839   4.134   8.474  0.4875 -0.3265  0.5203
   69SLPC  H11X 5939   3.749   4.097   8.528  0.3583 -1.4572 -0.4553
   69SLPC  H11Y 5940   3.933   4.114   8.531  1.1586 -2.4358 -1.2645
   69SLPC  C312 5941   3.847   4.081   8.332 -0.2869 -0.5556 -0.8808
   69SLPC  H12X 5942   3.874   3.973   8.344  0.6361 -0.2261  0.1225
   69SLPC  H12Y 5943   3.929   4.130   8.275  0.1080 -0.5311 -0.3031
   69SLPC  C313 5944   3.725   4.082   8.238  0.2285  0.1179  0.5764
   69SLPC  H13X 5945   3.758   4.028   8.147  0.5921  0.6465  0.3909
   69SLPC  H13Y 5946   3.683   4.182   8.212  1.4297  0.5785  0.3503
   69SLPC  C314 5947   3.611   4.004   8.303 -0.2760  1.1427  0.6531
   69SLPC  H14X 5948   3.629   3.974   8.409 -2.2143 -0.4060  0.5814
   69SLPC  H14Y 5949   3.586   3.913   8.245  1.6807 -0.2400  1.8947
   69SLPC  C315 5950   3.482   4.085   8.327 -0.5317  0.0210 -0.2418
   69SLPC  H15X 5951   3.441   4.120   8.230 -1.0432  0.1050  0.0010
   69SLPC  H15Y 5952   3.515   4.182   8.367  1.5189 -0.4512 -0.7501
   69SLPC  C316 5953   3.377   4.019   8.418 -0.3154  0.3027  0.8907
   69SLPC  H16X 5954   3.415   4.019   8.523  0.0142  0.9741  0.7801
   69SLPC  H16Y 5955   3.368   3.911   8.395  1.9489  0.4185 -0.6684
   69SLPC  C317 5956   3.231   4.066   8.425 -0.0808  0.5778  0.3818
   69SLPC  H17X 5957   3.216   4.176   8.419  1.4995  0.7081 -1.6596
   69SLPC  H17Y 5958   3.180   4.031   8.517 -1.7371  1.3675 -0.2164
   69SLPC  C318 5959   3.144   4.019   8.307 -0.4054 -0.2716 -0.0787
   69SLPC  H18X 5960   3.059   4.091   8.308  0.2771  0.5365  0.6182
   69SLPC  H18Y 5961   3.089   3.925   8.331  0.2424 -0.2972  1.4085
   69SLPC  H18Z 5962   3.198   4.018   8.211  1.2431  0.5038  0.8202
   70SLPC     N 5963   4.321   3.976   9.544  0.6961  0.0601 -0.2288
   70SLPC   C13 5964   4.177   4.008   9.563 -0.4358 -0.3674 -0.3579
   70SLPC  H13A 5965   4.143   3.979   9.661  2.0608 -2.5709 -0.0656
   70SLPC  H13B 5966   4.163   4.114   9.551 -0.5402 -0.2703  0.5816
   70SLPC  H13C 5967   4.112   3.955   9.494  0.6529 -1.1477 -0.8046
   70SLPC   C14 5968   4.407   4.060   9.635  0.6240 -0.0498 -0.4926
   70SLPC  H14A 5969   4.388   4.039   9.740  1.3226  1.4645 -0.0552
   70SLPC  H14B 5970   4.513   4.057   9.616  0.5333 -1.4430 -0.8046
   70SLPC  H14C 5971   4.388   4.166   9.623 -0.0199  0.1398  1.9274
   70SLPC   C15 5972   4.352   4.013   9.403 -0.6076  0.2437 -0.0713
   70SLPC  H15A 5973   4.454   3.980   9.388  0.4885  2.5634  1.9075
   70SLPC  H15B 5974   4.285   3.975   9.327 -1.1031  1.6708 -0.3620
   70SLPC  H15C 5975   4.362   4.119   9.382  1.2612 -0.1902 -1.4643
   70SLPC   C12 5976   4.347   3.825   9.577  0.4398  0.1642  0.0678
   70SLPC  H12A 5977   4.352   3.821   9.685  0.0839  0.6466  0.1037
   70SLPC  H12B 5978   4.446   3.797   9.543 -0.6778  0.2454 -3.4063
   70SLPC   C11 5979   4.244   3.725   9.529  0.2491  0.0503  0.0070
   70SLPC  H11A 5980   4.295   3.627   9.540 -1.6261 -1.2979 -2.6952
   70SLPC  H11B 5981   4.244   3.749   9.421  2.3163 -1.0967 -0.2878
   70SLPC     P 5982   4.079   3.671   9.708  0.4784  0.4142  0.2754
   70SLPC   O13 5983   4.187   3.620   9.792  0.0610 -0.3886 -0.1013
   70SLPC   O14 5984   3.978   3.761   9.771 -0.0609 -0.8013 -0.2555
   70SLPC   O12 5985   4.116   3.739   9.578 -0.6219 -0.3519 -0.2902
   70SLPC   O11 5986   4.001   3.550   9.663  0.1606  0.1269  0.6540
   70SLPC    C1 5987   3.977   3.490   9.534  0.8878 -1.1497 -0.3889
   70SLPC    HA 5988   3.876   3.444   9.535 -0.2137  1.1637 -0.3704
   70SLPC    HB 5989   3.965   3.561   9.449 -0.4662  0.2776  0.9569
   70SLPC    C2 5990   4.079   3.375   9.510  0.6485  0.6771 -0.7509
   70SLPC    HS 5991   4.112   3.360   9.615  0.5250  2.5783 -0.4134
   70SLPC   O21 5992   4.179   3.409   9.418  0.4123 -0.6988  0.5408
   70SLPC   C21 5993   4.296   3.346   9.438  0.5036  0.0159  0.3495
   70SLPC   O22 5994   4.324   3.273   9.531 -0.0201  0.7530 -0.1124
   70SLPC   C22 5995   4.391   3.394   9.324 -0.4605  0.0384  0.0806
   70SLPC   H2R 5996   4.330   3.413   9.233  0.4770 -1.9629 -0.9934
   70SLPC   H2S 5997   4.434   3.489   9.361 -1.8303  0.2295  1.2532
   70SLPC    C3 5998   4.000   3.252   9.470 -0.1545  0.0282 -0.3440
   70SLPC    HX 5999   3.929   3.227   9.551  1.8806 -0.3155  1.3778
   70SLPC    HY 6000   4.074   3.171   9.454 -1.4718 -1.1604 -0.5288
   70SLPC   O31 6001   3.926   3.274   9.356  0.0638 -0.1990 -0.1071
   70SLPC   C31 6002   3.904   3.163   9.275 -0.4123  0.8007 -0.2770
   70SLPC   O32 6003   3.932   3.047   9.309  0.0132  0.3704  0.1375
   70SLPC   C32 6004   3.846   3.202   9.142 -0.6243  0.3746 -0.1243
   70SLPC   H2X 6005   3.833   3.312   9.137  0.8597  0.7817  3.2023
   70SLPC   H2Y 6006   3.750   3.147   9.152  0.3522 -0.7813  4.0448
   70SLPC   C23 6007   4.496   3.280   9.288  0.2187 -0.7003 -0.2256
   70SLPC   H3R 6008   4.512   3.222   9.381 -1.4064  0.6080  0.9095
   70SLPC   H3S 6009   4.590   3.333   9.263  0.0722 -0.8464 -1.1144
   70SLPC   C24 6010   4.460   3.190   9.171 -0.2922 -0.6592 -0.5227
   70SLPC   H4R 6011   4.351   3.168   9.171 -0.1717 -1.2556 -0.5837
   70SLPC   H4S 6012   4.510   3.094   9.196 -0.1931 -0.4927 -0.0788
   70SLPC   C25 6013   4.505   3.234   9.037  0.4387 -0.2826  0.1473
   70SLPC   H5R 6014   4.616   3.238   9.042  0.3863 -0.3157  1.8529
   70SLPC   H5S 6015   4.477   3.338   9.013 -3.8955 -1.1705  0.8931
   70SLPC   C26 6016   4.485   3.137   8.922 -0.1512 -0.9058 -0.1264
   70SLPC   H6R 6017   4.380   3.146   8.887  0.1981  1.4785 -0.6503
   70SLPC   H6S 6018   4.502   3.032   8.954  0.6768 -0.2939  1.4902
   70SLPC   C27 6019   4.577   3.163   8.800 -0.0203  0.4784  0.3719
   70SLPC   H7R 6020   4.686   3.155   8.817  0.4488 -0.4355 -2.7169
   70SLPC   H7S 6021   4.551   3.268   8.774 -0.8735  0.3277  0.5829
   70SLPC   C28 6022   4.555   3.068   8.679 -0.0199  0.8309  0.1295
   70SLPC   H8R 6023   4.591   3.113   8.583 -2.7841  0.5566 -1.0824
   70SLPC   H8S 6024   4.445   3.060   8.680  0.0087  0.6635  1.4935
   70SLPC   C29 6025   4.611   2.925   8.680  0.2578 -0.1632 -0.0328
   70SLPC   H9R 6026   4.632   2.893   8.783 -0.3961 -1.1735 -0.2058
   70SLPC  C210 6027   4.640   2.839   8.582 -0.4726 -0.2939 -0.3020
   70SLPC  H10R 6028   4.680   2.741   8.612  2.1099  1.0352  0.8021
   70SLPC  C211 6029   4.625   2.861   8.438  0.1718 -0.1705  0.3316
   70SLPC  H11R 6030   4.521   2.894   8.418  0.1555 -2.5182 -3.9372
   70SLPC  H11S 6031   4.621   2.760   8.391  1.7038 -0.3943  0.6562
   70SLPC  C212 6032   4.729   2.957   8.378 -0.2055  0.4043 -0.1319
   70SLPC  H12R 6033   4.765   3.041   8.440  0.5833  1.0075 -1.3793
   70SLPC  C213 6034   4.785   2.939   8.253 -0.1793  0.2616 -0.9045
   70SLPC  H13R 6035   4.856   3.013   8.213 -0.4490  0.4918 -0.9661
   70SLPC  C214 6036   4.754   2.821   8.166  0.0583  0.1392  0.3444
   70SLPC  H14R 6037   4.644   2.809   8.156  0.1797  0.3860 -1.3723
   70SLPC  H14S 6038   4.799   2.725   8.200 -1.7444 -1.5970 -2.0139
   70SLPC  C215 6039   4.818   2.847   8.028 -0.2000  0.0422  0.5745
   70SLPC  H15R 6040   4.924   2.812   8.032  0.6558  2.2201 -1.2059
   70SLPC  H15S 6041   4.813   2.957   8.011  1.1369  0.5015  2.8881
   70SLPC  C216 6042   4.757   2.779   7.910 -0.0089  0.7967 -0.1113
   70SLPC  H16R 6043   4.650   2.809   7.904 -0.0217  0.6726 -0.5238
   70SLPC  H16S 6044   4.768   2.669   7.918  2.0018  1.1489  2.7994
   70SLPC  C217 6045   4.826   2.809   7.778 -0.5480 -0.4280  0.1515
   70SLPC  H17R 6046   4.935   2.789   7.786 -0.1393  1.8022  0.5657
   70SLPC  H17S 6047   4.824   2.918   7.756  0.1911 -1.1723 -3.8704
   70SLPC  C218 6048   4.779   2.735   7.648  0.4721 -0.1258 -0.2111
   70SLPC  H18R 6049   4.869   2.744   7.584  1.9403 -0.1148  1.8318
   70SLPC  H18S 6050   4.696   2.791   7.598  1.1316  1.0298 -0.0403
   70SLPC  H18T 6051   4.738   2.633   7.660  0.9846 -0.2756  0.2672
   70SLPC   C33 6052   3.927   3.150   9.019 -0.0149 -0.4641  0.2204
   70SLPC   H3X 6053   3.856   3.160   8.933 -0.8173 -1.4658  0.7486
   70SLPC   H3Y 6054   3.955   3.043   9.030  1.9689  0.2136  1.9108
   70SLPC   C34 6055   4.059   3.228   8.991 -0.0334 -1.4735  0.3361
   70SLPC   H4X 6056   4.115   3.165   8.917 -0.1400 -0.5987 -0.5011
   70SLPC   H4Y 6057   4.111   3.243   9.088  0.9894 -2.0442 -0.1145
   70SLPC   C35 6058   4.041   3.369   8.928 -0.2225 -0.8918  0.8531
   70SLPC   H5X 6059   4.004   3.447   8.998  0.4679 -0.0571  0.2949
   70SLPC   H5Y 6060   3.965   3.363   8.847  1.7907 -0.0433 -1.1352
   70SLPC   C36 6061   4.171   3.422   8.864 -0.2985 -0.1320 -0.8686
   70SLPC   H6X 6062   4.261   3.387   8.919 -1.0016 -0.6745 -0.0565
   70SLPC   H6Y 6063   4.171   3.533   8.864  0.4880 -0.0975  1.7047
   70SLPC   C37 6064   4.180   3.390   8.718  0.1610 -0.1012 -0.5376
   70SLPC   H7X 6065   4.084   3.427   8.679  0.7663  0.5074 -1.4583
   70SLPC   H7Y 6066   4.177   3.279   8.723  0.5927 -0.0554  1.3531
   70SLPC   C38 6067   4.299   3.432   8.644  0.4205 -0.0174 -0.6541
   70SLPC   H8X 6068   4.398   3.410   8.691  0.8217  2.5043 -0.2748
   70SLPC   H8Y 6069   4.282   3.541   8.631 -1.8035 -0.3232 -0.5373
   70SLPC   C39 6070   4.302   3.363   8.503  0.2054 -0.1128 -0.6609
   70SLPC   H9X 6071   4.217   3.409   8.448  0.7931 -0.6730 -2.0501
   70SLPC   H9Y 6072   4.291   3.253   8.515 -1.3032  0.2761  1.8614
   70SLPC  C310 6073   4.428   3.396   8.426 -0.3423 -0.1102  0.2116
   70SLPC  H10X 6074   4.512   3.349   8.481  0.3528 -0.4320 -1.1213
   70SLPC  H10Y 6075   4.439   3.506   8.420 -0.5123 -0.1229 -0.4129
   70SLPC  C311 6076   4.418   3.334   8.286  0.3668 -0.6766  0.1758
   70SLPC  H11X 6077   4.325   3.367   8.235  0.2085  0.4222  1.1652
   70SLPC  H11Y 6078   4.413   3.224   8.293 -0.3581 -0.8048 -1.8732
   70SLPC  C312 6079   4.543   3.386   8.206 -0.6289  0.1806  0.7166
   70SLPC  H12X 6080   4.631   3.357   8.267 -0.6826  2.0330  1.7012
   70SLPC  H12Y 6081   4.541   3.495   8.188  0.5218  0.1690  0.4782
   70SLPC  C313 6082   4.569   3.302   8.074  0.0669 -0.6351  0.2067
   70SLPC  H13X 6083   4.475   3.291   8.015 -0.8623  1.3905  1.2502
   70SLPC  H13Y 6084   4.607   3.205   8.112  0.9784 -0.2493  0.2917
   70SLPC  C314 6085   4.677   3.358   7.984 -0.7281  0.4575  0.3678
   70SLPC  H14X 6086   4.662   3.468   7.979 -1.8943  0.2161 -3.1561
   70SLPC  H14Y 6087   4.684   3.320   7.879 -1.1044 -0.6792  0.7495
   70SLPC  C315 6088   4.809   3.324   8.053 -0.2276  0.2542 -0.2457
   70SLPC  H15X 6089   4.803   3.221   8.093 -1.7765 -0.2061 -1.6196
   70SLPC  H15Y 6090   4.818   3.393   8.139 -0.3434  0.8247 -0.6901
   70SLPC  C316 6091   4.927   3.327   7.958 -0.5454 -0.0585  0.3852
   70SLPC  H16X 6092   4.916   3.412   7.888  0.5738 -1.1154 -1.1086
   70SLPC  H16Y 6093   4.911   3.240   7.890 -0.0106  2.0001 -2.4590
   70SLPC  C317 6094   5.059   3.298   8.016 -0.9693  0.2233 -0.2219
   70SLPC  H17X 6095   5.076   3.375   8.093 -0.8272 -0.7755  0.7623
   70SLPC  H17Y 6096   5.134   3.315   7.935 -0.5302 -1.5813 -0.2272
   70SLPC  C318 6097   5.081   3.162   8.076  0.3734  0.1111 -0.2268
   70SLPC  H18X 6098   5.051   3.076   8.012  0.6007 -1.8108  2.1759
   70SLPC  H18Y 6099   5.023   3.145   8.168  1.9680 -2.0067  0.4228
   70SLPC  H18Z 6100   5.191   3.149   8.092  0.1914 -2.2620 -0.7785
   71SLPC     N 6101   4.191   1.787   9.599 -0.3664 -0.7122 -0.4983
   71SLPC   C13 6102   4.225   1.701   9.488  0.2034  0.2695  0.0354
   71SLPC  H13A 6103   4.193   1.600   9.506 -0.4034  0.8865  2.5384
   71SLPC  H13B 6104   4.176   1.734   9.397 -1.6811  0.0261  0.9320
   71SLPC  H13C 6105   4.331   1.696   9.469  0.3094 -3.2652  1.2473
   71SLPC   C14 6106   4.282   1.755   9.712 -0.4340  0.3204  0.0005
   71SLPC  H14A 6107   4.385   1.782   9.698 -0.4810  0.3981 -0.1809
   71SLPC  H14B 6108   4.255   1.804   9.804  0.4406  1.6819 -0.4604
   71SLPC  H14C 6109   4.286   1.650   9.740 -0.4404  0.1778 -0.5424
   71SLPC   C15 6110   4.052   1.748   9.630 -0.1335 -0.0770 -0.6606
   71SLPC  H15A 6111   4.013   1.813   9.707 -2.6246 -1.2271 -0.9150
   71SLPC  H15B 6112   3.985   1.765   9.547 -0.1191 -1.0501 -0.8709
   71SLPC  H15C 6113   4.038   1.649   9.671 -1.5263  0.2590 -0.2740
   71SLPC   C12 6114   4.207   1.935   9.568  0.0401 -0.0335 -0.3340
   71SLPC  H12A 6115   4.309   1.953   9.535 -0.3468  2.6863 -0.1011
   71SLPC  H12B 6116   4.201   1.988   9.661  0.5848 -0.5365 -0.0096
   71SLPC   C11 6117   4.116   1.994   9.460  0.0366  0.5627 -0.6655
   71SLPC  H11A 6118   4.142   1.941   9.366 -0.3946 -1.5180  0.3562
   71SLPC  H11B 6119   4.155   2.097   9.441  2.7326 -0.7006 -2.2791
   71SLPC     P 6120   3.915   2.059   9.619  0.3504  0.5967  0.3145
   71SLPC   O13 6121   3.920   1.967   9.738  0.2288  0.0509 -0.1002
   71SLPC   O14 6122   3.971   2.193   9.637  0.4162 -0.4228  0.2511
   71SLPC   O12 6123   3.978   1.992   9.488  0.8711  0.1669 -0.5578
   71SLPC   O11 6124   3.766   2.066   9.570 -0.2614 -0.3012  0.1533
   71SLPC    C1 6125   3.735   2.140   9.456  0.4388 -0.4258  0.5266
   71SLPC    HA 6126   3.767   2.247   9.461 -0.1486 -0.2706  1.0037
   71SLPC    HB 6127   3.763   2.087   9.363  2.8651  0.2862  0.7969
   71SLPC    C2 6128   3.583   2.151   9.438 -0.4622 -0.1051  0.3206
   71SLPC    HS 6129   3.546   2.199   9.531  0.8623 -1.7421  1.7301
   71SLPC   O21 6130   3.526   2.021   9.433  0.0007  0.1193  0.5815
   71SLPC   C21 6131   3.393   2.026   9.446 -0.4030 -0.2886  0.1297
   71SLPC   O22 6132   3.330   2.121   9.489  0.3627  0.2794  0.0160
   71SLPC   C22 6133   3.335   1.890   9.400 -0.0546  0.4897  0.5142
   71SLPC   H2R 6134   3.338   1.894   9.289  3.4103 -0.3353  0.5236
   71SLPC   H2S 6135   3.394   1.804   9.438  1.9223 -0.0558 -3.5989
   71SLPC    C3 6136   3.545   2.237   9.319  0.5792  0.3511 -0.2796
   71SLPC    HX 6137   3.591   2.336   9.342  1.0259 -0.4579  2.5780
   71SLPC    HY 6138   3.436   2.260   9.314  0.7536  0.8762 -2.0460
   71SLPC   O31 6139   3.598   2.196   9.191 -0.3243 -0.3180 -0.5805
   71SLPC   C31 6140   3.510   2.149   9.105 -0.1033 -0.2889 -0.1811
   71SLPC   O32 6141   3.390   2.133   9.118  0.6891  0.4316 -0.5061
   71SLPC   C32 6142   3.589   2.119   8.978 -0.4610  0.1329 -1.0121
   71SLPC   H2X 6143   3.696   2.146   8.984  0.4826 -3.2842 -1.0771
   71SLPC   H2Y 6144   3.549   2.192   8.905  0.7916 -0.9898 -2.8551
   71SLPC   C23 6145   3.183   1.870   9.419 -0.4553 -0.0384 -0.8592
   71SLPC   H3R 6146   3.157   1.880   9.527  3.3153  0.8399  0.0183
   71SLPC   H3S 6147   3.159   1.767   9.383 -0.4369  0.1521 -1.4118
   71SLPC   C24 6148   3.075   1.947   9.340  0.4943 -0.3017  0.7360
   71SLPC   H4R 6149   3.085   2.057   9.350 -0.2517 -0.0529 -1.0640
   71SLPC   H4S 6150   2.978   1.923   9.389  1.0716 -0.8319  1.6414
   71SLPC   C25 6151   3.059   1.909   9.191 -0.0663 -0.8958  0.3272
   71SLPC   H5R 6152   3.037   1.800   9.187  0.5562 -1.0810  1.5937
   71SLPC   H5S 6153   3.160   1.930   9.149 -1.2706  0.0782 -2.1947
   71SLPC   C26 6154   2.946   1.977   9.106 -0.3161 -0.8778 -0.2473
   71SLPC   H6R 6155   2.923   1.913   9.018  0.6465 -0.9753 -0.4365
   71SLPC   H6S 6156   2.979   2.077   9.071  1.3014 -0.9442  1.0383
   71SLPC   C27 6157   2.822   1.989   9.193  0.0138 -0.0422 -0.5506
   71SLPC   H7R 6158   2.841   2.067   9.270 -0.4195 -0.6534  0.1779
   71SLPC   H7S 6159   2.821   1.889   9.240  0.9862 -0.7018 -1.8846
   71SLPC   C28 6160   2.689   2.011   9.113  0.6813  0.5931 -0.2170
   71SLPC   H8R 6161   2.614   1.945   9.161 -1.4101  1.5789 -2.0079
   71SLPC   H8S 6162   2.701   1.974   9.009 -0.8385  2.2068 -1.0083
   71SLPC   C29 6163   2.643   2.154   9.117 -1.1086 -0.3774 -0.3344
   71SLPC   H9R 6164   2.602   2.172   9.217  0.8602  1.7302  0.1203
   71SLPC  C210 6165   2.646   2.248   9.027 -0.7743 -0.1054 -0.7910
   71SLPC  H10R 6166   2.620   2.350   9.059 -0.4217 -0.4850  0.7732
   71SLPC  C211 6167   2.693   2.239   8.887  0.1427 -0.1738 -0.2319
   71SLPC  H11R 6168   2.619   2.299   8.830  0.3332  0.2316 -0.0542
   71SLPC  H11S 6169   2.679   2.135   8.848  2.3224 -0.6152  0.1052
   71SLPC  C212 6170   2.828   2.286   8.846 -0.7208 -0.7025 -0.2837
   71SLPC  H12R 6171   2.881   2.350   8.918 -2.5681  1.7673 -1.0299
   71SLPC  C213 6172   2.899   2.250   8.731  0.1454 -0.3182  0.0534
   71SLPC  H13R 6173   2.995   2.302   8.720  0.5802 -1.2658 -0.6393
   71SLPC  C214 6174   2.845   2.164   8.617 -0.3039 -0.5416  0.1789
   71SLPC  H14R 6175   2.826   2.222   8.524 -2.4684 -3.0254 -0.9951
   71SLPC  H14S 6176   2.745   2.121   8.640 -0.5791  0.1050  0.2175
   71SLPC  C215 6177   2.940   2.046   8.575 -0.4021 -0.3565 -0.3501
   71SLPC  H15R 6178   3.042   2.071   8.539  0.3631 -0.9178  1.4009
   71SLPC  H15S 6179   2.898   1.997   8.484 -0.7919 -0.3468 -0.1771
   71SLPC  C216 6180   2.965   1.944   8.682  0.3712 -0.6116  0.2015
   71SLPC  H16R 6181   2.881   1.892   8.733 -1.0376  0.7956 -0.6628
   71SLPC  H16S 6182   3.020   1.996   8.763 -0.1095  2.5568 -1.4441
   71SLPC  C217 6183   3.065   1.839   8.644 -0.0055  0.0031 -0.2900
   71SLPC  H17R 6184   3.158   1.886   8.607 -0.3163  0.3837 -0.5924
   71SLPC  H17S 6185   3.014   1.797   8.554 -0.1119  1.5701 -0.9768
   71SLPC  C218 6186   3.097   1.720   8.741 -0.2281  0.6523 -0.4108
   71SLPC  H18R 6187   3.145   1.761   8.832 -0.5201  0.0118  0.0416
   71SLPC  H18S 6188   3.179   1.666   8.690 -1.1174  0.2161 -1.3961
   71SLPC  H18T 6189   3.004   1.663   8.766  1.3256 -1.4929  0.5987
   71SLPC   C33 6190   3.568   1.972   8.924  0.8078 -0.1883  0.1246
   71SLPC   H3X 6191   3.458   1.956   8.925  0.5311  1.5094  3.3316
   71SLPC   H3Y 6192   3.595   1.895   8.999  1.5806  0.8955  0.9871
   71SLPC   C34 6193   3.630   1.958   8.790 -0.5290 -0.0493  0.1294
   71SLPC   H4X 6194   3.729   2.008   8.800 -0.2131 -0.7530  0.5578
   71SLPC   H4Y 6195   3.572   2.018   8.717  2.0408  0.9135 -1.2091
   71SLPC   C35 6196   3.654   1.810   8.751  0.4373 -0.3990 -0.4405
   71SLPC   H5X 6197   3.696   1.747   8.832 -1.9310 -1.4465  0.0039
   71SLPC   H5Y 6198   3.723   1.801   8.664  2.4082 -2.7200  1.3025
   71SLPC   C36 6199   3.522   1.742   8.707 -0.4389 -0.1489 -0.6212
   71SLPC   H6X 6200   3.479   1.808   8.630 -0.1238 -0.4311 -1.0388
   71SLPC   H6Y 6201   3.449   1.735   8.791  1.3190 -1.3930  0.8652
   71SLPC   C37 6202   3.546   1.598   8.656  0.4575  0.5889  0.2158
   71SLPC   H7X 6203   3.608   1.535   8.723  0.3081 -0.7441 -0.8743
   71SLPC   H7Y 6204   3.605   1.628   8.567  0.4258  0.8415  0.2808
   71SLPC   C38 6205   3.429   1.515   8.591  0.5932 -0.4094  0.2262
   71SLPC   H8X 6206   3.350   1.486   8.664  0.7073  0.6384  0.7725
   71SLPC   H8Y 6207   3.467   1.418   8.552 -2.9270 -1.1883 -1.5634
   71SLPC   C39 6208   3.354   1.594   8.478  0.1019 -0.4617 -0.5455
   71SLPC   H9X 6209   3.421   1.612   8.391 -0.6672 -2.0310 -1.4798
   71SLPC   H9Y 6210   3.321   1.691   8.520  2.3030 -0.3432  1.0572
   71SLPC  C310 6211   3.228   1.528   8.421 -0.1505 -0.2771  0.3536
   71SLPC  H10X 6212   3.183   1.613   8.366 -0.8564 -0.1565  1.1083
   71SLPC  H10Y 6213   3.164   1.494   8.505 -1.5958 -1.7568 -1.3134
   71SLPC  C311 6214   3.255   1.402   8.335  0.9203 -0.3381 -0.1461
   71SLPC  H11X 6215   3.157   1.373   8.292 -1.7570  4.0152  2.6748
   71SLPC  H11Y 6216   3.276   1.320   8.407 -1.8088 -0.3737  0.6495
   71SLPC  C312 6217   3.365   1.415   8.231  0.1626  0.2736  0.2140
   71SLPC  H12X 6218   3.382   1.316   8.184  2.5663 -0.2128  1.9754
   71SLPC  H12Y 6219   3.462   1.437   8.281  0.4898  2.4804 -1.3350
   71SLPC  C313 6220   3.331   1.526   8.126  0.3002  0.2967 -0.2729
   71SLPC  H13X 6221   3.402   1.517   8.040  1.3817  0.5386  0.5906
   71SLPC  H13Y 6222   3.349   1.623   8.177 -2.1594  0.2410  0.7262
   71SLPC  C314 6223   3.182   1.514   8.078 -0.5468  0.2801  0.0098
   71SLPC  H14X 6224   3.113   1.539   8.161  1.3388 -1.1288  2.0576
   71SLPC  H14Y 6225   3.173   1.406   8.050  1.5822 -0.0160  0.3897
   71SLPC  C315 6226   3.165   1.600   7.944 -0.0717 -0.5285  0.1723
   71SLPC  H15X 6227   3.253   1.600   7.877 -0.8097 -2.8106 -0.8178
   71SLPC  H15Y 6228   3.151   1.706   7.976 -0.3014 -0.4365 -0.2217
   71SLPC  C316 6229   3.041   1.557   7.863  0.7438  0.9457  0.0178
   71SLPC  H16X 6230   2.959   1.548   7.938  0.9405 -1.1720 -0.0123
   71SLPC  H16Y 6231   3.054   1.458   7.815 -0.6563  0.8978 -0.2954
   71SLPC  C317 6232   2.998   1.665   7.758  0.1270  0.4339 -0.4263
   71SLPC  H17X 6233   3.087   1.709   7.708  2.0806  0.1692  2.6588
   71SLPC  H17Y 6234   2.940   1.748   7.805  0.9263  0.5543  0.3697
   71SLPC  C318 6235   2.924   1.593   7.648  0.6926  0.0058 -0.8705
   71SLPC  H18X 6236   2.839   1.528   7.675  0.2174  1.3118  0.9007
   71SLPC  H18Y 6237   3.002   1.534   7.595 -0.0773 -1.4654 -0.3691
   71SLPC  H18Z 6238   2.892   1.675   7.580 -2.7213 -0.0189  0.6055
   72SLPC     N 6239   5.743   6.060   9.621  0.1939  0.1623  0.5410
   72SLPC   C13 6240   5.740   6.128   9.757  0.0450 -0.4063  0.1580
   72SLPC  H13A 6241   5.814   6.205   9.774 -0.7705  0.5434 -0.6026
   72SLPC  H13B 6242   5.641   6.168   9.776  0.1930 -0.0858  0.2586
   72SLPC  H13C 6243   5.756   6.052   9.832  0.0607 -0.5957 -0.0381
   72SLPC   C14 6244   5.663   6.143   9.525  1.1188  0.6820  0.8615
   72SLPC  H14A 6245   5.711   6.234   9.493 -1.1156  1.1333 -1.3196
   72SLPC  H14B 6246   5.640   6.074   9.445 -1.0683  3.0604 -0.6163
   72SLPC  H14C 6247   5.570   6.162   9.575  0.0669 -0.3173 -0.6774
   72SLPC   C15 6248   5.668   5.928   9.632 -0.1008 -0.5113  0.8867
   72SLPC  H15A 6249   5.575   5.960   9.678  0.1337 -2.7944  3.0324
   72SLPC  H15B 6250   5.650   5.895   9.531 -0.2644 -1.7553  1.3246
   72SLPC  H15C 6251   5.727   5.854   9.683  1.0963 -0.4862 -0.4186
   72SLPC   C12 6252   5.878   6.040   9.568 -0.0448  0.0863  0.8299
   72SLPC  H12A 6253   5.945   5.990   9.637  2.3902  1.6876 -0.2942
   72SLPC  H12B 6254   5.935   6.131   9.567  0.9351 -0.5294 -0.1314
   72SLPC   C11 6255   5.902   5.958   9.435 -0.7160 -0.1929  0.2177
   72SLPC  H11A 6256   6.008   5.978   9.407 -1.0495  0.5209 -0.5539
   72SLPC  H11B 6257   5.843   6.010   9.356  1.5647 -0.1062 -1.4865
   72SLPC     P 6258   5.943   5.726   9.535  0.2388 -0.0261 -0.3805
   72SLPC   O13 6259   5.904   5.758   9.673 -0.0715  0.4274  1.1916
   72SLPC   O14 6260   5.912   5.589   9.497  0.0299  0.1765 -0.6651
   72SLPC   O12 6261   5.865   5.825   9.443  0.0072 -0.4409 -0.2074
   72SLPC   O11 6262   6.097   5.762   9.523  0.2246 -0.1503  1.0015
   72SLPC    C1 6263   6.179   5.716   9.415  0.3609  0.4949 -0.2994
   72SLPC    HA 6264   6.269   5.669   9.460 -0.1875 -0.4934 -0.2205
   72SLPC    HB 6265   6.130   5.633   9.361  2.0283 -0.2510 -0.7190
   72SLPC    C2 6266   6.219   5.829   9.311  0.0841 -0.0961 -0.5451
   72SLPC    HS 6267   6.247   5.916   9.374 -1.6629  0.7431 -0.8907
   72SLPC   O21 6268   6.113   5.853   9.224  0.1299 -0.1159  0.2208
   72SLPC   C21 6269   6.119   5.956   9.164  0.0897 -0.3467 -0.4399
   72SLPC   O22 6270   6.194   6.055   9.175  0.1420 -0.1074 -0.1720
   72SLPC   C22 6271   5.994   5.966   9.075 -0.2533  0.7049  0.6842
   72SLPC   H2R 6272   5.911   5.966   9.149 -0.9626  1.3745 -0.1054
   72SLPC   H2S 6273   5.989   6.065   9.024 -0.0140  0.2227 -0.2697
   72SLPC    C3 6274   6.359   5.799   9.242 -0.5677  0.0105 -0.3163
   72SLPC    HX 6275   6.440   5.777   9.315 -0.9770 -0.2664  0.0488
   72SLPC    HY 6276   6.385   5.891   9.185 -0.5858  0.6585  0.7126
   72SLPC   O31 6277   6.342   5.685   9.149 -0.3560 -0.5956  0.5908
   72SLPC   C31 6278   6.407   5.575   9.177 -0.3473 -0.4165  0.3585
   72SLPC   O32 6279   6.465   5.549   9.282 -0.1931  0.3608 -0.1940
   72SLPC   C32 6280   6.411   5.479   9.059 -0.5302  0.3389  0.0582
   72SLPC   H2X 6281   6.504   5.418   9.069 -1.2182 -1.1035 -2.0128
   72SLPC   H2Y 6282   6.412   5.532   8.961  0.0694  1.6119  0.7391
   72SLPC   C23 6283   5.968   5.853   8.973  1.3220  0.1453  0.5098
   72SLPC   H3R 6284   5.859   5.851   8.953  1.4754  0.3369 -0.3509
   72SLPC   H3S 6285   5.989   5.752   9.014  1.2458 -0.1696 -0.2301
   72SLPC   C24 6286   6.045   5.870   8.840  0.7146 -0.2078  0.2846
   72SLPC   H4R 6287   6.040   5.978   8.813 -1.6676 -0.4005 -0.1635
   72SLPC   H4S 6288   5.994   5.812   8.761  2.4822 -0.2319 -0.8788
   72SLPC   C25 6289   6.193   5.839   8.853  0.1747  0.3939 -0.1860
   72SLPC   H5R 6290   6.203   5.740   8.901  0.1027  0.8046  0.6940
   72SLPC   H5S 6291   6.251   5.900   8.926  0.5746  0.9070 -0.9191
   72SLPC   C26 6292   6.268   5.849   8.719 -0.2602 -0.4091  0.3723
   72SLPC   H6R 6293   6.371   5.813   8.737 -0.8597 -2.9568 -1.0287
   72SLPC   H6S 6294   6.264   5.955   8.686  0.1181  0.0266  1.6961
   72SLPC   C27 6295   6.221   5.765   8.602  0.3889  0.1258 -0.8978
   72SLPC   H7R 6296   6.122   5.805   8.570  0.7471  0.8725 -1.0871
   72SLPC   H7S 6297   6.209   5.658   8.629  1.3816  0.1102 -0.5257
   72SLPC   C28 6298   6.313   5.783   8.478 -0.1872 -0.2226 -0.5019
   72SLPC   H8R 6299   6.280   5.708   8.404 -2.6371  0.7696 -0.4525
   72SLPC   H8S 6300   6.417   5.760   8.510 -0.3135  1.4901  1.2667
   72SLPC   C29 6301   6.309   5.922   8.416  0.4510 -0.0577  0.5616
   72SLPC   H9R 6302   6.269   6.010   8.467  0.7923  0.3638  0.1163
   72SLPC  C210 6303   6.362   5.955   8.291  0.6109 -0.2493 -0.4221
   72SLPC  H10R 6304   6.352   6.060   8.263 -0.9014 -0.5633 -1.1088
   72SLPC  C211 6305   6.416   5.859   8.191  0.3335  0.3792 -0.1126
   72SLPC  H11R 6306   6.449   5.768   8.247  0.8510  0.3722 -0.4347
   72SLPC  H11S 6307   6.506   5.899   8.141  2.1185 -1.2509  1.7055
   72SLPC  C212 6308   6.310   5.821   8.089  0.9490  0.8266 -0.4296
   72SLPC  H12R 6309   6.283   5.893   8.010  0.3368 -1.0336 -1.9687
   72SLPC  C213 6310   6.258   5.702   8.064 -0.1575 -0.7894  0.4402
   72SLPC  H13R 6311   6.198   5.690   7.972  1.1478 -0.4849 -0.4740
   72SLPC  C214 6312   6.302   5.575   8.129  0.5390  0.5260 -0.9071
   72SLPC  H14R 6313   6.239   5.564   8.221  0.0968 -1.1082 -1.3832
   72SLPC  H14S 6314   6.397   5.589   8.184 -0.4162  0.3728  0.8443
   72SLPC  C215 6315   6.303   5.457   8.036  0.2347  0.4005  0.3056
   72SLPC  H15R 6316   6.359   5.485   7.944 -1.1474  0.4508 -0.5367
   72SLPC  H15S 6317   6.200   5.456   7.995 -0.4551 -3.5377  1.9105
   72SLPC  C216 6318   6.346   5.325   8.102 -0.2156 -0.1059  0.3057
   72SLPC  H16R 6319   6.271   5.295   8.178  0.7271  0.1983  1.3664
   72SLPC  H16S 6320   6.443   5.336   8.155 -0.1259  0.3327  0.0532
   72SLPC  C217 6321   6.375   5.204   8.003  0.2406 -0.0724  0.2596
   72SLPC  H17R 6322   6.287   5.170   7.944  1.5017 -0.6340 -1.3352
   72SLPC  H17S 6323   6.403   5.116   8.064  0.3877 -1.1396 -1.3223
   72SLPC  C218 6324   6.492   5.229   7.903  0.4513 -0.7888  0.6833
   72SLPC  H18R 6325   6.562   5.303   7.946  0.4213  0.6454 -1.6696
   72SLPC  H18S 6326   6.451   5.270   7.808  1.6858  2.1837  1.3895
   72SLPC  H18T 6327   6.552   5.137   7.886  1.4768 -0.0600  0.3418
   72SLPC   C33 6328   6.283   5.395   9.043 -0.5914  0.3034 -0.2640
   72SLPC   H3X 6329   6.266   5.325   9.128  2.9793 -1.1608 -0.6393
   72SLPC   H3Y 6330   6.279   5.326   8.956 -0.2175 -0.8877  0.6534
   72SLPC   C34 6331   6.166   5.492   9.023  0.6109  0.7133  0.2166
   72SLPC   H4X 6332   6.175   5.546   8.926 -0.2036 -1.6073 -1.1955
   72SLPC   H4Y 6333   6.150   5.563   9.107  1.3561 -0.3723  1.2869
   72SLPC   C35 6334   6.028   5.420   9.020 -0.0037 -0.3047 -0.2870
   72SLPC   H5X 6335   5.947   5.494   9.002  1.1139  0.6830 -1.3945
   72SLPC   H5Y 6336   5.992   5.373   9.114  0.0547  2.0045  0.9265
   72SLPC   C36 6337   6.023   5.316   8.908 -0.6811 -0.2473  0.3144
   72SLPC   H6X 6338   6.059   5.224   8.960 -0.1981 -0.6427 -0.7127
   72SLPC   H6Y 6339   6.087   5.351   8.825 -0.0481 -1.6682  0.1917
   72SLPC   C37 6340   5.878   5.283   8.867  0.2510 -0.4111  0.6552
   72SLPC   H7X 6341   5.815   5.301   8.956  0.6112  4.7202 -0.0287
   72SLPC   H7Y 6342   5.857   5.180   8.829  0.4670 -0.3158  0.2693
   72SLPC   C38 6343   5.831   5.379   8.756  0.3159 -0.5094 -0.1748
   72SLPC   H8X 6344   5.853   5.481   8.796  1.5489 -1.1560  0.8339
   72SLPC   H8Y 6345   5.720   5.371   8.746  0.6154 -2.9663 -2.0494
   72SLPC   C39 6346   5.894   5.360   8.622 -0.5454 -0.3190  0.4270
   72SLPC   H9X 6347   5.848   5.267   8.582  0.1831 -1.1757  1.5530
   72SLPC   H9Y 6348   6.003   5.339   8.626 -0.4604  0.0999  0.3049
   72SLPC  C310 6349   5.872   5.476   8.523 -0.4553 -0.3673 -0.0791
   72SLPC  H10X 6350   5.907   5.568   8.575 -1.6474 -0.6660  1.2967
   72SLPC  H10Y 6351   5.764   5.502   8.524  0.1901  2.4705 -1.0300
   72SLPC  C311 6352   5.933   5.472   8.380  0.3643 -0.1973 -0.2587
   72SLPC  H11X 6353   5.865   5.401   8.327 -1.3498  1.0509  0.2125
   72SLPC  H11Y 6354   6.035   5.429   8.383  0.7876  0.7231 -0.9737
   72SLPC  C312 6355   5.921   5.608   8.311  0.3390 -0.6097  0.0019
   72SLPC  H12X 6356   6.012   5.668   8.332  1.4995 -2.4751  0.3787
   72SLPC  H12Y 6357   5.834   5.669   8.345  3.2476  2.8796  1.6004
   72SLPC  C313 6358   5.918   5.599   8.158 -0.5392 -0.1438 -0.0546
   72SLPC  H13X 6359   5.830   5.543   8.118 -1.2506  0.5999  0.4439
   72SLPC  H13Y 6360   6.007   5.545   8.120  0.8937  0.5653  2.1933
   72SLPC  C314 6361   5.911   5.738   8.084 -0.3255  0.2179 -0.2621
   72SLPC  H14X 6362   5.920   5.714   7.976  1.0140 -0.4505 -0.0058
   72SLPC  H14Y 6363   6.005   5.792   8.109 -0.0404 -1.1727  1.8351
   72SLPC  C315 6364   5.804   5.844   8.120  0.2196  0.3944  0.7188
   72SLPC  H15X 6365   5.862   5.939   8.120 -0.0333  0.5475  0.1384
   72SLPC  H15Y 6366   5.779   5.820   8.226  1.2522 -0.2161  0.8334
   72SLPC  C316 6367   5.678   5.845   8.035  0.0486 -0.0917 -0.4546
   72SLPC  H16X 6368   5.698   5.901   7.941  1.1179  2.3451  1.1811
   72SLPC  H16Y 6369   5.596   5.902   8.085  1.4534 -0.8934  2.8687
   72SLPC  C317 6370   5.620   5.706   8.008 -0.0782  1.0155 -0.5895
   72SLPC  H17X 6371   5.628   5.651   8.104 -0.7179 -0.6435 -1.4675
   72SLPC  H17Y 6372   5.681   5.650   7.935 -1.5341 -1.0219 -0.2711
   72SLPC  C318 6373   5.471   5.704   7.969  0.5479 -1.2446 -0.5064
   72SLPC  H18X 6374   5.457   5.778   7.888 -4.2662  1.9233  2.9348
   72SLPC  H18Y 6375   5.415   5.741   8.057  3.4607  1.8359  0.1082
   72SLPC  H18Z 6376   5.422   5.608   7.937 -1.6574 -1.1226  2.2984
   73SLPC     N 6377   6.862   5.477   9.473 -0.2595  0.7458  0.6749
   73SLPC   C13 6378   6.721   5.488   9.443  0.1976 -0.5624  0.3447
   73SLPC  H13A 6379   6.681   5.582   9.478 -1.7699 -1.1756 -0.1459
   73SLPC  H13B 6380   6.689   5.479   9.340 -0.3119 -3.6135  0.6954
   73SLPC  H13C 6381   6.675   5.409   9.500  1.2072 -1.1269  0.3837
   73SLPC   C14 6382   6.878   5.494   9.622 -0.0988  0.3163 -0.2992
   73SLPC  H14A 6383   6.975   5.461   9.654 -0.4935  0.9594  1.6304
   73SLPC  H14B 6384   6.864   5.595   9.655 -1.8584  0.0009 -0.0089
   73SLPC  H14C 6385   6.810   5.434   9.681 -2.3452  2.3891 -0.6839
   73SLPC   C15 6386   6.933   5.588   9.410  0.1714 -0.1348  0.0014
   73SLPC  H15A 6387   7.035   5.590   9.445 -0.1927 -1.3250  1.1482
   73SLPC  H15B 6388   6.934   5.582   9.302  0.3000 -2.1091  0.1096
   73SLPC  H15C 6389   6.896   5.684   9.444 -0.9907 -0.1314 -1.2313
   73SLPC   C12 6390   6.925   5.344   9.425 -0.1715  0.6360  0.0467
   73SLPC  H12A 6391   7.006   5.309   9.488 -1.2775 -0.8784  0.6568
   73SLPC  H12B 6392   6.967   5.355   9.326 -0.9596 -1.7717 -0.5848
   73SLPC   C11 6393   6.826   5.215   9.415  0.7849 -0.2267  0.0817
   73SLPC  H11A 6394   6.882   5.130   9.370  1.1247  1.0254 -1.9004
   73SLPC  H11B 6395   6.747   5.238   9.341  1.8333  0.3390 -0.8798
   73SLPC     P 6396   6.852   5.127   9.660 -0.0559  0.1194  0.1619
   73SLPC   O13 6397   6.981   5.196   9.671 -0.5454  0.3007 -0.1537
   73SLPC   O14 6398   6.764   5.118   9.778 -0.2064  0.8094 -0.1570
   73SLPC   O12 6399   6.771   5.179   9.541 -0.0684  0.7402 -0.4564
   73SLPC   O11 6400   6.882   4.982   9.603 -0.1872 -0.0865 -0.4481
   73SLPC    C1 6401   6.770   4.890   9.584 -0.3722 -0.3300  0.0865
   73SLPC    HA 6402   6.714   4.873   9.678 -0.1176  0.6054  0.4009
   73SLPC    HB 6403   6.702   4.938   9.510  0.8341 -1.9157 -2.1288
   73SLPC    C2 6404   6.813   4.750   9.531  0.2557 -0.9672  0.2184
   73SLPC    HS 6405   6.898   4.706   9.587  2.7302  1.5470 -1.4441
   73SLPC   O21 6406   6.843   4.771   9.390 -0.4941 -0.0816 -0.5960
   73SLPC   C21 6407   6.972   4.753   9.364  0.3223 -0.0207  0.4909
   73SLPC   O22 6408   7.063   4.730   9.443  0.2282  0.3012  0.2352
   73SLPC   C22 6409   7.002   4.776   9.215  0.3076  0.9037 -0.3601
   73SLPC   H2R 6410   7.065   4.691   9.181 -0.3760  1.3217 -2.7901
   73SLPC   H2S 6411   6.903   4.766   9.165  0.2522 -1.3060  0.1401
   73SLPC    C3 6412   6.707   4.639   9.552 -0.4375  0.0615  0.1565
   73SLPC    HX 6413   6.695   4.628   9.662 -0.7606 -1.1157  0.0098
   73SLPC    HY 6414   6.743   4.544   9.506  2.6883  1.6428 -0.8098
   73SLPC   O31 6415   6.581   4.678   9.498  0.8478 -0.4243  0.1752
   73SLPC   C31 6416   6.485   4.588   9.486 -0.0509 -0.4946  0.2314
   73SLPC   O32 6417   6.482   4.471   9.521  0.8239 -0.2920  0.0037
   73SLPC   C32 6418   6.380   4.662   9.409  0.2298  0.4388 -0.0650
   73SLPC   H2X 6419   6.358   4.751   9.472  0.0825 -0.5031  1.2318
   73SLPC   H2Y 6420   6.292   4.594   9.399  0.2253  0.3125  0.7831
   73SLPC   C23 6421   7.077   4.908   9.158  0.3186  0.7173 -0.1442
   73SLPC   H3R 6422   7.146   4.940   9.239  1.1991  0.3667 -0.7406
   73SLPC   H3S 6423   6.996   4.979   9.131 -3.1861 -3.1687 -0.4703
   73SLPC   C24 6424   7.157   4.877   9.029  0.3330 -0.0569  0.2507
   73SLPC   H4R 6425   7.200   4.777   9.050 -0.8095 -0.4121  0.9195
   73SLPC   H4S 6426   7.241   4.949   9.024  1.1526 -0.9049  1.8451
   73SLPC   C25 6427   7.076   4.877   8.901  0.5273  0.8357  0.1986
   73SLPC   H5R 6428   7.026   4.972   8.875 -1.9147 -0.0740  1.3692
   73SLPC   H5S 6429   6.994   4.803   8.912  0.9374  0.6250  2.1452
   73SLPC   C26 6430   7.160   4.838   8.776  0.1048 -0.0615  0.4741
   73SLPC   H6R 6431   7.195   4.732   8.782  0.9347  0.1271 -0.8207
   73SLPC   H6S 6432   7.258   4.890   8.776  1.4750 -2.5483  1.4243
   73SLPC   C27 6433   7.079   4.848   8.643  0.2357  0.4415  0.5138
   73SLPC   H7R 6434   7.070   4.954   8.614  1.6852  0.6909  0.9513
   73SLPC   H7S 6435   6.973   4.816   8.648  0.0087  0.7840 -1.6761
   73SLPC   C28 6436   7.157   4.777   8.527  0.5094 -0.8279 -0.4181
   73SLPC   H8R 6437   7.167   4.669   8.552  1.7884 -0.5778  0.2095
   73SLPC   H8S 6438   7.263   4.810   8.520  0.4223 -0.7159 -1.2703
   73SLPC   C29 6439   7.078   4.788   8.397 -0.0333  0.9013 -0.4929
   73SLPC   H9R 6440   6.977   4.744   8.401 -0.1728  1.2645  0.0638
   73SLPC  C210 6441   7.136   4.823   8.284 -0.0479  0.4360 -0.2879
   73SLPC  H10R 6442   7.070   4.818   8.196  0.1541  3.7903 -0.6707
   73SLPC  C211 6443   7.281   4.860   8.258 -0.0218  0.0844  0.5772
   73SLPC  H11R 6444   7.335   4.778   8.208 -1.9390 -0.9865  0.2082
   73SLPC  H11S 6445   7.337   4.878   8.352 -0.0217 -3.1378  1.2374
   73SLPC  C212 6446   7.301   4.976   8.162 -0.0646 -0.6548 -0.2749
   73SLPC  H12R 6447   7.286   5.073   8.212  1.1924 -1.0294  0.8444
   73SLPC  C213 6448   7.314   4.978   8.027  0.3401  0.2860  0.1573
   73SLPC  H13R 6449   7.335   5.079   7.987  2.5212  0.3360  1.3202
   73SLPC  C214 6450   7.308   4.857   7.933  0.2783  0.5428  0.2273
   73SLPC  H14R 6451   7.265   4.773   7.992  0.4393  1.5107  1.7435
   73SLPC  H14S 6452   7.409   4.822   7.902  0.0206  0.6087 -0.7252
   73SLPC  C215 6453   7.225   4.893   7.802  0.2020  0.4904 -0.0946
   73SLPC  H15R 6454   7.126   4.935   7.831  0.6003  1.0155  0.5243
   73SLPC  H15S 6455   7.205   4.799   7.748  0.4100  1.0235 -1.1087
   73SLPC  C216 6456   7.308   4.981   7.712  0.1857 -0.3801  0.1790
   73SLPC  H16R 6457   7.366   5.057   7.769 -1.3091  0.8339  0.1501
   73SLPC  H16S 6458   7.231   5.047   7.666  1.1473  0.5548 -0.1098
   73SLPC  C217 6459   7.375   4.905   7.600  0.2637 -0.3403  0.5624
   73SLPC  H17R 6460   7.304   4.843   7.541  1.1348 -0.8559  0.0568
   73SLPC  H17S 6461   7.447   4.835   7.646 -0.7736 -1.1346  0.9807
   73SLPC  C218 6462   7.440   5.020   7.518 -0.4615 -0.3748 -0.6387
   73SLPC  H18R 6463   7.489   4.976   7.429  1.1569  1.5780 -0.7558
   73SLPC  H18S 6464   7.524   5.072   7.569 -0.7052  0.3650 -0.9855
   73SLPC  H18T 6465   7.365   5.096   7.484  0.6809  0.2014 -1.9018
   73SLPC   C33 6466   6.418   4.712   9.266 -0.7635 -0.0215  0.2055
   73SLPC   H3X 6467   6.528   4.713   9.257 -0.9192 -0.3929 -1.8811
   73SLPC   H3Y 6468   6.378   4.815   9.257  0.5415  0.3504 -1.6675
   73SLPC   C34 6469   6.341   4.624   9.158  0.2624 -0.2478 -0.4824
   73SLPC   H4X 6470   6.235   4.622   9.191  0.8608 -0.9465  1.4526
   73SLPC   H4Y 6471   6.390   4.524   9.161 -1.8108 -1.2555  1.0024
   73SLPC   C35 6472   6.355   4.683   9.010  0.1228 -0.3781  0.1440
   73SLPC   H5X 6473   6.377   4.602   8.937 -0.0199 -0.8876  0.6646
   73SLPC   H5Y 6474   6.452   4.738   9.004 -0.0162  0.1111  2.0238
   73SLPC   C36 6475   6.235   4.768   8.969  1.2457 -0.6522  0.9436
   73SLPC   H6X 6476   6.213   4.840   9.051 -1.6142  0.3781 -0.6525
   73SLPC   H6Y 6477   6.153   4.700   8.938  1.8566 -1.4454  1.0766
   73SLPC   C37 6478   6.254   4.841   8.835 -0.8657 -0.4564  0.0161
   73SLPC   H7X 6479   6.305   4.776   8.760  1.4023  0.1057  1.0614
   73SLPC   H7Y 6480   6.320   4.929   8.841 -0.8538 -0.1345 -3.6342
   73SLPC   C38 6481   6.112   4.894   8.788  0.5845 -0.1412 -0.4548
   73SLPC   H8X 6482   6.087   4.975   8.860 -1.0011 -1.4824  0.5446
   73SLPC   H8Y 6483   6.039   4.812   8.807 -0.2876  1.1403  2.0228
   73SLPC   C39 6484   6.101   4.933   8.642 -0.6363  0.1818  0.0916
   73SLPC   H9X 6485   6.001   4.980   8.629 -0.4752  0.2545 -0.8567
   73SLPC   H9Y 6486   6.106   4.842   8.580  3.7801 -0.1210  0.7648
   73SLPC  C310 6487   6.213   5.022   8.588 -0.3175 -0.0398  0.6428
   73SLPC  H10X 6488   6.209   5.032   8.477  0.5460  2.0455  0.7722
   73SLPC  H10Y 6489   6.305   4.961   8.602  0.6410  1.4698  1.0591
   73SLPC  C311 6490   6.232   5.165   8.641 -0.1150  0.3349  1.2272
   73SLPC  H11X 6491   6.282   5.154   8.740  0.1927  0.6779  1.1109
   73SLPC  H11Y 6492   6.136   5.218   8.653 -0.4747 -0.1990  0.7526
   73SLPC  C312 6493   6.334   5.263   8.571 -0.1244  0.6302  0.2857
   73SLPC  H12X 6494   6.292   5.305   8.478 -0.1565 -0.3960 -0.1683
   73SLPC  H12Y 6495   6.422   5.208   8.530 -0.3196 -0.1701  0.9242
   73SLPC  C313 6496   6.397   5.378   8.667  0.0090  0.0715 -0.4101
   73SLPC  H13X 6497   6.446   5.315   8.745  0.4983  1.0026  0.0485
   73SLPC  H13Y 6498   6.314   5.439   8.708  1.8656  2.5059 -0.1746
   73SLPC  C314 6499   6.503   5.461   8.599 -0.1494  0.4268 -0.0803
   73SLPC  H14X 6500   6.460   5.511   8.510 -1.4588 -0.7238 -0.1124
   73SLPC  H14Y 6501   6.586   5.394   8.565 -0.9507 -0.6104 -0.0295
   73SLPC  C315 6502   6.560   5.576   8.690  0.0190  0.3747 -0.2815
   73SLPC  H15X 6503   6.484   5.640   8.739  1.2237  1.5689  0.0772
   73SLPC  H15Y 6504   6.620   5.640   8.622  2.8339 -0.5494  1.2345
   73SLPC  C316 6505   6.645   5.522   8.805  0.2777 -0.2258 -0.4033
   73SLPC  H16X 6506   6.591   5.439   8.857  2.4582 -0.9953  0.6819
   73SLPC  H16Y 6507   6.665   5.593   8.888  2.1427 -0.1321 -0.9107
   73SLPC  C317 6508   6.784   5.468   8.777  0.0622 -0.3882 -0.9450
   73SLPC  H17X 6509   6.769   5.374   8.719 -0.8921 -0.0250 -1.2749
   73SLPC  H17Y 6510   6.824   5.428   8.873  0.7597  0.9131 -0.6827
   73SLPC  C318 6511   6.886   5.559   8.710  0.4069 -0.5658  0.0697
   73SLPC  H18X 6512   6.889   5.650   8.773 -0.2941 -1.5814  1.6053
   73SLPC  H18Y 6513   6.861   5.584   8.605 -0.5607  0.5976  0.5618
   73SLPC  H18Z 6514   6.993   5.527   8.714  0.3847 -0.7238 -0.6276
   74SLPC     N 6515   6.361   6.860   9.880 -0.2245 -0.7622 -0.6337
   74SLPC   C13 6516   6.294   6.830  10.013 -0.1875 -0.6064  0.0216
   74SLPC  H13A 6517   6.210   6.762  10.004  0.7603 -2.3304  3.3511
   74SLPC  H13B 6518   6.365   6.787  10.083  1.0638  1.4650  0.0486
   74SLPC  H13C 6519   6.254   6.919  10.058  1.8851  0.4281 -0.0854
   74SLPC   C14 6520   6.421   6.734   9.827 -0.2137 -0.6090 -0.7229
   74SLPC  H14A 6521   6.447   6.762   9.726 -1.5790  1.2313 -0.6019
   74SLPC  H14B 6522   6.504   6.695   9.883 -0.6186  1.0703  1.1002
   74SLPC  H14C 6523   6.342   6.662   9.818 -0.4402 -0.3583 -0.7633
   74SLPC   C15 6524   6.478   6.945   9.929  0.2571 -0.1172  0.1491
   74SLPC  H15A 6525   6.446   7.032   9.985 -0.6092  1.9553 -3.3489
   74SLPC  H15B 6526   6.536   6.887   9.998 -1.2804 -1.5741  0.2344
   74SLPC  H15C 6527   6.525   6.995   9.845 -4.6956 -1.6030 -3.7917
   74SLPC   C12 6528   6.266   6.928   9.784  1.0917 -1.0439 -0.3079
   74SLPC  H12A 6529   6.316   6.964   9.695  1.1098  0.8005  0.4389
   74SLPC  H12B 6530   6.238   7.022   9.829  2.5944 -1.0720  0.7341
   74SLPC   C11 6531   6.133   6.856   9.729  0.2356  0.6157  0.6090
   74SLPC  H11A 6532   6.070   6.935   9.684  2.6094  1.5966 -1.0403
   74SLPC  H11B 6533   6.077   6.815   9.816  1.7722 -1.2323  0.7628
   74SLPC     P 6534   6.065   6.717   9.521 -0.0238 -0.0964 -0.1737
   74SLPC   O13 6535   6.115   6.587   9.476  0.2097  0.1610  0.3529
   74SLPC   O14 6536   5.921   6.725   9.553 -0.5561 -0.2968 -0.0633
   74SLPC   O12 6537   6.157   6.751   9.645  0.5747 -0.0862 -0.2469
   74SLPC   O11 6538   6.097   6.821   9.416 -0.0354  0.4568 -0.1404
   74SLPC    C1 6539   6.236   6.837   9.365 -0.0479  0.8376 -0.0146
   74SLPC    HA 6540   6.260   6.946   9.355  0.8892  0.7908  1.5997
   74SLPC    HB 6541   6.317   6.787   9.422 -0.3527  1.8344  1.3140
   74SLPC    C2 6542   6.250   6.769   9.225  0.1227 -0.3141  0.3401
   74SLPC    HS 6543   6.218   6.663   9.227  0.8940 -0.5340  2.3292
   74SLPC   O21 6544   6.381   6.769   9.177  0.6438 -0.0921  0.3226
   74SLPC   C21 6545   6.468   6.687   9.225  0.1790 -0.4812  0.1325
   74SLPC   O22 6546   6.446   6.604   9.308 -0.1205  0.0685 -0.0655
   74SLPC   C22 6547   6.601   6.720   9.159 -0.4038 -0.5101  0.4698
   74SLPC   H2R 6548   6.661   6.777   9.234  1.3601 -1.2829 -0.3138
   74SLPC   H2S 6549   6.650   6.621   9.145  1.8524  0.6081  0.1071
   74SLPC    C3 6550   6.163   6.849   9.126  0.1735  0.4413  0.0994
   74SLPC    HX 6551   6.178   6.958   9.145 -1.0112  0.2613  2.2506
   74SLPC    HY 6552   6.053   6.835   9.139  0.0468  3.2682  2.4845
   74SLPC   O31 6553   6.190   6.803   8.992  0.2910 -0.2932 -0.1359
   74SLPC   C31 6554   6.247   6.881   8.901 -0.5779  0.1298 -0.5912
   74SLPC   O32 6555   6.282   6.994   8.923  0.2214  0.3759  0.7187
   74SLPC   C32 6556   6.273   6.800   8.774 -0.0245 -0.0122 -0.1734
   74SLPC   H2X 6557   6.213   6.708   8.790 -1.4091  0.7172 -1.0384
   74SLPC   H2Y 6558   6.379   6.773   8.758 -0.8007 -3.4347  0.1713
   74SLPC   C23 6559   6.608   6.805   9.032  0.3793  0.2228  0.3853
   74SLPC   H3R 6560   6.577   6.906   9.063  1.8882  1.0119 -0.6042
   74SLPC   H3S 6561   6.528   6.770   8.963 -1.6126  0.7999  2.3670
   74SLPC   C24 6562   6.740   6.813   8.957 -0.6464  0.4984 -0.0797
   74SLPC   H4R 6563   6.801   6.721   8.963  1.4756  1.9465  0.9942
   74SLPC   H4S 6564   6.797   6.895   9.005 -1.2696 -1.2904  3.8931
   74SLPC   C25 6565   6.736   6.862   8.806 -0.1212 -0.2820  0.1927
   74SLPC   H5R 6566   6.670   6.949   8.792 -0.8382 -1.1291 -1.8132
   74SLPC   H5S 6567   6.698   6.789   8.731  0.3473 -1.8923  1.4758
   74SLPC   C26 6568   6.870   6.917   8.754 -0.7255  0.0257  0.4947
   74SLPC   H6R 6569   6.940   6.851   8.808  0.6165  0.6937 -0.4082
   74SLPC   H6S 6570   6.888   7.021   8.789  1.1636  0.4271 -1.5796
   74SLPC   C27 6571   6.890   6.909   8.599  0.1054  1.0528 -0.3490
   74SLPC   H7R 6572   6.823   6.828   8.563 -0.0045  0.8384  0.3240
   74SLPC   H7S 6573   6.997   6.885   8.580  0.1936 -0.8361  2.2414
   74SLPC   C28 6574   6.844   7.039   8.542  0.1587 -0.1185 -0.5964
   74SLPC   H8R 6575   6.911   7.120   8.578  3.6946 -1.6417 -3.4767
   74SLPC   H8S 6576   6.741   7.064   8.577  0.7024  1.4096 -0.0241
   74SLPC   C29 6577   6.834   7.033   8.394  0.2180  0.0897 -1.5264
   74SLPC   H9R 6578   6.755   6.959   8.375  1.1729 -0.8833 -1.7306
   74SLPC  C210 6579   6.908   7.094   8.301 -0.4737 -0.3671  0.3477
   74SLPC  H10R 6580   6.870   7.091   8.198 -0.5598  0.7893  0.3378
   74SLPC  C211 6581   7.029   7.180   8.330 -0.1536 -0.4354  0.3605
   74SLPC  H11R 6582   7.022   7.226   8.431  1.3036 -0.4279  0.4601
   74SLPC  H11S 6583   7.045   7.262   8.257  2.4179 -0.6587  0.6570
   74SLPC  C212 6584   7.152   7.091   8.340 -0.5574 -0.6795  0.6796
   74SLPC  H12R 6585   7.117   6.992   8.373 -3.5874 -0.9285 -2.9016
   74SLPC  C213 6586   7.279   7.114   8.303  0.0822  0.6462 -0.0559
   74SLPC  H13R 6587   7.354   7.033   8.300 -0.8148 -0.1661 -0.6068
   74SLPC  C214 6588   7.331   7.246   8.244  0.6160  0.1994 -0.2082
   74SLPC  H14R 6589   7.365   7.310   8.328 -0.9144 -1.1741  1.4889
   74SLPC  H14S 6590   7.245   7.297   8.195  0.4700 -0.9209 -1.1348
   74SLPC  C215 6591   7.458   7.235   8.157 -0.2973 -0.3153  0.1938
   74SLPC  H15R 6592   7.443   7.159   8.077 -1.0903 -1.4151  1.3705
   74SLPC  H15S 6593   7.547   7.207   8.217  0.5523 -0.7662 -1.2472
   74SLPC  C216 6594   7.477   7.370   8.084  0.1525 -0.1024  0.0214
   74SLPC  H16R 6595   7.484   7.450   8.161  0.4021  0.1071 -0.2184
   74SLPC  H16S 6596   7.388   7.392   8.022  0.5558 -0.0829 -0.5602
   74SLPC  C217 6597   7.613   7.383   8.002  0.7716 -0.6174 -0.1353
   74SLPC  H17R 6598   7.614   7.300   7.929 -1.3230 -0.3065 -0.5624
   74SLPC  H17S 6599   7.692   7.364   8.078  0.4208  1.6695  0.8408
   74SLPC  C218 6600   7.641   7.513   7.932 -0.1616 -0.6984 -0.5858
   74SLPC  H18R 6601   7.749   7.532   7.911  0.2309 -1.1810  0.8705
   74SLPC  H18S 6602   7.589   7.596   7.984  1.5236 -0.8904  1.5021
   74SLPC  H18T 6603   7.598   7.517   7.830 -1.2422  0.8938 -0.0719
   74SLPC   C33 6604   6.215   6.868   8.646 -0.1635  0.0564 -0.5461
   74SLPC   H3X 6605   6.249   6.973   8.637 -0.0767  0.1534  0.8562
   74SLPC   H3Y 6606   6.105   6.877   8.659 -0.2220  4.5051 -3.1132
   74SLPC   C34 6607   6.238   6.779   8.522 -0.9909 -0.5854  0.2019
   74SLPC   H4X 6608   6.191   6.819   8.430  0.5976 -1.7435 -1.1338
   74SLPC   H4Y 6609   6.189   6.680   8.529  0.1646 -1.1855 -0.0732
   74SLPC   C35 6610   6.388   6.765   8.494  0.4323 -0.2050  0.5212
   74SLPC   H5X 6611   6.395   6.714   8.396  1.4528 -0.2036  0.5892
   74SLPC   H5Y 6612   6.437   6.713   8.580  0.4873  0.4061  0.8664
   74SLPC   C36 6613   6.469   6.896   8.487  0.4184  0.2302  0.2025
   74SLPC   H6X 6614   6.573   6.875   8.455  0.4681 -0.6113  0.8871
   74SLPC   H6Y 6615   6.480   6.942   8.588 -2.3463 -0.3826  0.8422
   74SLPC   C37 6616   6.415   7.002   8.387  0.3806 -0.8365 -0.2421
   74SLPC   H7X 6617   6.489   7.083   8.403 -0.9206  0.5412 -1.0497
   74SLPC   H7Y 6618   6.319   7.043   8.426 -0.1138 -1.5559 -0.6925
   74SLPC   C38 6619   6.405   6.957   8.245 -1.4593 -0.6471  0.2955
   74SLPC   H8X 6620   6.332   6.874   8.238 -0.3745 -1.5292 -0.7966
   74SLPC   H8Y 6621   6.507   6.921   8.217 -1.7627 -1.2630 -0.0244
   74SLPC   C39 6622   6.367   7.061   8.140  0.5284 -0.7967  0.6482
   74SLPC   H9X 6623   6.292   7.131   8.183  0.0492 -1.0443  0.2165
   74SLPC   H9Y 6624   6.332   7.011   8.047 -2.1395  2.9206 -0.4687
   74SLPC  C310 6625   6.485   7.147   8.100 -0.2966 -0.5489 -0.6065
   74SLPC  H10X 6626   6.539   7.173   8.193 -0.4736 -0.1232 -0.6188
   74SLPC  H10Y 6627   6.463   7.242   8.045 -0.0861 -0.9637 -1.4201
   74SLPC  C311 6628   6.583   7.085   8.000 -0.4291  0.5398  0.7609
   74SLPC  H11X 6629   6.540   7.070   7.899  0.7222 -0.4531  0.3956
   74SLPC  H11Y 6630   6.627   6.989   8.036 -0.5775  0.8317  1.7591
   74SLPC  C312 6631   6.712   7.167   7.977  0.4732  0.6310  0.0031
   74SLPC  H12X 6632   6.735   7.224   8.069  1.0727 -0.0375  0.2699
   74SLPC  H12Y 6633   6.687   7.252   7.911  1.4546 -0.2321 -1.5109
   74SLPC  C313 6634   6.838   7.099   7.914  0.3188  0.2859 -0.3840
   74SLPC  H13X 6635   6.808   7.062   7.814 -0.0115 -1.0520  0.2005
   74SLPC  H13Y 6636   6.874   7.013   7.974  0.5378  0.5531 -0.1270
   74SLPC  C314 6637   6.957   7.196   7.893  0.3742  0.5039  0.4630
   74SLPC  H14X 6638   6.987   7.220   7.997  2.3650 -0.3791  0.1199
   74SLPC  H14Y 6639   6.923   7.297   7.861  1.9011  0.3654 -1.7700
   74SLPC  C315 6640   7.090   7.148   7.824 -0.0807 -0.1014 -0.2329
   74SLPC  H15X 6641   7.152   7.240   7.824 -1.4498  0.8413 -0.7151
   74SLPC  H15Y 6642   7.086   7.101   7.723 -1.1633  0.6398 -0.5425
   74SLPC  C316 6643   7.143   7.034   7.914  0.0991  0.3264  0.7025
   74SLPC  H16X 6644   7.064   6.957   7.925 -0.1787  0.5657  0.3950
   74SLPC  H16Y 6645   7.167   7.080   8.012  0.8163  0.7032  0.3602
   74SLPC  C317 6646   7.261   6.959   7.858  0.1487 -0.1807  0.0712
   74SLPC  H17X 6647   7.343   7.033   7.844 -0.6282  1.0701  1.8800
   74SLPC  H17Y 6648   7.236   6.921   7.757 -3.4690 -3.1810  1.9663
   74SLPC  C318 6649   7.312   6.851   7.959  0.2802 -0.3991  0.8159
   74SLPC  H18X 6650   7.406   6.806   7.922 -0.1021 -1.4302  1.0950
   74SLPC  H18Y 6651   7.239   6.768   7.965 -0.0183 -0.4772 -2.8415
   74SLPC  H18Z 6652   7.318   6.899   8.059  2.5452 -0.2030  0.6275
   75SLPC     N 6653   1.459   2.238   5.766 -0.2196  0.0801 -0.0402
   75SLPC   C13 6654   1.514   2.214   5.909  0.2736  0.7927  0.3921
   75SLPC  H13A 6655   1.463   2.130   5.955  0.4901  0.2908 -0.2736
   75SLPC  H13B 6656   1.614   2.175   5.903  0.4534  1.0613  1.6378
   75SLPC  H13C 6657   1.501   2.302   5.970 -1.5288  0.2548  0.8168
   75SLPC   C14 6658   1.472   2.113   5.682 -0.2151 -0.4662  0.8032
   75SLPC  H14A 6659   1.419   2.028   5.724 -1.6345 -0.5589 -1.0959
   75SLPC  H14B 6660   1.431   2.136   5.585  1.7914  2.4045  0.5871
   75SLPC  H14C 6661   1.575   2.083   5.679  0.0213  0.1461  2.4104
   75SLPC   C15 6662   1.555   2.342   5.712 -0.1054  0.4264 -0.1650
   75SLPC  H15A 6663   1.657   2.308   5.717 -0.3939 -0.5661 -0.7955
   75SLPC  H15B 6664   1.534   2.364   5.609  0.2619  0.4792 -0.2264
   75SLPC  H15C 6665   1.562   2.430   5.774 -1.1106  0.0351  0.5312
   75SLPC   C12 6666   1.319   2.291   5.760  0.0629 -0.0490  0.9285
   75SLPC  H12A 6667   1.243   2.215   5.757  0.2938 -0.2548  0.1749
   75SLPC  H12B 6668   1.321   2.364   5.680  0.3246  0.0277  1.0054
   75SLPC   C11 6669   1.282   2.376   5.882  0.3421 -0.5003  0.8147
   75SLPC  H11A 6670   1.300   2.319   5.975  2.0055 -0.1966  0.7046
   75SLPC  H11B 6671   1.173   2.391   5.866  0.6421  1.4806  0.5062
   75SLPC     P 6672   1.399   2.579   6.011  0.1248 -0.2054 -0.0744
   75SLPC   O13 6673   1.544   2.554   6.026 -0.0654  0.0874 -0.6836
   75SLPC   O14 6674   1.359   2.721   5.996 -0.7051  0.7228 -0.1530
   75SLPC   O12 6675   1.349   2.507   5.884 -0.2712  0.2314  0.0599
   75SLPC   O11 6676   1.315   2.518   6.133 -0.6303  0.0341  0.2385
   75SLPC    C1 6677   1.295   2.577   6.263 -0.0106 -0.6338  0.2378
   75SLPC    HA 6678   1.256   2.497   6.329 -1.0975  0.2898  0.7308
   75SLPC    HB 6679   1.393   2.614   6.300 -0.9894  1.2346  1.0557
   75SLPC    C2 6680   1.183   2.684   6.263 -0.2678 -0.3768 -0.2519
   75SLPC    HS 6681   1.224   2.765   6.199  0.7981 -0.1851  0.6577
   75SLPC   O21 6682   1.154   2.736   6.393  0.3080 -0.8091 -0.1107
   75SLPC   C21 6683   1.086   2.849   6.395 -0.2371  0.6324 -1.0553
   75SLPC   O22 6684   1.075   2.926   6.303 -0.2660 -0.0688  0.3098
   75SLPC   C22 6685   1.043   2.875   6.539 -0.1640  0.7242  0.4322
   75SLPC   H2R 6686   0.953   2.811   6.545  1.1858 -1.4843 -1.9765
   75SLPC   H2S 6687   1.119   2.828   6.605 -1.9321 -2.2330  0.4196
   75SLPC    C3 6688   1.058   2.622   6.195 -0.3558  0.7288  0.2145
   75SLPC    HX 6689   1.087   2.609   6.088 -0.5407 -0.3229  0.2861
   75SLPC    HY 6690   0.975   2.695   6.185 -1.4190 -0.4489  0.2716
   75SLPC   O31 6691   1.021   2.497   6.260  0.4253 -0.0148 -0.3009
   75SLPC   C31 6692   0.926   2.514   6.348  0.0413  0.0962  0.5680
   75SLPC   O32 6693   0.852   2.604   6.362 -0.0075  0.4371 -0.2070
   75SLPC   C32 6694   0.922   2.385   6.431 -0.0471  0.0276 -0.1502
   75SLPC   H2X 6695   1.016   2.330   6.408  0.5222  0.5662  0.8499
   75SLPC   H2Y 6696   0.831   2.332   6.396  0.0745 -1.3845  1.5872
   75SLPC   C23 6697   1.019   3.023   6.571 -0.9809  0.8934  0.0497
   75SLPC   H3R 6698   0.935   3.067   6.512 -2.0263  0.2824  1.0652
   75SLPC   H3S 6699   1.115   3.068   6.540  0.3105 -2.8326 -1.5824
   75SLPC   C24 6700   0.996   3.046   6.725 -0.1740 -0.4485  0.4838
   75SLPC   H4R 6701   1.093   3.050   6.779  1.4264 -1.4525 -2.2177
   75SLPC   H4S 6702   0.934   2.961   6.761 -0.9437  0.3008  0.9557
   75SLPC   C25 6703   0.933   3.178   6.750  0.1438 -0.2210 -0.2035
   75SLPC   H5R 6704   0.838   3.171   6.693  0.6515  2.5531 -1.4854
   75SLPC   H5S 6705   0.990   3.263   6.707 -0.1541 -0.4245 -1.0190
   75SLPC   C26 6706   0.897   3.204   6.900 -0.0528 -0.3665  0.4231
   75SLPC   H6R 6707   0.843   3.118   6.945  1.5355 -0.6895  1.7658
   75SLPC   H6S 6708   0.852   3.305   6.908  2.6891  1.0163 -0.7638
   75SLPC   C27 6709   1.021   3.230   6.983  0.3350 -0.3895 -0.6008
   75SLPC   H7R 6710   1.079   3.322   6.961  0.0266 -0.3046 -1.0593
   75SLPC   H7S 6711   1.098   3.152   6.968  0.3173 -0.1841 -1.7756
   75SLPC   C28 6712   0.987   3.232   7.133  0.1499  0.0177  0.1073
   75SLPC   H8R 6713   1.071   3.219   7.204 -1.3077 -1.9376  1.5453
   75SLPC   H8S 6714   0.926   3.140   7.150  2.1810 -0.8192  3.1597
   75SLPC   C29 6715   0.909   3.358   7.168  0.3654  1.0104  0.9799
   75SLPC   H9R 6716   0.816   3.361   7.110  2.2884 -0.3752 -2.2889
   75SLPC  C210 6717   0.924   3.445   7.268  0.3059 -0.1183  0.0198
   75SLPC  H10R 6718   0.840   3.509   7.300 -1.2276 -1.5408 -1.0284
   75SLPC  C211 6719   1.022   3.435   7.383 -0.2785  0.4362 -0.5375
   75SLPC  H11R 6720   1.089   3.346   7.391  1.6962  1.8584 -0.8748
   75SLPC  H11S 6721   0.960   3.451   7.473 -4.0544  2.3212 -3.3270
   75SLPC  C212 6722   1.126   3.543   7.348  0.1153  0.0161  0.1325
   75SLPC  H12R 6723   1.134   3.577   7.243  0.3144  1.6208  0.6485
   75SLPC  C213 6724   1.208   3.607   7.437 -0.1531  1.0751 -0.0749
   75SLPC  H13R 6725   1.270   3.687   7.394  0.4043  1.4721  1.4364
   75SLPC  C214 6726   1.212   3.569   7.583  0.0555 -0.1134  0.5774
   75SLPC  H14R 6727   1.165   3.471   7.610  0.1735 -0.6412 -1.1001
   75SLPC  H14S 6728   1.172   3.648   7.650 -2.3256  0.5920 -1.5893
   75SLPC  C215 6729   1.363   3.547   7.624  0.3361  0.5031  0.4365
   75SLPC  H15R 6730   1.357   3.539   7.735  2.3532  1.0351  0.6088
   75SLPC  H15S 6731   1.414   3.637   7.582  0.6108 -0.0500 -0.4125
   75SLPC  C216 6732   1.418   3.423   7.569 -0.9286  0.7273  0.6990
   75SLPC  H16R 6733   1.428   3.441   7.460  3.1838 -1.0550  0.7061
   75SLPC  H16S 6734   1.349   3.336   7.579  1.1227 -1.0964 -0.7496
   75SLPC  C217 6735   1.553   3.382   7.615 -0.4191 -0.4186  0.4562
   75SLPC  H17R 6736   1.586   3.451   7.695  0.7152 -2.8292  2.1162
   75SLPC  H17S 6737   1.624   3.377   7.530  0.0574  1.2068  0.7281
   75SLPC  C218 6738   1.559   3.256   7.700  0.0488 -0.4027 -0.4521
   75SLPC  H18R 6739   1.523   3.170   7.640 -0.0481  0.3730 -1.5323
   75SLPC  H18S 6740   1.480   3.266   7.777 -0.3231 -0.0734 -0.8661
   75SLPC  H18T 6741   1.657   3.252   7.752 -0.4844 -0.4661  0.5645
   75SLPC   C33 6742   0.912   2.423   6.583 -0.5686 -0.5722  0.6593
   75SLPC   H3X 6743   0.838   2.504   6.598 -0.3318 -0.2249 -0.0274
   75SLPC   H3Y 6744   0.870   2.335   6.637 -0.1051 -0.8493  0.5704
   75SLPC   C34 6745   1.039   2.481   6.652  0.3453  0.4834 -0.0103
   75SLPC   H4X 6746   1.005   2.521   6.750  1.5598  1.5206  0.0043
   75SLPC   H4Y 6747   1.075   2.566   6.590  0.6690 -0.8647 -1.7061
   75SLPC   C35 6748   1.151   2.380   6.679 -0.1875 -0.9181 -0.0339
   75SLPC   H5X 6749   1.185   2.338   6.582 -1.0602  0.6355 -1.0479
   75SLPC   H5Y 6750   1.104   2.305   6.745 -1.3837 -0.4631 -0.3475
   75SLPC   C36 6751   1.273   2.455   6.753  0.0695  0.6673 -0.2497
   75SLPC   H6X 6752   1.298   2.548   6.699  0.4991  0.0642 -1.1044
   75SLPC   H6Y 6753   1.358   2.387   6.730 -1.2293 -0.2429 -2.5357
   75SLPC   C37 6754   1.260   2.499   6.901 -0.3004  0.2429  0.5205
   75SLPC   H7X 6755   1.223   2.604   6.907  1.1899  0.7788  0.5033
   75SLPC   H7Y 6756   1.356   2.505   6.956 -0.2475  1.8142  0.2956
   75SLPC   C38 6757   1.168   2.408   6.985 -0.6595 -0.1343 -0.6087
   75SLPC   H8X 6758   1.206   2.304   6.994 -2.4898 -0.8046 -0.4257
   75SLPC   H8Y 6759   1.064   2.401   6.947 -1.1641  3.9521 -0.2202
   75SLPC   C39 6760   1.151   2.463   7.125 -0.3241  0.3990 -0.5099
   75SLPC   H9X 6761   1.054   2.423   7.162 -0.2482  0.7520  0.0730
   75SLPC   H9Y 6762   1.142   2.574   7.128 -1.1313  0.3215  0.0575
   75SLPC  C310 6763   1.272   2.433   7.208 -0.5952 -0.5573  0.0009
   75SLPC  H10X 6764   1.361   2.484   7.165 -1.9782  1.2634 -0.7513
   75SLPC  H10Y 6765   1.283   2.323   7.195 -0.3379 -0.4291 -0.8888
   75SLPC  C311 6766   1.251   2.473   7.360 -0.5646 -0.0024  0.6712
   75SLPC  H11X 6767   1.165   2.426   7.412 -1.1337  0.0153 -0.2538
   75SLPC  H11Y 6768   1.233   2.582   7.352 -4.2960 -0.5956  0.0477
   75SLPC  C312 6769   1.372   2.451   7.453 -0.1609  0.5160  0.5672
   75SLPC  H12X 6770   1.458   2.510   7.414 -0.3803  0.7523  0.4376
   75SLPC  H12Y 6771   1.390   2.343   7.473 -0.1547  0.4963  0.4529
   75SLPC  C313 6772   1.341   2.494   7.601 -0.5388  0.2978 -0.8910
   75SLPC  H13X 6773   1.307   2.600   7.599  3.8800  1.8825  1.4494
   75SLPC  H13Y 6774   1.436   2.496   7.659  0.2758 -0.6694 -2.1498
   75SLPC  C314 6775   1.238   2.404   7.676  0.6297  0.2428 -0.2753
   75SLPC  H14X 6776   1.262   2.300   7.647 -2.2457 -0.6655  0.4726
   75SLPC  H14Y 6777   1.138   2.430   7.636  0.2431 -1.9493 -0.7594
   75SLPC  C315 6778   1.260   2.415   7.827  0.0474 -0.0761  0.3729
   75SLPC  H15X 6779   1.253   2.520   7.863 -1.6335 -0.1267  0.2441
   75SLPC  H15Y 6780   1.355   2.376   7.868 -0.5502  1.3750  3.2579
   75SLPC  C316 6781   1.148   2.344   7.911  0.0358 -0.2719 -0.8177
   75SLPC  H16X 6782   1.145   2.235   7.892  1.7305 -0.2224 -1.4962
   75SLPC  H16Y 6783   1.052   2.375   7.864 -0.1180 -1.3319 -1.2265
   75SLPC  C317 6784   1.163   2.356   8.068 -0.6211 -0.7128 -0.1445
   75SLPC  H17X 6785   1.076   2.310   8.118 -1.4413 -1.3105 -2.0616
   75SLPC  H17Y 6786   1.178   2.463   8.094  3.0192 -1.4880  1.2062
   75SLPC  C318 6787   1.287   2.286   8.121  0.0188 -0.3204 -0.3341
   75SLPC  H18X 6788   1.290   2.180   8.087  1.5077 -0.8309  1.3231
   75SLPC  H18Y 6789   1.291   2.286   8.232  1.4815  0.9129 -0.3771
   75SLPC  H18Z 6790   1.376   2.344   8.089 -0.0614  0.7048  1.2411
   76SLPC     N 6791   1.802   0.893   5.722  0.2653 -0.3489 -0.1540
   76SLPC   C13 6792   1.920   0.965   5.660 -0.1088 -0.2164 -0.0546
   76SLPC  H13A 6793   1.959   1.035   5.733  2.3354 -1.3698 -0.2068
   76SLPC  H13B 6794   2.002   0.898   5.638 -0.7956 -0.5799 -1.5189
   76SLPC  H13C 6795   1.900   1.016   5.567 -2.0547 -2.1590 -0.7158
   76SLPC   C14 6796   1.748   0.782   5.645  0.2769  0.3095  0.0290
   76SLPC  H14A 6797   1.828   0.710   5.632  0.4609  0.5495 -0.1742
   76SLPC  H14B 6798   1.656   0.738   5.679 -0.0436 -0.3010 -1.5850
   76SLPC  H14C 6799   1.718   0.819   5.548 -0.6062  3.3586  1.3763
   76SLPC   C15 6800   1.695   0.993   5.741  0.8351  0.4659  0.2011
   76SLPC  H15A 6801   1.615   0.937   5.787  1.8504 -3.1663 -2.2809
   76SLPC  H15B 6802   1.732   1.076   5.800  0.4094 -0.2274  1.4532
   76SLPC  H15C 6803   1.667   1.033   5.645  1.0951  2.0684  0.7726
   76SLPC   C12 6804   1.845   0.846   5.856 -0.4304 -0.0480  0.1841
   76SLPC  H12A 6805   1.916   0.767   5.840 -0.8920 -0.7463  1.4649
   76SLPC  H12B 6806   1.759   0.794   5.897 -0.9149  1.1196  0.6648
   76SLPC   C11 6807   1.891   0.950   5.963 -0.4266  0.3685  0.7354
   76SLPC  H11A 6808   1.888   0.909   6.066 -1.0038  1.1814  1.0395
   76SLPC  H11B 6809   1.832   1.043   5.954 -0.7181  0.2851  1.6980
   76SLPC     P 6810   2.145   0.887   5.951  0.2277  0.2056  0.0456
   76SLPC   O13 6811   2.135   0.762   5.868  0.4052  0.2962 -0.5885
   76SLPC   O14 6812   2.274   0.960   5.942 -0.4460 -0.1082 -0.1145
   76SLPC   O12 6813   2.022   0.983   5.932 -0.2781 -0.2629 -0.3795
   76SLPC   O11 6814   2.118   0.854   6.098 -0.0453  0.0020 -0.2701
   76SLPC    C1 6815   2.210   0.775   6.172 -0.2847 -0.2239 -0.0852
   76SLPC    HA 6816   2.146   0.710   6.234  1.9439 -1.0484  1.4083
   76SLPC    HB 6817   2.265   0.707   6.103  0.8038 -0.0245  0.5749
   76SLPC    C2 6818   2.305   0.859   6.262  0.2272 -0.6118 -0.4733
   76SLPC    HS 6819   2.368   0.920   6.193  1.6729 -2.0516 -0.4452
   76SLPC   O21 6820   2.375   0.771   6.352  0.4614  0.0682 -0.7938
   76SLPC   C21 6821   2.471   0.701   6.296  0.2789 -0.1784  0.5299
   76SLPC   O22 6822   2.500   0.708   6.176 -0.3796  0.4325 -0.4176
   76SLPC   C22 6823   2.545   0.621   6.402  0.4979 -0.5552  0.1499
   76SLPC   H2R 6824   2.513   0.659   6.501 -1.7396  1.0494 -1.1138
   76SLPC   H2S 6825   2.515   0.515   6.387  1.6371 -0.8797  0.1705
   76SLPC    C3 6826   2.211   0.950   6.346 -0.0860 -0.3206  0.2758
   76SLPC    HX 6827   2.128   0.880   6.371  1.0703 -1.5710  0.6654
   76SLPC    HY 6828   2.165   1.031   6.286 -1.0040 -1.3967 -0.4914
   76SLPC   O31 6829   2.276   1.001   6.464 -0.0978 -0.2946  0.1489
   76SLPC   C31 6830   2.182   1.045   6.547  0.6099 -1.2477 -0.5668
   76SLPC   O32 6831   2.062   1.041   6.528  0.3732  0.0829  0.0867
   76SLPC   C32 6832   2.244   1.135   6.656  0.6124  0.7181  0.3311
   76SLPC   H2X 6833   2.237   1.231   6.600  1.7626 -0.2952 -1.6182
   76SLPC   H2Y 6834   2.352   1.109   6.663  0.9455  2.1877  0.7866
   76SLPC   C23 6835   2.702   0.625   6.373  0.9761 -0.8305 -0.3948
   76SLPC   H3R 6836   2.749   0.720   6.407  0.5643 -0.1788 -1.6269
   76SLPC   H3S 6837   2.730   0.636   6.266 -0.3452 -1.8861 -0.8667
   76SLPC   C24 6838   2.780   0.510   6.430 -0.3055 -0.1907 -0.8248
   76SLPC   H4R 6839   2.745   0.408   6.405 -1.4996 -0.0577  0.2796
   76SLPC   H4S 6840   2.766   0.523   6.539 -1.7995 -1.4817 -0.8496
   76SLPC   C25 6841   2.922   0.527   6.413  0.2138  0.2252  0.1278
   76SLPC   H5R 6842   2.951   0.633   6.426 -0.2829  0.2408  1.1745
   76SLPC   H5S 6843   2.962   0.511   6.311  2.5176 -0.3671  1.0767
   76SLPC   C26 6844   3.009   0.446   6.521  0.0881 -0.0679  0.9077
   76SLPC   H6R 6845   3.010   0.340   6.490  0.5316 -0.3649  1.9335
   76SLPC   H6S 6846   2.965   0.442   6.623  0.5981 -1.8550  1.0661
   76SLPC   C27 6847   3.158   0.498   6.533  0.1030  0.0209  0.2061
   76SLPC   H7R 6848   3.165   0.578   6.610  0.1045 -0.6983  0.9615
   76SLPC   H7S 6849   3.193   0.550   6.442  0.7823  0.5467  0.7615
   76SLPC   C28 6850   3.258   0.386   6.579  0.1140  0.6185 -1.1173
   76SLPC   H8R 6851   3.214   0.329   6.663  1.0895 -0.7716 -1.5283
   76SLPC   H8S 6852   3.255   0.303   6.505  0.1668 -2.4601  2.2211
   76SLPC   C29 6853   3.397   0.435   6.606  0.3995  0.5137 -0.6054
   76SLPC   H9R 6854   3.472   0.415   6.529  3.7973  2.2817  2.1185
   76SLPC  C210 6855   3.442   0.489   6.724 -0.1733  0.6680 -0.0395
   76SLPC  H10R 6856   3.549   0.510   6.739  0.3566 -1.4460 -0.5590
   76SLPC  C211 6857   3.354   0.518   6.845  0.2197  0.1957 -0.0640
   76SLPC  H11R 6858   3.251   0.536   6.809  0.3322  0.8071 -0.0723
   76SLPC  H11S 6859   3.380   0.614   6.895  3.5518 -0.6704  0.0074
   76SLPC  C212 6860   3.349   0.402   6.944  0.0573  0.0292  0.3592
   76SLPC  H12R 6861   3.327   0.310   6.888  0.0504 -0.9074  1.9048
   76SLPC  C213 6862   3.374   0.409   7.074  0.0772  0.4616 -0.0791
   76SLPC  H13R 6863   3.387   0.320   7.138  2.0946  0.8105  0.0409
   76SLPC  C214 6864   3.417   0.537   7.139 -0.5823  0.4261 -0.2600
   76SLPC  H14R 6865   3.341   0.612   7.109 -1.2907 -0.1761  0.0019
   76SLPC  H14S 6866   3.516   0.571   7.103 -0.9072 -0.0736 -1.6463
   76SLPC  C215 6867   3.414   0.515   7.293 -0.1785 -0.4935  0.0562
   76SLPC  H15R 6868   3.428   0.611   7.348  0.8008 -0.8482  0.4402
   76SLPC  H15S 6869   3.501   0.460   7.334 -1.0830 -0.9826  1.3873
   76SLPC  C216 6870   3.281   0.457   7.347  0.0166 -0.2329 -0.5201
   76SLPC  H16R 6871   3.263   0.351   7.322  3.6575 -0.9122 -0.5926
   76SLPC  H16S 6872   3.197   0.518   7.306 -1.4122 -0.9837  1.2258
   76SLPC  C217 6873   3.259   0.491   7.500 -0.2319  0.0626  0.5539
   76SLPC  H17R 6874   3.153   0.474   7.531  0.3702  0.3571  2.8324
   76SLPC  H17S 6875   3.273   0.599   7.519  0.3698  0.3384 -1.4312
   76SLPC  C218 6876   3.358   0.415   7.588 -0.5387 -0.0996 -0.5314
   76SLPC  H18R 6877   3.368   0.463   7.688 -0.0645 -1.9609  0.3455
   76SLPC  H18S 6878   3.461   0.394   7.554 -0.1654  0.8108  0.0087
   76SLPC  H18T 6879   3.324   0.311   7.610 -0.1781 -0.2002 -0.4434
   76SLPC   C33 6880   2.161   1.133   6.784 -0.4562 -0.1772  0.7978
   76SLPC   H3X 6881   2.166   1.031   6.828  1.4811 -0.6624 -0.4668
   76SLPC   H3Y 6882   2.060   1.173   6.762 -0.1284 -0.6569 -1.7546
   76SLPC   C34 6883   2.232   1.225   6.887 -0.2843  0.5766 -0.2535
   76SLPC   H4X 6884   2.211   1.332   6.866 -0.7720  0.8500  1.5786
   76SLPC   H4Y 6885   2.338   1.193   6.890 -0.9805 -1.7427  1.4995
   76SLPC   C35 6886   2.184   1.185   7.023 -0.2690  0.0615 -0.9251
   76SLPC   H5X 6887   2.203   1.076   7.034 -1.1942  0.1106  1.2318
   76SLPC   H5Y 6888   2.075   1.206   7.021 -0.2638  0.2952  0.8751
   76SLPC   C36 6889   2.254   1.264   7.134 -0.7035 -0.3051 -0.4350
   76SLPC   H6X 6890   2.244   1.371   7.103  1.3016  0.6322  2.0140
   76SLPC   H6Y 6891   2.361   1.236   7.128 -0.8132 -0.8834  0.2025
   76SLPC   C37 6892   2.192   1.249   7.274  0.6916  0.1036  0.6683
   76SLPC   H7X 6893   2.228   1.150   7.311  1.8679  1.0158  2.0077
   76SLPC   H7Y 6894   2.082   1.250   7.258  1.1057  0.2629 -2.3854
   76SLPC   C38 6895   2.228   1.362   7.368  0.3019  0.5462  0.5124
   76SLPC   H8X 6896   2.169   1.353   7.462  0.5370 -2.2352  0.4398
   76SLPC   H8Y 6897   2.200   1.454   7.313  0.7372 -0.3396 -1.2475
   76SLPC   C39 6898   2.376   1.366   7.407  0.1910  0.0443 -0.3679
   76SLPC   H9X 6899   2.388   1.459   7.467  1.0870 -1.0020  1.0946
   76SLPC   H9Y 6900   2.432   1.395   7.315  0.1441 -1.7515 -0.9703
   76SLPC  C310 6901   2.432   1.251   7.485 -0.0479 -0.3772  0.0373
   76SLPC  H10X 6902   2.414   1.164   7.418  0.6637 -0.4567 -0.0473
   76SLPC  H10Y 6903   2.374   1.235   7.579 -0.8408  1.1184 -0.1775
   76SLPC  C311 6904   2.581   1.241   7.507  0.2811 -0.0274  0.2750
   76SLPC  H11X 6905   2.595   1.143   7.557  1.1743 -0.2550 -0.4115
   76SLPC  H11Y 6906   2.602   1.322   7.581 -0.7092 -0.1339  0.6845
   76SLPC  C312 6907   2.667   1.229   7.377  0.2764  0.2450  0.2519
   76SLPC  H12X 6908   2.775   1.225   7.405  0.5909 -1.6918 -1.1734
   76SLPC  H12Y 6909   2.645   1.324   7.324 -3.6672 -0.2991  0.7827
   76SLPC  C313 6910   2.630   1.116   7.280  0.6714  0.0501 -0.6111
   76SLPC  H13X 6911   2.519   1.115   7.272  0.3959  0.7427  2.5940
   76SLPC  H13Y 6912   2.668   1.016   7.310  0.5715  0.1167 -0.2661
   76SLPC  C314 6913   2.693   1.138   7.142  0.5191 -0.2085 -0.4244
   76SLPC  H14X 6914   2.795   1.094   7.145  0.1147 -1.3887 -3.0380
   76SLPC  H14Y 6915   2.697   1.242   7.104 -0.5751 -0.3708 -0.9946
   76SLPC  C315 6916   2.622   1.063   7.035 -0.4116 -0.0319 -0.2486
   76SLPC  H15X 6917   2.526   1.112   7.012  0.0163  0.8263 -0.2177
   76SLPC  H15Y 6918   2.611   0.956   7.063  1.5256 -0.0548  0.5204
   76SLPC  C316 6919   2.709   1.063   6.901 -0.1822 -0.1583 -0.1991
   76SLPC  H16X 6920   2.794   0.991   6.902  2.1074  2.4760  1.3367
   76SLPC  H16Y 6921   2.757   1.163   6.896 -0.0930 -0.1168  1.3126
   76SLPC  C317 6922   2.625   1.044   6.777 -0.1168  0.1132 -0.6597
   76SLPC  H17X 6923   2.678   1.043   6.680 -1.9766 -1.8377 -1.7248
   76SLPC  H17Y 6924   2.537   1.113   6.778 -0.3317 -0.0453 -4.1460
   76SLPC  C318 6925   2.566   0.906   6.771 -0.1709  0.9592 -0.0208
   76SLPC  H18X 6926   2.488   0.894   6.849  0.1397 -1.2035  0.0035
   76SLPC  H18Y 6927   2.646   0.828   6.776 -1.3212 -0.1576  1.7002
   76SLPC  H18Z 6928   2.521   0.881   6.673 -0.7168  0.6708  0.3001
   77SLPC     N 6929   5.780   1.611   5.679 -0.4011  0.0901  0.0350
   77SLPC   C13 6930   5.859   1.630   5.802 -0.4469 -0.3269 -0.0807
   77SLPC  H13A 6931   5.960   1.604   5.773 -1.1166 -3.0123 -0.1090
   77SLPC  H13B 6932   5.859   1.733   5.836 -1.0029 -0.7876  1.3546
   77SLPC  H13C 6933   5.844   1.568   5.889 -0.6059 -0.9426 -0.5418
   77SLPC   C14 6934   5.810   1.732   5.599  0.2736 -0.2580  0.5029
   77SLPC  H14A 6935   5.790   1.825   5.650  0.6365  0.4288 -0.5879
   77SLPC  H14B 6936   5.916   1.749   5.584 -0.1238  1.0316 -0.9694
   77SLPC  H14C 6937   5.754   1.738   5.507  1.3119  1.2816 -0.0414
   77SLPC   C15 6938   5.638   1.621   5.724 -0.0529  0.0998 -1.3616
   77SLPC  H15A 6939   5.624   1.707   5.787  0.9896  0.2856 -1.3829
   77SLPC  H15B 6940   5.570   1.624   5.640 -2.9885 -2.4482  0.8025
   77SLPC  H15C 6941   5.614   1.540   5.791  0.9132  1.2630  0.4352
   77SLPC   C12 6942   5.814   1.483   5.603 -0.1986 -0.3184 -0.1210
   77SLPC  H12A 6943   5.921   1.486   5.595 -0.2551 -1.1050 -1.3927
   77SLPC  H12B 6944   5.763   1.493   5.508 -2.8529  0.5801  1.3411
   77SLPC   C11 6945   5.790   1.344   5.671  0.2341 -0.4410 -0.3775
   77SLPC  H11A 6946   5.839   1.263   5.611 -1.7730 -3.0101  1.3242
   77SLPC  H11B 6947   5.680   1.332   5.667  0.0042  1.5476 -0.3359
   77SLPC     P 6948   6.004   1.310   5.810 -0.8881 -0.1115 -0.3938
   77SLPC   O13 6949   6.030   1.174   5.758  0.3919  0.4249  0.4292
   77SLPC   O14 6950   6.076   1.419   5.740  0.1328  0.3286  0.2557
   77SLPC   O12 6951   5.850   1.342   5.806 -0.4814  0.0785 -0.0072
   77SLPC   O11 6952   6.041   1.299   5.964 -0.4640 -0.0701 -0.7058
   77SLPC    C1 6953   5.952   1.249   6.067 -0.2001 -0.5036 -0.1481
   77SLPC    HA 6954   5.856   1.305   6.065  0.1113 -0.0116 -1.9517
   77SLPC    HB 6955   5.933   1.142   6.045 -2.1327 -1.2901  4.6666
   77SLPC    C2 6956   6.005   1.256   6.221 -0.6708  0.6405  0.3191
   77SLPC    HS 6957   6.082   1.179   6.242 -0.4363  0.8579  0.2739
   77SLPC   O21 6958   5.898   1.251   6.311 -0.2169 -0.6297  0.1352
   77SLPC   C21 6959   5.837   1.131   6.315 -0.0133  0.3885  0.7502
   77SLPC   O22 6960   5.876   1.033   6.249  0.2413 -0.6388 -0.2670
   77SLPC   C22 6961   5.720   1.133   6.400 -0.2382  0.0469 -0.1172
   77SLPC   H2R 6962   5.651   1.218   6.379 -0.4160 -0.0301  0.1485
   77SLPC   H2S 6963   5.664   1.039   6.381 -0.6239 -0.3349  2.6911
   77SLPC    C3 6964   6.067   1.394   6.245  0.1351 -0.1383  0.2361
   77SLPC    HX 6965   5.987   1.471   6.241  2.2139  2.1436  1.5163
   77SLPC    HY 6966   6.135   1.423   6.162 -0.0388  1.9016  0.7976
   77SLPC   O31 6967   6.131   1.394   6.370 -0.6173 -0.2599  0.6619
   77SLPC   C31 6968   6.260   1.352   6.375 -0.7834  0.3349  0.1453
   77SLPC   O32 6969   6.317   1.289   6.287  0.3250  0.3429 -0.3866
   77SLPC   C32 6970   6.318   1.400   6.506  0.3184  0.2626  0.4570
   77SLPC   H2X 6971   6.292   1.507   6.517 -0.7710  0.0408  0.0556
   77SLPC   H2Y 6972   6.429   1.391   6.510  0.3459 -0.6676 -1.9378
   77SLPC   C23 6973   5.751   1.118   6.555 -0.1158 -0.1404 -0.2355
   77SLPC   H3R 6974   5.808   1.024   6.572  1.0334  0.3196 -1.4842
   77SLPC   H3S 6975   5.655   1.102   6.610  0.5381 -2.1201  0.3751
   77SLPC   C24 6976   5.803   1.244   6.624  0.4111 -0.5737  0.2638
   77SLPC   H4R 6977   5.736   1.329   6.597 -0.5875 -1.3974  0.1028
   77SLPC   H4S 6978   5.904   1.268   6.584 -0.5508  0.7189 -1.4665
   77SLPC   C25 6979   5.800   1.244   6.778 -0.6187  0.3981 -0.4521
   77SLPC   H5R 6980   5.847   1.337   6.816  1.5927 -0.9203  0.1040
   77SLPC   H5S 6981   5.858   1.160   6.822 -0.3144 -0.2200 -2.0194
   77SLPC   C26 6982   5.663   1.227   6.841 -0.8376  0.2035 -0.3544
   77SLPC   H6R 6983   5.631   1.121   6.835  1.0458 -0.4164  0.3399
   77SLPC   H6S 6984   5.604   1.298   6.778  0.6734  0.2123 -1.7806
   77SLPC   C27 6985   5.646   1.287   6.984 -0.2784  0.1951 -0.5233
   77SLPC   H7R 6986   5.708   1.379   6.984 -0.0648  0.0650  1.2587
   77SLPC   H7S 6987   5.703   1.229   7.060 -0.2887 -0.2773 -0.8730
   77SLPC   C28 6988   5.502   1.297   7.043 -0.1597  0.2493 -0.7155
   77SLPC   H8R 6989   5.438   1.355   6.973  0.9165  0.8687 -1.2063
   77SLPC   H8S 6990   5.517   1.369   7.126  0.6607 -0.7179 -0.0145
   77SLPC   C29 6991   5.437   1.167   7.077  0.0967 -0.7509 -0.0648
   77SLPC   H9R 6992   5.486   1.079   7.032  0.3888  0.5352 -2.3545
   77SLPC  C210 6993   5.336   1.154   7.165 -0.6430 -0.0441 -0.5167
   77SLPC  H10R 6994   5.272   1.066   7.151  0.1742 -0.9616  1.2890
   77SLPC  C211 6995   5.275   1.257   7.254  0.7709  0.2387 -1.1374
   77SLPC  H11R 6996   5.165   1.242   7.259  0.7430  0.1052 -2.1129
   77SLPC  H11S 6997   5.283   1.357   7.205 -1.2265  1.5580  1.0844
   77SLPC  C212 6998   5.357   1.263   7.377 -0.6044 -0.3052 -0.1006
   77SLPC  H12R 6999   5.460   1.302   7.375  0.1111 -2.1752 -0.5442
   77SLPC  C213 7000   5.318   1.221   7.501 -0.0971  0.2791  0.7225
   77SLPC  H13R 7001   5.384   1.256   7.582  3.3129 -1.9015 -0.9937
   77SLPC  C214 7002   5.186   1.163   7.549  0.6369 -0.5249 -0.1812
   77SLPC  H14R 7003   5.192   1.072   7.612  1.6481 -0.0072  0.4892
   77SLPC  H14S 7004   5.127   1.134   7.459 -1.5307  0.0343  1.0536
   77SLPC  C215 7005   5.104   1.256   7.644 -0.2441 -0.7907  0.2737
   77SLPC  H15R 7006   5.002   1.216   7.661  0.2510 -2.3059 -0.2413
   77SLPC  H15S 7007   5.094   1.350   7.585 -0.8130 -1.8212 -1.3073
   77SLPC  C216 7008   5.173   1.277   7.781  0.0516  0.3908 -0.2182
   77SLPC  H16R 7009   5.276   1.315   7.766  0.6909 -0.4568  1.7788
   77SLPC  H16S 7010   5.188   1.175   7.823 -0.2217 -1.0397 -3.4775
   77SLPC  C217 7011   5.088   1.355   7.884 -0.2156 -0.5838 -0.0992
   77SLPC  H17R 7012   4.990   1.303   7.892 -0.9949  0.9198  0.4872
   77SLPC  H17S 7013   5.080   1.463   7.856 -1.5119 -0.5838  0.2430
   77SLPC  C218 7014   5.150   1.338   8.023  0.5474 -0.1992  0.2584
   77SLPC  H18R 7015   5.151   1.230   8.051 -2.3379 -0.4273 -0.3901
   77SLPC  H18S 7016   5.095   1.399   8.098 -0.3273 -1.4487  0.6531
   77SLPC  H18T 7017   5.258   1.362   8.015  0.2558  0.8252 -0.6238
   77SLPC   C33 7018   6.243   1.318   6.619 -0.1962 -0.5724  0.1634
   77SLPC   H3X 7019   6.301   1.224   6.632 -2.5981 -2.0447  0.3857
   77SLPC   H3Y 7020   6.136   1.301   6.596  0.0617 -2.2356  0.1566
   77SLPC   C34 7021   6.236   1.395   6.755 -0.5489  0.1792  0.1475
   77SLPC   H4X 7022   6.176   1.488   6.747  1.2443  1.6353  2.8192
   77SLPC   H4Y 7023   6.335   1.439   6.782 -1.5149  1.4986  1.5922
   77SLPC   C35 7024   6.167   1.310   6.863  0.0177  0.3207  0.2877
   77SLPC   H5X 7025   6.219   1.213   6.879 -1.7555 -0.6261  0.4379
   77SLPC   H5Y 7026   6.065   1.283   6.827 -1.5336  2.9270  2.5803
   77SLPC   C36 7027   6.161   1.386   6.995 -0.0246 -0.2920 -0.3732
   77SLPC   H6X 7028   6.224   1.477   7.004  0.0573 -0.3589 -0.2568
   77SLPC   H6Y 7029   6.224   1.313   7.051  1.5188  0.1614 -1.4913
   77SLPC   C37 7030   6.020   1.400   7.058 -0.0415 -0.2741  0.3600
   77SLPC   H7X 7031   5.957   1.309   7.046 -1.1330  0.6163 -0.8668
   77SLPC   H7Y 7032   5.973   1.489   7.011  1.5120  0.2491 -0.2495
   77SLPC   C38 7033   6.027   1.425   7.205  0.8770  1.3736  0.0883
   77SLPC   H8X 7034   6.082   1.514   7.241  0.6358  0.9321  1.5667
   77SLPC   H8Y 7035   6.083   1.342   7.251  1.8330  1.2292 -1.3149
   77SLPC   C39 7036   5.892   1.433   7.268 -0.0979 -0.2291  0.8848
   77SLPC   H9X 7037   5.836   1.353   7.216  0.5774  0.2499 -0.5921
   77SLPC   H9Y 7038   5.855   1.534   7.238 -0.1366 -0.2296  0.9300
   77SLPC  C310 7039   5.895   1.416   7.424  0.3854 -0.5025  0.8742
   77SLPC  H10X 7040   5.957   1.332   7.462  0.8710 -1.1270 -1.2133
   77SLPC  H10Y 7041   5.795   1.376   7.451  0.2273  0.4907  1.7868
   77SLPC  C311 7042   5.923   1.546   7.510 -0.2896  0.2756  0.2932
   77SLPC  H11X 7043   5.839   1.619   7.510  1.9301  2.9319 -1.8953
   77SLPC  H11Y 7044   6.017   1.588   7.470  0.1663  0.7648  1.8501
   77SLPC  C312 7045   5.938   1.521   7.661  0.6602 -1.2460 -0.3441
   77SLPC  H12X 7046   5.983   1.422   7.679  0.7484 -0.9419  1.1686
   77SLPC  H12Y 7047   5.837   1.527   7.708  0.8663 -0.5888  0.0241
   77SLPC  C313 7048   6.019   1.633   7.712 -0.0695 -0.1039 -0.2598
   77SLPC  H13X 7049   5.990   1.728   7.663 -1.4985  0.4449  1.5896
   77SLPC  H13Y 7050   6.126   1.622   7.683  1.1020  4.7986  1.6937
   77SLPC  C314 7051   6.003   1.633   7.866  0.0952 -0.4515  0.0751
   77SLPC  H14X 7052   5.893   1.632   7.884  0.1372  1.9126  0.6430
   77SLPC  H14Y 7053   6.035   1.731   7.909 -1.2700 -0.9927  2.4580
   77SLPC  C315 7054   6.070   1.510   7.939 -0.3282 -0.2967  0.0859
   77SLPC  H15X 7055   6.179   1.501   7.916 -0.5198 -1.6666 -0.3469
   77SLPC  H15Y 7056   6.010   1.426   7.900 -2.8366  1.8758 -0.8367
   77SLPC  C316 7057   6.061   1.505   8.090 -0.1383 -0.3324  0.3563
   77SLPC  H16X 7058   6.084   1.405   8.133  0.9019 -1.1372 -1.9485
   77SLPC  H16Y 7059   5.961   1.535   8.126  0.4605  1.3853  0.6510
   77SLPC  C317 7060   6.163   1.601   8.156 -0.8063  0.5507 -0.0789
   77SLPC  H17X 7061   6.127   1.704   8.130 -1.0554  0.7198  0.9403
   77SLPC  H17Y 7062   6.263   1.576   8.116 -0.1660  0.2304  1.6892
   77SLPC  C318 7063   6.148   1.601   8.310 -0.4925  0.3013  0.6751
   77SLPC  H18X 7064   6.223   1.670   8.356 -0.2523 -0.2613  1.1352
   77SLPC  H18Y 7065   6.159   1.498   8.351 -1.0637 -0.7800 -1.7952
   77SLPC  H18Z 7066   6.044   1.623   8.343 -0.9304 -2.0876  0.9683
   78SLPC     N 7067   1.184   0.938   5.889  0.5461 -0.1266  0.1078
   78SLPC   C13 7068   1.085   0.820   5.869  0.3521 -0.2841  0.7908
   78SLPC  H13A 7069   1.061   0.771   5.963 -3.7490  1.1159  0.5539
   78SLPC  H13B 7070   0.995   0.859   5.825  1.0871  1.1100  0.5083
   78SLPC  H13C 7071   1.126   0.747   5.801 -1.1136  1.2085 -1.7219
   78SLPC   C14 7072   1.129   1.038   5.976  0.2026  0.7074  0.1595
   78SLPC  H14A 7073   1.199   1.117   5.994  0.8000 -0.0435  1.1612
   78SLPC  H14B 7074   1.037   1.079   5.936  0.7261  1.9103  0.1706
   78SLPC  H14C 7075   1.096   0.992   6.068 -1.3929 -1.3607 -1.3631
   78SLPC   C15 7076   1.219   0.982   5.751 -0.6560  0.3144  0.5423
   78SLPC  H15A 7077   1.292   1.060   5.757 -0.3053  0.1928 -1.9225
   78SLPC  H15B 7078   1.256   0.907   5.682 -1.1884  1.1986 -0.7165
   78SLPC  H15C 7079   1.137   1.034   5.704 -0.0012  0.3683 -0.5568
   78SLPC   C12 7080   1.320   0.881   5.950  0.1885  0.2214  0.1120
   78SLPC  H12A 7081   1.397   0.957   5.946  0.5764  0.2025  4.2538
   78SLPC  H12B 7082   1.360   0.802   5.889 -0.5116  0.0224 -0.0895
   78SLPC   C11 7083   1.304   0.813   6.092  0.5487  0.3718 -0.1111
   78SLPC  H11A 7084   1.266   0.889   6.163  0.5131 -0.0082  0.2766
   78SLPC  H11B 7085   1.398   0.783   6.142  1.1452  0.2661 -1.2714
   78SLPC     P 7086   1.235   0.561   6.048 -0.0124  0.0343  0.0585
   78SLPC   O13 7087   1.111   0.499   5.990 -0.4755  0.5306 -0.0824
   78SLPC   O14 7088   1.366   0.545   5.979  0.2690  0.4254 -0.3000
   78SLPC   O12 7089   1.206   0.707   6.089 -0.3786 -0.1540  0.2517
   78SLPC   O11 7090   1.253   0.497   6.193  0.3068  0.2996 -0.2901
   78SLPC    C1 7091   1.135   0.469   6.272 -0.9692  0.1725  0.8585
   78SLPC    HA 7092   1.070   0.396   6.219 -0.6340  0.4507  0.0664
   78SLPC    HB 7093   1.172   0.413   6.360 -1.4760 -2.4522 -0.5446
   78SLPC    C2 7094   1.057   0.597   6.324  0.1720  0.5250 -0.3118
   78SLPC    HS 7095   1.026   0.649   6.231  0.1482  0.0178 -0.5922
   78SLPC   O21 7096   1.136   0.682   6.411  0.0261 -0.3927 -0.1761
   78SLPC   C21 7097   1.092   0.804   6.429 -0.5499 -0.0665  0.3129
   78SLPC   O22 7098   1.005   0.858   6.365  0.1362 -0.1459 -0.1458
   78SLPC   C22 7099   1.181   0.871   6.540 -0.0570  0.0789  0.2260
   78SLPC   H2R 7100   1.257   0.801   6.580 -0.1582  0.0615  0.3867
   78SLPC   H2S 7101   1.236   0.958   6.500  1.3823 -0.1674  1.6334
   78SLPC    C3 7102   0.922   0.555   6.388  0.2446  0.3984 -0.3473
   78SLPC    HX 7103   0.854   0.511   6.312  0.2162 -1.8049  0.9093
   78SLPC    HY 7104   0.878   0.651   6.423  0.0162  0.1811 -0.0359
   78SLPC   O31 7105   0.932   0.456   6.499 -0.0435  0.6632  0.3014
   78SLPC   C31 7106   0.950   0.513   6.614  1.1568  0.1243  0.3623
   78SLPC   O32 7107   0.960   0.632   6.633 -0.3373 -0.5920  1.2202
   78SLPC   C32 7108   0.953   0.411   6.734 -0.6057 -0.1081  0.4367
   78SLPC   H2X 7109   1.012   0.320   6.710  0.5369  0.4293  1.1387
   78SLPC   H2Y 7110   0.847   0.381   6.750 -0.5040 -1.0685 -0.6397
   78SLPC   C23 7111   1.093   0.928   6.655  0.4335 -0.0728 -0.1572
   78SLPC   H3R 7112   1.056   0.844   6.717  1.9590 -1.2366 -0.7789
   78SLPC   H3S 7113   1.012   0.985   6.606  1.2112  1.9597  0.8632
   78SLPC   C24 7114   1.180   1.014   6.751 -0.3414 -0.3478  0.0596
   78SLPC   H4R 7115   1.220   1.099   6.693  1.1019 -1.8900 -1.2220
   78SLPC   H4S 7116   1.265   0.954   6.790  2.3811  3.3824  0.1041
   78SLPC   C25 7117   1.116   1.064   6.881  0.0055 -0.2005 -0.6933
   78SLPC   H5R 7118   1.192   1.130   6.929 -0.4119  0.0366 -0.3500
   78SLPC   H5S 7119   1.095   0.978   6.948  0.9400  0.8719  1.0193
   78SLPC   C26 7120   0.984   1.141   6.855  0.4631  0.1395  0.3467
   78SLPC   H6R 7121   0.901   1.073   6.827 -0.5103  1.6386 -0.5104
   78SLPC   H6S 7122   0.991   1.220   6.777  0.0020  0.1915  0.3595
   78SLPC   C27 7123   0.947   1.225   6.981 -0.0923 -0.3471  0.9710
   78SLPC   H7R 7124   0.848   1.268   6.955  0.0162  0.1688  1.4002
   78SLPC   H7S 7125   1.012   1.314   6.998  0.3969 -0.7353  1.1355
   78SLPC   C28 7126   0.933   1.141   7.108 -0.0497 -0.3404  0.0131
   78SLPC   H8R 7127   1.037   1.122   7.142  1.5250  4.6109 -1.6418
   78SLPC   H8S 7128   0.880   1.044   7.096 -1.9260  0.7215 -0.5252
   78SLPC   C29 7129   0.864   1.225   7.220 -0.1047 -0.5494 -0.1995
   78SLPC   H9R 7130   0.923   1.307   7.263 -2.7798  0.8060  1.0208
   78SLPC  C210 7131   0.749   1.198   7.282 -0.6088  0.6491 -0.0932
   78SLPC  H10R 7132   0.713   1.275   7.351  1.6072  3.3515 -1.8188
   78SLPC  C211 7133   0.669   1.073   7.262  0.8273 -0.3374  0.8088
   78SLPC  H11R 7134   0.690   1.029   7.162  0.0431  0.4676  0.2914
   78SLPC  H11S 7135   0.565   1.109   7.249  0.8059 -0.6390  0.1170
   78SLPC  C212 7136   0.673   0.958   7.364  0.7068  0.5283 -0.4393
   78SLPC  H12R 7137   0.774   0.913   7.364 -0.1506 -1.4421  0.3034
   78SLPC  C213 7138   0.571   0.934   7.452  0.4158 -0.0741 -0.9299
   78SLPC  H13R 7139   0.596   0.858   7.528  1.1074  1.2202  0.1667
   78SLPC  C214 7140   0.444   1.015   7.474  0.5378  0.2095 -0.0738
   78SLPC  H14R 7141   0.439   1.114   7.422 -2.3128 -0.1662 -0.5852
   78SLPC  H14S 7142   0.450   1.055   7.577  0.3784 -0.5004  0.2089
   78SLPC  C215 7143   0.305   0.944   7.457 -0.0150  0.2396  0.1547
   78SLPC  H15R 7144   0.219   1.009   7.483 -2.3089 -3.0222  1.0137
   78SLPC  H15S 7145   0.309   0.861   7.532 -0.4095 -0.6286 -0.7678
   78SLPC  C216 7146   0.282   0.897   7.313  0.1586 -0.1408  0.3307
   78SLPC  H16R 7147   0.184   0.845   7.307 -0.4494  0.8860  1.0277
   78SLPC  H16S 7148   0.354   0.816   7.290  0.7831  0.5960 -0.3363
   78SLPC  C217 7149   0.275   1.003   7.205  0.5017  0.3909 -0.3013
   78SLPC  H17R 7150   0.374   1.049   7.183 -0.6204  1.0103 -4.4426
   78SLPC  H17S 7151   0.211   1.085   7.243 -0.5960 -0.8830  0.6625
   78SLPC  C218 7152   0.228   0.936   7.069 -0.9129 -0.4878  0.4502
   78SLPC  H18R 7153   0.282   0.839   7.065 -0.4791 -0.2582  0.7291
   78SLPC  H18S 7154   0.272   0.999   6.989 -0.8403 -0.9671  0.1110
   78SLPC  H18T 7155   0.123   0.900   7.058 -1.2582  0.0796  1.8228
   78SLPC   C33 7156   1.023   0.472   6.858 -0.3026  0.7008  0.3272
   78SLPC   H3X 7157   0.985   0.576   6.871  0.4691  0.7403  2.3315
   78SLPC   H3Y 7158   1.132   0.466   6.836  0.0743 -1.3789  2.5920
   78SLPC   C34 7159   0.984   0.394   6.982  0.5643 -0.9402  0.8297
   78SLPC   H4X 7160   1.000   0.286   6.962  2.8170 -0.1314 -2.1989
   78SLPC   H4Y 7161   0.877   0.404   7.009  0.5674  0.9333  0.2455
   78SLPC   C35 7162   1.061   0.437   7.114 -0.0495  0.0823  0.0877
   78SLPC   H5X 7163   1.048   0.546   7.134 -0.6510  0.2662 -1.2553
   78SLPC   H5Y 7164   1.170   0.423   7.099 -0.1176  0.6766 -1.0174
   78SLPC   C36 7165   1.019   0.369   7.249  0.3274  0.0978 -0.3114
   78SLPC   H6X 7166   1.027   0.258   7.248  2.0738  0.1435  2.2292
   78SLPC   H6Y 7167   0.917   0.402   7.276  0.4258 -0.6497  0.9932
   78SLPC   C37 7168   1.118   0.410   7.362 -0.3340  0.0107 -0.0025
   78SLPC   H7X 7169   1.119   0.521   7.361  0.6593  0.0038 -0.3356
   78SLPC   H7Y 7170   1.218   0.369   7.335 -0.8381 -1.3756  0.1473
   78SLPC   C38 7171   1.077   0.364   7.506 -0.2859  0.2750 -0.6298
   78SLPC   H8X 7172   0.980   0.415   7.525  0.4012  1.9637 -1.5397
   78SLPC   H8Y 7173   1.151   0.402   7.580  0.1019 -1.6961  0.0324
   78SLPC   C39 7174   1.052   0.215   7.513 -0.6462 -0.4034  0.5555
   78SLPC   H9X 7175   1.134   0.159   7.464  0.0785  1.3346 -0.2683
   78SLPC   H9Y 7176   0.959   0.195   7.456 -0.6310 -1.1451  0.7874
   78SLPC  C310 7177   1.052   0.151   7.649 -0.0732  0.2914 -0.0900
   78SLPC  H10X 7178   1.157   0.139   7.681  0.3188 -0.2210 -1.5059
   78SLPC  H10Y 7179   1.002   0.052   7.634  0.3030 -0.2248  1.9925
   78SLPC  C311 7180   0.974   0.219   7.766 -0.1812 -0.0564  0.3285
   78SLPC  H11X 7181   0.865   0.235   7.750 -0.3456 -0.3191  1.1462
   78SLPC  H11Y 7182   1.020   0.319   7.783  0.2610 -0.1463 -0.3242
   78SLPC  C312 7183   0.979   0.132   7.893 -0.3408  0.0884  0.6106
   78SLPC  H12X 7184   1.076   0.078   7.900  1.0714  2.7097  1.9670
   78SLPC  H12Y 7185   0.890   0.066   7.882  1.5440 -2.4022  0.0126
   78SLPC  C313 7186   0.984   0.213   8.026  0.6439 -0.8611 -0.0996
   78SLPC  H13X 7187   1.084   0.263   8.027  1.0496 -1.6764  0.4624
   78SLPC  H13Y 7188   0.991   0.145   8.113  1.6102  0.7054  1.0651
   78SLPC  C314 7189   0.863   0.305   8.046 -0.5813 -0.2646 -0.2717
   78SLPC  H14X 7190   0.771   0.243   8.046 -0.1575 -0.9302  1.7915
   78SLPC  H14Y 7191   0.847   0.375   7.961 -0.4586  0.7480  0.5335
   78SLPC  C315 7192   0.858   0.378   8.179 -0.0453 -0.2146 -0.0454
   78SLPC  H15X 7193   0.875   0.313   8.268  1.3434  0.6879  0.3738
   78SLPC  H15Y 7194   0.756   0.423   8.179  0.0606  0.0404 -1.0741
   78SLPC  C316 7195   0.955   0.501   8.188  0.0430  0.1561  0.0693
   78SLPC  H16X 7196   0.953   0.559   8.094  1.7821  2.0005  1.1219
   78SLPC  H16Y 7197   1.056   0.456   8.185 -1.3650 -3.2162  0.9704
   78SLPC  C317 7198   0.933   0.591   8.321 -0.0611 -0.0919 -0.0842
   78SLPC  H17X 7199   0.951   0.521   8.405  0.3230  3.1153  2.6192
   78SLPC  H17Y 7200   0.828   0.628   8.323 -0.2979 -0.8485  2.7076
   78SLPC  C318 7201   1.046   0.697   8.331  0.4322  1.2583  0.7024
   78SLPC  H18X 7202   1.056   0.733   8.435  1.5019  0.2206  0.9785
   78SLPC  H18Y 7203   1.025   0.773   8.253 -3.6756 -2.2670 -1.9042
   78SLPC  H18Z 7204   1.145   0.646   8.324  1.1328  2.6788 -0.0014
   79SLPC     N 7205   6.698   3.546   5.762 -0.0747  0.0919 -0.5068
   79SLPC   C13 7206   6.606   3.509   5.649 -0.4569 -0.2725  0.3988
   79SLPC  H13A 7207   6.504   3.509   5.683 -0.6260 -1.1764 -0.0889
   79SLPC  H13B 7208   6.616   3.580   5.569 -0.1780 -0.2762  0.4291
   79SLPC  H13C 7209   6.623   3.408   5.617 -1.4570 -0.4289  0.3478
   79SLPC   C14 7210   6.638   3.674   5.827  0.3772 -0.1237  0.0160
   79SLPC  H14A 7211   6.610   3.744   5.749 -1.1307  0.5243  1.1148
   79SLPC  H14B 7212   6.545   3.641   5.872 -0.1819 -0.3647 -1.2870
   79SLPC  H14C 7213   6.708   3.726   5.890 -1.1888  3.8219 -1.2842
   79SLPC   C15 7214   6.833   3.571   5.713 -0.3804 -0.1079  0.0176
   79SLPC  H15A 7215   6.908   3.553   5.789  0.1604 -1.0155 -0.7329
   79SLPC  H15B 7216   6.860   3.512   5.627 -0.7108 -1.2697  0.7070
   79SLPC  H15C 7217   6.842   3.670   5.671  2.7371 -0.3690 -0.0180
   79SLPC   C12 7218   6.699   3.438   5.868  0.7400  0.3226  0.0736
   79SLPC  H12A 7219   6.747   3.350   5.829 -2.2424 -1.0372 -0.7203
   79SLPC  H12B 7220   6.596   3.416   5.895  0.9065  0.2085  0.6273
   79SLPC   C11 7221   6.761   3.473   6.008 -0.1673 -0.0803 -0.9831
   79SLPC  H11A 7222   6.734   3.409   6.095 -0.9194  1.3644 -0.1348
   79SLPC  H11B 7223   6.704   3.560   6.048  0.2888 -0.1626 -0.1233
   79SLPC     P 7224   7.005   3.398   5.978 -0.0538  0.0252  0.1765
   79SLPC   O13 7225   6.955   3.278   5.909 -0.3458 -0.4325  0.4729
   79SLPC   O14 7226   7.119   3.460   5.909  0.3993  0.2727 -0.2174
   79SLPC   O12 7227   6.895   3.506   6.001  0.3296 -0.1248  0.3354
   79SLPC   O11 7228   7.039   3.356   6.125 -0.1843 -0.2158  0.0116
   79SLPC    C1 7229   7.158   3.414   6.186 -0.1970  0.1857  0.0090
   79SLPC    HA 7230   7.241   3.342   6.192 -0.8343 -0.4195  2.0514
   79SLPC    HB 7231   7.205   3.501   6.135  1.5093 -0.4641  0.4444
   79SLPC    C2 7232   7.140   3.451   6.339  0.3498  0.2607  0.4623
   79SLPC    HS 7233   7.222   3.523   6.360  0.6094  0.1816 -0.2579
   79SLPC   O21 7234   7.141   3.337   6.421 -0.4823  0.4763 -0.3130
   79SLPC   C21 7235   7.258   3.294   6.465  0.5174  0.0211  0.2125
   79SLPC   O22 7236   7.366   3.342   6.436 -0.3303 -0.5814 -0.1803
   79SLPC   C22 7237   7.251   3.178   6.562 -0.3161  0.5274 -0.3538
   79SLPC   H2R 7238   7.156   3.123   6.542  0.4709 -0.5918 -1.0980
   79SLPC   H2S 7239   7.330   3.105   6.534 -1.3417 -0.6337 -0.2524
   79SLPC    C3 7240   6.999   3.532   6.355  0.3198 -0.2167 -0.0653
   79SLPC    HX 7241   6.924   3.451   6.342 -1.5153  1.3292  0.5799
   79SLPC    HY 7242   6.989   3.610   6.277  0.8278 -0.0367  0.0444
   79SLPC   O31 7243   6.997   3.576   6.495  0.0639 -0.7459  0.2008
   79SLPC   C31 7244   6.911   3.674   6.518  0.0049  0.3328 -0.6450
   79SLPC   O32 7245   6.848   3.739   6.430  0.7563 -0.1610  0.2228
   79SLPC   C32 7246   6.897   3.702   6.671 -0.4816 -0.5010 -0.8204
   79SLPC   H2X 7247   6.988   3.655   6.714  0.7439  0.0973 -2.6997
   79SLPC   H2Y 7248   6.803   3.652   6.703 -1.0404  0.1866 -1.3795
   79SLPC   C23 7249   7.265   3.208   6.715 -0.4364  0.6377 -0.0281
   79SLPC   H3R 7250   7.363   3.254   6.739 -1.5269  2.5571  0.8858
   79SLPC   H3S 7251   7.270   3.114   6.774 -0.6190  0.9906  0.5604
   79SLPC   C24 7252   7.152   3.299   6.764  0.2163  0.2478  0.3534
   79SLPC   H4R 7253   7.055   3.259   6.727  1.3541 -2.1036 -0.1870
   79SLPC   H4S 7254   7.153   3.400   6.718  2.0868  0.4332  0.7531
   79SLPC   C25 7255   7.138   3.309   6.918 -0.1607  0.0014 -0.6188
   79SLPC   H5R 7256   7.233   3.360   6.946  0.8131 -2.4266  0.6667
   79SLPC   H5S 7257   7.132   3.205   6.958  0.7419 -1.1211 -3.3177
   79SLPC   C26 7258   7.019   3.406   6.958 -0.0197  0.0015 -0.3748
   79SLPC   H6R 7259   6.930   3.349   6.924  0.8991 -1.3145 -0.6402
   79SLPC   H6S 7260   7.021   3.499   6.897 -0.7978  0.3604  0.1390
   79SLPC   C27 7261   7.018   3.435   7.109 -0.6952 -0.1962  0.0885
   79SLPC   H7R 7262   7.008   3.344   7.173 -0.7204  0.9511  1.7579
   79SLPC   H7S 7263   6.926   3.497   7.119  0.1399  1.0804  0.0008
   79SLPC   C28 7264   7.130   3.517   7.161  0.0438 -0.1058  1.1937
   79SLPC   H8R 7265   7.231   3.472   7.158 -0.0920 -0.3261 -0.4699
   79SLPC   H8S 7266   7.118   3.537   7.270  1.6274  2.2903  0.9588
   79SLPC   C29 7267   7.132   3.657   7.101 -0.0373 -0.3960  0.2464
   79SLPC   H9R 7268   7.071   3.673   7.011  1.9341 -2.5211 -1.5355
   79SLPC  C210 7269   7.217   3.755   7.138  0.0483 -0.4390 -0.5459
   79SLPC  H10R 7270   7.200   3.856   7.099 -0.1390 -0.4807 -0.5698
   79SLPC  C211 7271   7.314   3.752   7.256 -0.1972 -0.1060 -0.3616
   79SLPC  H11R 7272   7.378   3.843   7.252  1.2048 -1.1314 -1.6393
   79SLPC  H11S 7273   7.390   3.676   7.230 -0.3518 -0.7089  0.9545
   79SLPC  C212 7274   7.262   3.753   7.394 -0.4853  0.1572  0.1284
   79SLPC  H12R 7275   7.222   3.849   7.430  1.3526  0.3991  1.6078
   79SLPC  C213 7276   7.262   3.658   7.490 -0.4717  0.3936  0.3681
   79SLPC  H13R 7277   7.216   3.678   7.588  0.1507  0.0163  0.7379
   79SLPC  C214 7278   7.315   3.520   7.478 -0.7627  0.3284 -0.0972
   79SLPC  H14R 7279   7.406   3.498   7.537 -0.3386 -0.6794 -1.1122
   79SLPC  H14S 7280   7.351   3.495   7.376  1.0402  1.2610  0.2941
   79SLPC  C215 7281   7.209   3.420   7.518  0.5019 -0.8724  0.0940
   79SLPC  H15R 7282   7.125   3.426   7.446  2.0065 -0.4288 -1.6628
   79SLPC  H15S 7283   7.186   3.443   7.624 -1.1580 -0.5380 -0.3147
   79SLPC  C216 7284   7.248   3.271   7.504  0.2427 -0.0405 -0.3025
   79SLPC  H16R 7285   7.316   3.233   7.584 -1.3749 -1.8171  0.2507
   79SLPC  H16S 7286   7.299   3.246   7.409  2.7599  0.3677  0.8915
   79SLPC  C217 7287   7.121   3.180   7.501  0.0285 -0.2822  0.3726
   79SLPC  H17R 7288   7.062   3.216   7.414 -0.2690 -0.4209  0.5147
   79SLPC  H17S 7289   7.064   3.187   7.596 -0.0325 -0.2400  0.3335
   79SLPC  C218 7290   7.156   3.036   7.486  0.3647  0.3691  0.1296
   79SLPC  H18R 7291   7.075   2.960   7.494  3.7713 -3.7958 -2.4781
   79SLPC  H18S 7292   7.220   3.016   7.575  0.4320 -2.4224 -0.4877
   79SLPC  H18T 7293   7.206   3.016   7.389 -1.0757 -0.2181 -0.5046
   79SLPC   C33 7294   6.903   3.853   6.698  0.2401  0.5542  0.4177
   79SLPC   H3X 7295   6.798   3.888   6.708 -0.2137  0.0381 -2.2579
   79SLPC   H3Y 7296   6.950   3.924   6.627 -0.1484  0.5174  0.1218
   79SLPC   C34 7297   6.962   3.883   6.841  0.0188 -0.3280 -0.0717
   79SLPC   H4X 7298   6.972   3.994   6.836  2.3023 -0.5140 -0.1284
   79SLPC   H4Y 7299   7.060   3.835   6.860 -0.2940 -1.5560 -1.5015
   79SLPC   C35 7300   6.859   3.861   6.952 -0.5633  0.3450  0.5453
   79SLPC   H5X 7301   6.861   3.753   6.977  0.0960  0.0330 -0.8160
   79SLPC   H5Y 7302   6.758   3.878   6.909 -0.5805  1.0850  0.8737
   79SLPC   C36 7303   6.858   3.964   7.071  0.2199 -0.1343  0.0218
   79SLPC   H6X 7304   6.861   4.066   7.028  0.6274  0.2326  0.9194
   79SLPC   H6Y 7305   6.952   3.964   7.131 -0.0354  1.2710  0.4406
   79SLPC   C37 7306   6.729   3.959   7.154  0.3081  0.5530  0.5134
   79SLPC   H7X 7307   6.635   3.987   7.101 -0.5113 -0.5562  1.3511
   79SLPC   H7Y 7308   6.746   4.028   7.240  0.0248 -1.0410  1.8802
   79SLPC   C38 7309   6.713   3.817   7.222  0.1355 -0.3611  0.4863
   79SLPC   H8X 7310   6.692   3.740   7.145 -1.9251 -0.1621  0.8095
   79SLPC   H8Y 7311   6.619   3.824   7.280  0.3467  0.0944  0.7808
   79SLPC   C39 7312   6.818   3.763   7.317 -0.3294 -0.2734  0.3611
   79SLPC   H9X 7313   6.917   3.773   7.268 -0.8633  3.6007 -0.0840
   79SLPC   H9Y 7314   6.800   3.657   7.344  1.6600 -0.7960 -0.3146
   79SLPC  C310 7315   6.827   3.831   7.456 -1.2836 -0.0807  0.1327
   79SLPC  H10X 7316   6.729   3.881   7.474 -1.7504 -0.0955 -2.2195
   79SLPC  H10Y 7317   6.914   3.900   7.450  0.1713 -1.8012  1.0812
   79SLPC  C311 7318   6.874   3.739   7.566 -0.2763 -0.1386  0.1626
   79SLPC  H11X 7319   6.975   3.701   7.540 -1.6891 -1.6153 -3.3813
   79SLPC  H11Y 7320   6.804   3.654   7.568  1.3941 -1.5291  0.4730
   79SLPC  C312 7321   6.879   3.797   7.714 -0.5327  0.7542 -0.3953
   79SLPC  H12X 7322   6.781   3.849   7.722 -0.4244  0.6226  2.0905
   79SLPC  H12Y 7323   6.966   3.865   7.722  0.6376 -0.7153 -0.5693
   79SLPC  C313 7324   6.873   3.700   7.827 -0.2031  0.4366  0.0249
   79SLPC  H13X 7325   6.790   3.629   7.808  0.5265 -1.5287  3.6127
   79SLPC  H13Y 7326   6.856   3.758   7.920 -0.0759  1.9242 -0.8626
   79SLPC  C314 7327   7.008   3.618   7.849  0.0162  0.2842 -0.6562
   79SLPC  H14X 7328   7.038   3.560   7.759  1.0415  1.4733 -1.1032
   79SLPC  H14Y 7329   6.994   3.538   7.925  1.5490  0.6864  0.0703
   79SLPC  C315 7330   7.116   3.712   7.901 -0.0621 -0.1689  0.2500
   79SLPC  H15X 7331   7.087   3.753   8.000 -1.7479  2.0341 -1.1148
   79SLPC  H15Y 7332   7.128   3.797   7.831 -0.4568 -1.5596 -1.5471
   79SLPC  C316 7333   7.253   3.646   7.919 -0.0028 -0.2658 -0.2228
   79SLPC  H16X 7334   7.290   3.601   7.824  1.1746  0.8068 -0.2943
   79SLPC  H16Y 7335   7.243   3.572   8.001 -0.2963  1.3879  1.2564
   79SLPC  C317 7336   7.360   3.744   7.973 -0.2132  0.6655  0.1646
   79SLPC  H17X 7337   7.452   3.688   8.002 -1.0454 -0.8099 -0.0168
   79SLPC  H17Y 7338   7.321   3.791   8.065 -0.7081  0.4731  0.0564
   79SLPC  C318 7339   7.393   3.863   7.878 -0.4164 -0.6957  0.1781
   79SLPC  H18X 7340   7.299   3.889   7.826 -1.6150 -2.6446  1.2844
   79SLPC  H18Y 7341   7.455   3.832   7.791 -0.7758 -0.5578 -0.1274
   79SLPC  H18Z 7342   7.436   3.956   7.922  0.7019 -1.8286  1.5421
   80SLPC     N 7343   6.379   1.147   5.850 -0.9227 -0.2450  0.3419
   80SLPC   C13 7344   6.303   1.050   5.772 -0.3017  0.1754 -0.2942
   80SLPC  H13A 7345   6.339   1.037   5.671  2.0272 -1.0443  0.6530
   80SLPC  H13B 7346   6.297   0.954   5.821 -1.0784  0.4352  0.1312
   80SLPC  H13C 7347   6.197   1.071   5.763 -0.6626 -0.4443  2.1636
   80SLPC   C14 7348   6.321   1.151   5.995  0.1508  0.5511  0.4383
   80SLPC  H14A 7349   6.380   1.220   6.054  2.1524  0.4323 -1.3359
   80SLPC  H14B 7350   6.214   1.160   6.006  0.2800  3.1403 -0.1997
   80SLPC  H14C 7351   6.337   1.054   6.040 -1.0983  0.2449  0.2225
   80SLPC   C15 7352   6.369   1.286   5.783  0.2446 -0.4946  0.2374
   80SLPC  H15A 7353   6.426   1.358   5.839 -0.4640  0.8396 -0.7288
   80SLPC  H15B 7354   6.415   1.282   5.685 -0.2220 -0.0029 -0.0064
   80SLPC  H15C 7355   6.267   1.319   5.769  0.9744  2.3768  1.4526
   80SLPC   C12 7356   6.525   1.110   5.863 -0.2477  0.2854 -0.6833
   80SLPC  H12A 7357   6.534   1.013   5.911 -0.1914  0.6704  0.0927
   80SLPC  H12B 7358   6.558   1.193   5.924 -2.1458 -0.4076  1.3559
   80SLPC   C11 7359   6.613   1.105   5.738  0.1980  0.0547 -0.4619
   80SLPC  H11A 7360   6.565   1.033   5.669 -0.2332  0.9134 -1.0693
   80SLPC  H11B 7361   6.717   1.070   5.756  1.0055  2.3853 -0.4908
   80SLPC     P 7362   6.727   1.339   5.730  0.1271 -0.1455  0.7516
   80SLPC   O13 7363   6.831   1.361   5.628 -0.2801  0.2192 -0.5153
   80SLPC   O14 7364   6.662   1.463   5.779  0.5278 -0.9794  0.0751
   80SLPC   O12 7365   6.621   1.236   5.674 -0.3350 -0.0242 -0.4084
   80SLPC   O11 7366   6.792   1.261   5.849  0.2616 -0.5701 -0.3300
   80SLPC    C1 7367   6.910   1.310   5.908  0.1049  0.4768  0.2689
   80SLPC    HA 7368   7.000   1.262   5.864  1.2630  2.5991  0.2972
   80SLPC    HB 7369   6.924   1.420   5.907 -0.1297  0.5271 -3.0337
   80SLPC    C2 7370   6.912   1.258   6.056  0.1135 -0.2008 -0.5678
   80SLPC    HS 7371   6.860   1.161   6.068  1.5393 -1.1871 -1.9784
   80SLPC   O21 7372   6.843   1.356   6.129 -0.3432 -0.3891  0.2612
   80SLPC   C21 7373   6.709   1.350   6.146  0.5300  0.4579  0.1093
   80SLPC   O22 7374   6.634   1.263   6.110  0.3779 -0.0819  0.2462
   80SLPC   C22 7375   6.662   1.487   6.208  0.2943  0.8244 -0.7708
   80SLPC   H2R 7376   6.675   1.573   6.139  2.0330  1.4080  0.2566
   80SLPC   H2S 7377   6.554   1.471   6.229  0.4604 -0.7496 -1.0006
   80SLPC    C3 7378   7.059   1.257   6.108 -0.5780 -0.0676  0.4415
   80SLPC    HX 7379   7.123   1.330   6.053 -1.3062 -0.5755 -1.1021
   80SLPC    HY 7380   7.109   1.163   6.077 -2.1342  0.3011 -3.3859
   80SLPC   O31 7381   7.069   1.291   6.247 -0.0901 -0.7439  0.2450
   80SLPC   C31 7382   7.035   1.188   6.330  0.2495  0.7457 -0.6250
   80SLPC   O32 7383   6.995   1.081   6.290 -0.3060  0.7257  0.7006
   80SLPC   C32 7384   7.059   1.223   6.472  0.0408 -0.0112  0.4908
   80SLPC   H2X 7385   6.969   1.268   6.520  1.4028  2.9739  0.3555
   80SLPC   H2Y 7386   7.140   1.299   6.474  1.9716 -1.9763 -0.7169
   80SLPC   C23 7387   6.759   1.534   6.329  0.1519 -1.2374  0.1595
   80SLPC   H3R 7388   6.778   1.643   6.333  0.3534 -1.2835  0.4524
   80SLPC   H3S 7389   6.862   1.498   6.309  0.7874 -0.7956  2.5011
   80SLPC   C24 7390   6.710   1.463   6.457  0.5738 -0.0068  0.0364
   80SLPC   H4R 7391   6.723   1.352   6.462 -0.1750 -0.0659  0.9120
   80SLPC   H4S 7392   6.601   1.485   6.465  0.8451  1.2525  0.2667
   80SLPC   C25 7393   6.786   1.523   6.582  0.6353 -0.0793 -0.1230
   80SLPC   H5R 7394   6.815   1.629   6.565  0.0142  0.1342  0.1504
   80SLPC   H5S 7395   6.882   1.468   6.598  0.2997 -0.0602  2.0485
   80SLPC   C26 7396   6.688   1.523   6.702 -0.1774  0.2704  0.2319
   80SLPC   H6R 7397   6.675   1.415   6.722 -0.4971  0.4336  0.9326
   80SLPC   H6S 7398   6.589   1.568   6.678 -0.1565  0.6862  0.8990
   80SLPC   C27 7399   6.741   1.595   6.830  0.5947  0.4693  0.3646
   80SLPC   H7R 7400   6.787   1.693   6.808 -0.6136  0.1593 -3.9810
   80SLPC   H7S 7401   6.821   1.525   6.861  1.1908  0.1184 -1.8448
   80SLPC   C28 7402   6.632   1.614   6.944 -0.7767 -0.4995  0.6269
   80SLPC   H8R 7403   6.548   1.670   6.898  0.8835  0.8568 -0.8401
   80SLPC   H8S 7404   6.675   1.678   7.024  2.2775  0.8326 -1.9496
   80SLPC   C29 7405   6.575   1.489   7.000 -0.1369  0.5922  1.4147
   80SLPC   H9R 7406   6.530   1.422   6.926 -0.9050  0.0996  2.3095
   80SLPC  C210 7407   6.555   1.450   7.128 -0.0997 -0.0040  0.0141
   80SLPC  H10R 7408   6.509   1.351   7.146 -1.7934  0.7987  0.2085
   80SLPC  C211 7409   6.599   1.528   7.249 -0.1762  0.3464  0.1623
   80SLPC  H11R 7410   6.690   1.589   7.230 -0.7290  1.0307 -0.3527
   80SLPC  H11S 7411   6.636   1.459   7.328  3.9878  1.7052 -0.4953
   80SLPC  C212 7412   6.505   1.622   7.301  0.0249 -0.1240  0.1480
   80SLPC  H12R 7413   6.481   1.709   7.238  2.7663  0.2929 -0.3510
   80SLPC  C213 7414   6.436   1.623   7.416  0.0027 -0.4618 -0.1119
   80SLPC  H13R 7415   6.365   1.706   7.425  1.9946  1.4067 -1.2943
   80SLPC  C214 7416   6.428   1.526   7.525  0.6733  0.8453 -0.0487
   80SLPC  H14R 7417   6.405   1.577   7.622 -2.0806  1.0487 -0.7539
   80SLPC  H14S 7418   6.528   1.478   7.533  1.1283  1.5199 -1.5463
   80SLPC  C215 7419   6.334   1.402   7.513  0.4569  0.2020 -0.0650
   80SLPC  H15R 7420   6.356   1.352   7.416  2.1496 -0.4035  0.6145
   80SLPC  H15S 7421   6.231   1.444   7.515  0.0948 -0.6984  0.2641
   80SLPC  C216 7422   6.354   1.284   7.612 -0.4399 -0.1214  0.7497
   80SLPC  H16R 7423   6.317   1.316   7.711 -2.4255 -1.1259  0.3641
   80SLPC  H16S 7424   6.458   1.246   7.613 -0.3803 -0.1414 -1.5879
   80SLPC  C217 7425   6.268   1.162   7.571  0.1844 -0.0471  0.1901
   80SLPC  H17R 7426   6.162   1.192   7.555 -0.2721 -1.2289  0.9728
   80SLPC  H17S 7427   6.282   1.102   7.663  1.1556  0.9317  0.7004
   80SLPC  C218 7428   6.305   1.069   7.450  0.6289  0.9405  0.4260
   80SLPC  H18R 7429   6.245   0.976   7.462  1.9506 -0.0807 -0.5609
   80SLPC  H18S 7430   6.411   1.035   7.459  0.7134  0.8740 -0.7188
   80SLPC  H18T 7431   6.283   1.106   7.348  1.2297  0.3239  0.0648
   80SLPC   C33 7432   7.093   1.091   6.546 -0.0517  0.7016 -0.3220
   80SLPC   H3X 7433   7.176   1.048   6.486 -0.3703  2.8376 -2.3721
   80SLPC   H3Y 7434   7.007   1.021   6.552  0.6831 -0.0166  2.8232
   80SLPC   C34 7435   7.136   1.096   6.690  0.2993  0.5363 -0.2730
   80SLPC   H4X 7436   7.227   1.158   6.703  0.0726  1.0165 -0.9304
   80SLPC   H4Y 7437   7.178   0.997   6.718  2.1068  1.4275  0.2386
   80SLPC   C35 7438   7.033   1.150   6.782 -0.4325  0.0458  0.6687
   80SLPC   H5X 7439   6.942   1.098   6.745  0.2025 -0.1547 -0.6354
   80SLPC   H5Y 7440   7.002   1.255   6.763  1.4081  0.4648 -0.1059
   80SLPC   C36 7441   7.051   1.125   6.937  0.0848  0.3678 -0.0886
   80SLPC   H6X 7442   7.107   1.029   6.933  0.1652  0.3666  1.0052
   80SLPC   H6Y 7443   6.950   1.108   6.980  0.5228  0.3210  0.9536
   80SLPC   C37 7444   7.120   1.238   7.015  0.0312 -0.2485  0.2860
   80SLPC   H7X 7445   7.200   1.271   6.944 -1.0251  0.3061 -0.6602
   80SLPC   H7Y 7446   7.148   1.203   7.117  0.5035 -0.6705  0.0144
   80SLPC   C38 7447   7.034   1.360   7.032  0.3673 -0.2224  0.3137
   80SLPC   H8X 7448   6.933   1.328   7.064 -0.1458  1.4185  0.3887
   80SLPC   H8Y 7449   7.011   1.412   6.936  2.0382 -3.5289 -1.9710
   80SLPC   C39 7450   7.087   1.468   7.124 -0.0748 -1.2101 -0.4612
   80SLPC   H9X 7451   7.190   1.495   7.092 -1.1964  1.1644 -2.2037
   80SLPC   H9Y 7452   7.111   1.443   7.229  0.4072 -1.8620 -0.7180
   80SLPC  C310 7453   7.014   1.602   7.126  0.1879 -0.0918  0.1749
   80SLPC  H10X 7454   6.912   1.579   7.164 -0.0681  1.0296  0.1715
   80SLPC  H10Y 7455   7.006   1.640   7.022 -3.0223 -0.2208  0.3298
   80SLPC  C311 7456   7.092   1.705   7.206  0.5355 -0.0278  0.1318
   80SLPC  H11X 7457   7.181   1.729   7.143  1.1842  1.2936  1.5167
   80SLPC  H11Y 7458   7.117   1.665   7.306  1.8862  0.1935 -0.1016
   80SLPC  C312 7459   7.004   1.827   7.229 -0.1365 -0.3229 -0.0912
   80SLPC  H12X 7460   6.939   1.811   7.318 -0.6216  1.4508 -0.1013
   80SLPC  H12Y 7461   6.931   1.837   7.146 -0.9177  1.1952  0.7332
   80SLPC  C313 7462   7.077   1.957   7.265  0.2443  0.4568  0.0498
   80SLPC  H13X 7463   6.998   2.025   7.302 -1.8496 -0.1425 -3.1061
   80SLPC  H13Y 7464   7.136   1.996   7.179 -1.6178  0.0670 -1.4456
   80SLPC  C314 7465   7.163   1.937   7.392 -0.3505  0.0977  0.6346
   80SLPC  H14X 7466   7.269   1.942   7.359 -0.4139  2.0501  0.6748
   80SLPC  H14Y 7467   7.151   1.840   7.444 -0.0541  0.4337  1.3324
   80SLPC  C315 7468   7.142   2.046   7.497  0.4612 -0.2645  0.3698
   80SLPC  H15X 7469   7.034   2.040   7.526  0.3648 -0.9260 -0.1048
   80SLPC  H15Y 7470   7.153   2.139   7.437 -2.3574 -0.3473 -0.3542
   80SLPC  C316 7471   7.240   2.065   7.616  0.0506  0.6750 -0.0820
   80SLPC  H16X 7472   7.254   2.172   7.640 -1.6010  0.7218  0.7973
   80SLPC  H16Y 7473   7.342   2.029   7.591  1.2895  3.1796  1.1840
   80SLPC  C317 7474   7.197   1.999   7.743  0.2659 -0.2858  0.1123
   80SLPC  H17X 7475   7.285   1.956   7.796 -0.4120 -0.6982  0.9006
   80SLPC  H17Y 7476   7.139   1.909   7.714  1.2905 -0.4822 -1.3865
   80SLPC  C318 7477   7.130   2.090   7.840  0.0642 -0.2758 -0.7853
   80SLPC  H18X 7478   7.034   2.132   7.804 -1.3208 -0.9773  1.9948
   80SLPC  H18Y 7479   7.203   2.173   7.855  1.9453 -2.0721  0.2726
   80SLPC  H18Z 7480   7.101   2.046   7.937  1.2137  0.3319 -0.1507
   81SAPS     N 7481   4.327   4.769  10.165 -0.6442  0.4143 -0.1329
   81SAPS   HN1 7482   4.279   4.832  10.233 -2.2438 -0.0285 -0.8143
   81SAPS   HN2 7483   4.421   4.812  10.170 -0.1136 -0.8664  1.1820
   81SAPS   HN3 7484   4.285   4.784  10.071 -0.0462 -0.1719 -0.4910
   81SAPS   C12 7485   4.322   4.622  10.201  0.5210  0.6660  0.5593
   81SAPS  H12A 7486   4.394   4.601  10.278  0.9784  0.4782  0.0851
   81SAPS   C13 7487   4.183   4.592  10.260 -0.3158  0.7099  0.1821
   81SAPS  O13A 7488   4.092   4.677  10.249 -0.6382  0.2335 -0.5019
   81SAPS  O13B 7489   4.163   4.473  10.307 -0.5713 -0.0305 -0.5146
   81SAPS   C11 7490   4.345   4.531  10.073 -0.8036 -0.1210  0.0805
   81SAPS  H11A 7491   4.252   4.548  10.015 -1.0234 -1.4395  0.0389
   81SAPS  H11B 7492   4.340   4.425  10.108 -3.9904 -0.3481 -0.9659
   81SAPS     P 7493   4.481   4.597   9.859  0.1067 -0.1171  0.2001
   81SAPS   O13 7494   4.525   4.738   9.840 -0.1414  0.0088  1.1171
   81SAPS   O14 7495   4.564   4.485   9.806  0.1206 -0.9505  0.1701
   81SAPS   O12 7496   4.467   4.569  10.016 -0.2190  0.0668  0.1229
   81SAPS   O11 7497   4.334   4.591   9.797  0.5388  0.0703 -0.4748
   81SAPS    C1 7498   4.274   4.470   9.751  0.1030  0.6768  0.3847
   81SAPS    HA 7499   4.349   4.387   9.751  0.9771  1.4585  0.3337
   81SAPS    HB 7500   4.198   4.437   9.825 -0.7824  1.4388 -0.1697
   81SAPS    C2 7501   4.188   4.490   9.625  0.1958  0.5075 -0.0740
   81SAPS    HS 7502   4.136   4.396   9.599 -0.6392  0.5523  1.3806
   81SAPS   O21 7503   4.278   4.538   9.522  0.6644  0.3359 -0.1534
   81SAPS   C21 7504   4.350   4.449   9.461 -0.7763  0.5825 -0.5592
   81SAPS   O22 7505   4.316   4.330   9.444  0.0250 -0.3156  0.2622
   81SAPS   C22 7506   4.487   4.504   9.439  0.2579  0.3729  0.2704
   81SAPS   H2R 7507   4.485   4.611   9.411  0.3270  0.2006 -0.3996
   81SAPS   H2S 7508   4.527   4.512   9.543 -0.0984  1.9322  0.3008
   81SAPS    C3 7509   4.085   4.595   9.645  0.2741  0.3346 -0.4270
   81SAPS    HX 7510   4.135   4.689   9.675  1.1649 -0.6444  1.2283
   81SAPS    HY 7511   4.025   4.564   9.733 -0.0537 -1.7141 -1.3454
   81SAPS   O31 7512   4.013   4.622   9.521 -0.2904  0.6330  0.2424
   81SAPS   C31 7513   3.912   4.535   9.502 -0.0052 -0.6171  0.5769
   81SAPS   O32 7514   3.885   4.441   9.577  0.1437 -0.0705  0.4386
   81SAPS   C32 7515   3.850   4.578   9.372 -0.7880  0.5254  0.0324
   81SAPS   H2X 7516   3.829   4.687   9.378 -2.1232  0.3204 -0.6788
   81SAPS   H2Y 7517   3.757   4.517   9.366 -0.9872  0.8148  0.2015
   81SAPS   C23 7518   4.572   4.417   9.344  0.3876 -0.1903  0.2723
   81SAPS   H3R 7519   4.594   4.317   9.387 -2.1306 -1.3413 -1.0042
   81SAPS   H3S 7520   4.671   4.464   9.327 -0.1896  0.6166 -0.9267
   81SAPS   C24 7521   4.509   4.401   9.205 -0.3208 -0.2310 -0.1955
   81SAPS   H4R 7522   4.443   4.485   9.174  0.5009  0.8212  0.9002
   81SAPS   H4S 7523   4.439   4.316   9.221 -1.0604  0.3184 -0.5070
   81SAPS   C25 7524   4.607   4.356   9.099 -0.2398 -0.5598 -0.2253
   81SAPS   H5R 7525   4.685   4.285   9.130 -0.4944 -0.8319 -0.1966
   81SAPS   C26 7526   4.614   4.404   8.973  0.0608  0.3165 -0.5904
   81SAPS   H6R 7527   4.699   4.376   8.908 -0.0275 -0.6861 -0.2814
   81SAPS   C27 7528   4.521   4.504   8.906  0.7744 -0.1498 -0.6710
   81SAPS   H7R 7529   4.523   4.598   8.965 -0.2511 -0.4307 -0.1765
   81SAPS   H7S 7530   4.416   4.471   8.921  0.0382  2.7180  0.7176
   81SAPS   C28 7531   4.560   4.536   8.770  0.1396  0.5660  0.4374
   81SAPS   H8R 7532   4.627   4.619   8.744  2.0187 -1.6854 -2.1465
   81SAPS   C29 7533   4.525   4.469   8.658  0.5118 -0.3713  0.2404
   81SAPS   H9R 7534   4.568   4.494   8.560  0.3247  0.3315  0.3329
   81SAPS  C210 7535   4.446   4.345   8.666 -0.5248  0.5309  0.1372
   81SAPS  H10R 7536   4.456   4.291   8.763  0.7170  0.6349  0.0653
   81SAPS  H10S 7537   4.496   4.264   8.609  0.3353  0.6928  0.6677
   81SAPS  C211 7538   4.300   4.342   8.630 -0.6104  0.7994 -0.8180
   81SAPS  H11R 7539   4.234   4.374   8.713  0.3494 -2.6160  1.3291
   81SAPS  C212 7540   4.241   4.311   8.511 -0.0057 -0.1447  0.5976
   81SAPS  H12R 7541   4.131   4.318   8.513  0.0477  0.3505  2.4697
   81SAPS  C213 7542   4.300   4.282   8.371 -0.9718 -0.1713 -0.6853
   81SAPS  H13R 7543   4.409   4.273   8.388 -1.1814  0.4703  1.1144
   81SAPS  H13S 7544   4.291   4.370   8.304 -0.5777  1.3323  1.1966
   81SAPS  C214 7545   4.245   4.156   8.315 -0.9410 -0.2723 -0.0289
   81SAPS  H14R 7546   4.221   4.075   8.386 -0.2924 -2.4947 -2.2609
   81SAPS  C215 7547   4.198   4.143   8.186 -0.4660  0.1196  0.0404
   81SAPS  H15R 7548   4.177   4.044   8.144  0.9717  0.0388 -0.5073
   81SAPS  C216 7549   4.192   4.248   8.079  0.3170  0.3165 -0.3295
   81SAPS  H16R 7550   4.234   4.203   7.986 -2.7638 -3.2073 -0.1334
   81SAPS  H16S 7551   4.249   4.341   8.099 -1.6762  1.6135 -0.5596
   81SAPS  C217 7552   4.049   4.291   8.061  0.2111 -0.5893 -0.1027
   81SAPS  H17R 7553   4.009   4.346   8.149  0.1046  1.5388 -1.4376
   81SAPS  H17S 7554   3.980   4.206   8.043 -2.4697  1.1316  1.6928
   81SAPS  C218 7555   4.025   4.395   7.946 -0.4270  0.3359  0.1746
   81SAPS  H18R 7556   4.084   4.487   7.960 -0.1233  0.6417 -2.7815
   81SAPS  H18S 7557   3.915   4.414   7.940 -0.0707  2.8390  1.2614
   81SAPS  C219 7558   4.078   4.342   7.808 -0.1744  0.0194  0.2101
   81SAPS  H19R 7559   4.044   4.242   7.773 -0.0166  1.1465 -3.3101
   81SAPS  H19S 7560   4.189   4.344   7.802 -0.2836  0.0576 -2.7641
   81SAPS  C220 7561   4.046   4.441   7.694  0.3185 -0.8380 -0.5774
   81SAPS  H20R 7562   4.094   4.540   7.709  0.1243 -0.8574  0.1756
   81SAPS  H20S 7563   3.935   4.448   7.686  0.4630  1.7699 -0.7014
   81SAPS  H20T 7564   4.095   4.407   7.600  0.7067 -0.1645 -0.6218
   81SAPS   C33 7565   3.929   4.542   9.245 -0.0253 -0.5085 -0.8542
   81SAPS   H3X 7566   4.032   4.581   9.262  0.2607 -0.7585 -1.9131
   81SAPS   H3Y 7567   3.890   4.605   9.162  0.4514 -0.3361 -0.9511
   81SAPS   C34 7568   3.928   4.397   9.208 -0.0423  0.3875  0.5328
   81SAPS   H4X 7569   3.821   4.375   9.188  0.1531  1.5116 -1.8868
   81SAPS   H4Y 7570   3.965   4.334   9.293 -1.3484 -0.1303  0.7296
   81SAPS   C35 7571   4.009   4.359   9.089 -0.3754 -0.0430  0.1401
   81SAPS   H5X 7572   3.993   4.436   9.009 -4.7743 -0.5793  0.3580
   81SAPS   H5Y 7573   3.963   4.268   9.045 -1.7210  0.7468 -0.1051
   81SAPS   C36 7574   4.163   4.356   9.109  0.1639 -0.3511 -0.3379
   81SAPS   H6X 7575   4.180   4.309   9.209  1.1684  0.7561  0.0287
   81SAPS   H6Y 7576   4.207   4.458   9.100 -1.6216  0.7976  2.7902
   81SAPS   C37 7577   4.229   4.255   9.011 -0.6304  0.1011  0.2880
   81SAPS   H7X 7578   4.332   4.292   8.990 -0.2799  0.6288  2.7989
   81SAPS   H7Y 7579   4.178   4.286   8.917  0.5895  0.4599 -0.2659
   81SAPS   C38 7580   4.221   4.102   9.043  0.1670 -0.1415 -0.0150
   81SAPS   H8X 7581   4.149   4.085   9.125  0.7821  0.8016  0.7222
   81SAPS   H8Y 7582   4.318   4.056   9.073  0.9507  1.6652  0.2561
   81SAPS   C39 7583   4.159   4.039   8.916 -0.1838  0.0455 -0.4477
   81SAPS   H9X 7584   4.223   4.060   8.827 -1.6206 -0.9929 -1.7518
   81SAPS   H9Y 7585   4.061   4.086   8.892  0.0565  0.8500  0.1518
   81SAPS  C310 7586   4.142   3.886   8.909 -0.2522 -0.2465 -0.2568
   81SAPS  H10X 7587   4.082   3.862   8.999  1.1148 -1.3710  0.3695
   81SAPS  H10Y 7588   4.243   3.840   8.909 -0.6068 -1.0595 -1.2887
   81SAPS  C311 7589   4.063   3.815   8.790 -0.4765 -0.2346 -0.3361
   81SAPS  H11X 7590   3.963   3.864   8.788 -0.2754  0.3704  2.3545
   81SAPS  H11Y 7591   4.046   3.712   8.827  2.0183 -0.3755  0.5395
   81SAPS  C312 7592   4.140   3.821   8.661  0.4292 -0.0737 -0.3067
   81SAPS  H12X 7593   4.239   3.772   8.662 -0.0200 -0.9825  1.7760
   81SAPS  H12Y 7594   4.155   3.930   8.647 -0.8749  0.4212  1.7929
   81SAPS  C313 7595   4.073   3.750   8.541  0.1181 -0.5639 -0.5460
   81SAPS  H13X 7596   3.970   3.792   8.535  0.5349  0.1708 -3.3301
   81SAPS  H13Y 7597   4.062   3.641   8.555  0.9086 -0.7118 -1.0730
   81SAPS  C314 7598   4.137   3.766   8.401  0.2666 -0.2701  0.4327
   81SAPS  H14X 7599   4.246   3.745   8.402  0.3653  0.1853 -0.5086
   81SAPS  H14Y 7600   4.124   3.872   8.371  0.8491 -0.7104 -1.4168
   81SAPS  C315 7601   4.084   3.675   8.296  0.4184 -0.1636 -0.4508
   81SAPS  H15X 7602   4.091   3.567   8.321  0.3586  0.3610  1.8613
   81SAPS  H15Y 7603   4.142   3.690   8.201  0.3820  1.4606 -0.2383
   81SAPS  C316 7604   3.939   3.695   8.269  0.6007 -0.2017 -0.0189
   81SAPS  H16X 7605   3.917   3.799   8.234 -0.6448  0.1088  1.6400
   81SAPS  H16Y 7606   3.871   3.703   8.357 -2.0876 -0.4652 -1.9846
   81SAPS  C317 7607   3.884   3.595   8.166  0.0718 -0.1285  0.5453
   81SAPS  H17X 7608   3.897   3.497   8.216 -3.0302 -0.7141  0.2773
   81SAPS  H17Y 7609   3.961   3.596   8.086  0.9350 -0.5015  1.3523
   81SAPS  C318 7610   3.740   3.628   8.132 -1.0947 -0.0071  0.4061
   81SAPS  H18X 7611   3.705   3.571   8.043  0.3365 -1.0673  0.4986
   81SAPS  H18Y 7612   3.725   3.736   8.110 -3.6938 -0.6057 -0.8801
   81SAPS  H18Z 7613   3.672   3.609   8.217 -0.7061 -1.5373  0.3936
   82SAPS     N 7614   2.809   3.598   9.776 -0.3440 -0.7255  0.2938
   82SAPS   HN1 7615   2.750   3.630   9.696 -0.1402  1.2180  0.8779
   82SAPS   HN2 7616   2.863   3.678   9.814 -1.4089 -0.1242  0.5828
   82SAPS   HN3 7617   2.872   3.520   9.749  4.1118  1.5898  3.3754
   82SAPS   C12 7618   2.727   3.565   9.896  0.3282 -0.2331  0.1554
   82SAPS  H12A 7619   2.788   3.496   9.955 -0.3564  1.5751  3.0705
   82SAPS   C13 7620   2.709   3.697   9.980  0.5142  0.2856 -0.6047
   82SAPS  O13A 7621   2.759   3.807   9.934 -0.8013 -0.4341 -0.1040
   82SAPS  O13B 7622   2.630   3.701  10.071  0.1519  0.0831 -0.1468
   82SAPS   C11 7623   2.583   3.507   9.855 -0.4589  0.5236 -0.4228
   82SAPS  H11A 7624   2.523   3.479   9.944  2.5095 -1.9462  0.9103
   82SAPS  H11B 7625   2.608   3.413   9.802  1.1043  0.0189  1.1430
   82SAPS     P 7626   2.478   3.587   9.621 -0.4747 -0.3667  0.0279
   82SAPS   O13 7627   2.578   3.498   9.562 -0.5262 -0.1509  0.2045
   82SAPS   O14 7628   2.337   3.533   9.615  0.1045  0.8563  0.2246
   82SAPS   O12 7629   2.514   3.607   9.768 -0.3417  0.4640  0.3907
   82SAPS   O11 7630   2.483   3.736   9.567 -0.9699  0.0855 -0.1280
   82SAPS    C1 7631   2.472   3.783   9.428 -0.2463 -0.0749 -0.0659
   82SAPS    HA 7632   2.475   3.894   9.440 -0.8074 -0.4325  4.4321
   82SAPS    HB 7633   2.556   3.757   9.360  0.1019  1.8794 -0.4387
   82SAPS    C2 7634   2.327   3.753   9.377 -0.2749  0.4647 -0.2056
   82SAPS    HS 7635   2.265   3.760   9.469  1.4218  0.9747  0.9087
   82SAPS   O21 7636   2.320   3.630   9.304  0.0775  0.8185 -0.2032
   82SAPS   C21 7637   2.195   3.578   9.297  0.9562  0.2732 -0.4458
   82SAPS   O22 7638   2.097   3.637   9.339 -0.2528 -0.1586  0.5143
   82SAPS   C22 7639   2.196   3.438   9.239  0.1334 -0.5675 -0.2860
   82SAPS   H2R 7640   2.263   3.430   9.150 -2.2852  1.0953 -2.3289
   82SAPS   H2S 7641   2.243   3.372   9.315  0.2461  0.1181  0.2426
   82SAPS    C3 7642   2.274   3.867   9.282  0.2542  0.3309 -0.3989
   82SAPS    HX 7643   2.265   3.960   9.342 -0.6777  0.9820 -1.5185
   82SAPS    HY 7644   2.171   3.848   9.246  0.3314 -0.1239 -0.3713
   82SAPS   O31 7645   2.362   3.890   9.175 -0.2224 -0.5302 -0.0006
   82SAPS   C31 7646   2.353   3.811   9.059  0.9684  0.3600  0.4790
   82SAPS   O32 7647   2.267   3.728   9.048 -0.5849 -0.2653 -0.7949
   82SAPS   C32 7648   2.465   3.853   8.965 -0.5573  0.0087  0.3894
   82SAPS   H2X 7649   2.465   3.770   8.891  0.3203  0.3112  0.0487
   82SAPS   H2Y 7650   2.561   3.851   9.021 -0.5708 -0.2260  0.4043
   82SAPS   C23 7651   2.057   3.370   9.213 -0.5075  0.8969  0.0894
   82SAPS   H3R 7652   2.007   3.378   9.312  1.1609  2.7271  0.8223
   82SAPS   H3S 7653   2.087   3.267   9.185  0.3117  0.9936  0.5832
   82SAPS   C24 7654   1.969   3.440   9.109 -0.0187  0.2245  0.2617
   82SAPS   H4R 7655   1.973   3.545   9.144  1.3288  0.3521 -0.2329
   82SAPS   H4S 7656   1.864   3.405   9.106  0.1745 -0.3822  0.4668
   82SAPS   C25 7657   2.034   3.426   8.973  0.8353 -0.6272  0.1693
   82SAPS   H5R 7658   2.111   3.499   8.945  0.2751  0.2089  0.7980
   82SAPS   C26 7659   2.005   3.341   8.876  0.0731  0.7727 -0.0200
   82SAPS   H6R 7660   2.058   3.341   8.779  0.0175 -2.3646 -0.0954
   82SAPS   C27 7661   1.893   3.236   8.887 -0.4057 -0.3992 -0.2090
   82SAPS   H7R 7662   1.797   3.273   8.930 -1.3678 -1.8625 -1.0287
   82SAPS   H7S 7663   1.916   3.154   8.958  0.3454  1.8598  2.2357
   82SAPS   C28 7664   1.856   3.171   8.755 -1.0231 -0.6233  0.1983
   82SAPS   H8R 7665   1.789   3.230   8.691 -2.3592 -1.2681  0.9667
   82SAPS   C29 7666   1.902   3.054   8.706 -0.2154  0.5307 -0.2847
   82SAPS   H9R 7667   1.874   3.017   8.606  3.2599  0.1426 -1.1525
   82SAPS  C210 7668   1.994   2.961   8.766  0.6681 -0.9144  0.0141
   82SAPS  H10R 7669   1.951   2.859   8.760  3.5716 -2.1926  0.0168
   82SAPS  H10S 7670   2.007   2.990   8.872  0.4872  0.5317 -0.3467
   82SAPS  C211 7671   2.131   2.979   8.698 -1.0967  0.1180 -0.8627
   82SAPS  H11R 7672   2.166   3.082   8.710 -1.8513  1.0573 -5.4952
   82SAPS  C212 7673   2.175   2.906   8.597  0.3259  0.2159  0.3258
   82SAPS  H12R 7674   2.281   2.912   8.570  0.7371 -1.4517  1.5385
   82SAPS  C213 7675   2.102   2.785   8.535 -0.3998  0.0705  0.6232
   82SAPS  H13R 7676   1.997   2.820   8.524 -0.5850 -0.8493 -0.6152
   82SAPS  H13S 7677   2.091   2.701   8.606 -1.7500 -0.1430  0.1766
   82SAPS  C214 7678   2.165   2.742   8.407  0.3265  0.2386  0.3001
   82SAPS  H14R 7679   2.252   2.676   8.418 -0.9836 -1.4784  0.6730
   82SAPS  C215 7680   2.125   2.779   8.284 -0.2736  0.3071 -0.0687
   82SAPS  H15R 7681   2.177   2.731   8.200 -2.8113  1.1573 -2.1838
   82SAPS  C216 7682   2.007   2.864   8.250 -0.5063  0.3509 -0.1811
   82SAPS  H16R 7683   2.047   2.949   8.191  0.0736  0.4354  0.3253
   82SAPS  H16S 7684   1.952   2.902   8.339 -1.5546 -1.0658 -0.2173
   82SAPS  C217 7685   1.896   2.802   8.154  0.0367 -0.0009  0.0593
   82SAPS  H17R 7686   1.957   2.769   8.067 -0.6151  1.5853 -1.0289
   82SAPS  H17S 7687   1.823   2.882   8.128 -0.2632 -0.0218  0.8078
   82SAPS  C218 7688   1.823   2.677   8.212  0.3779  1.1140 -0.5952
   82SAPS  H18R 7689   1.767   2.696   8.306 -2.0887 -0.0372 -1.7789
   82SAPS  H18S 7690   1.893   2.593   8.232 -1.3587 -1.1107 -3.4680
   82SAPS  C219 7691   1.726   2.631   8.102  0.1367  0.7387 -0.7304
   82SAPS  H19R 7692   1.778   2.624   8.005 -0.4748  0.3676 -1.0324
   82SAPS  H19S 7693   1.642   2.704   8.100 -1.9260 -1.5964 -1.1103
   82SAPS  C220 7694   1.653   2.503   8.154  0.1155 -0.1418  0.6835
   82SAPS  H20R 7695   1.561   2.474   8.098  2.3713 -1.9095 -2.2538
   82SAPS  H20S 7696   1.609   2.527   8.253 -0.5655  1.3845  0.0229
   82SAPS  H20T 7697   1.721   2.417   8.170 -0.8685 -1.3417 -1.3289
   82SAPS   C33 7698   2.446   3.981   8.884 -0.2182 -0.0639  1.0868
   82SAPS   H3X 7699   2.467   4.070   8.948 -1.4047 -0.0629  1.4718
   82SAPS   H3Y 7700   2.340   3.988   8.854  0.5217  0.7986 -1.4658
   82SAPS   C34 7701   2.545   3.996   8.761 -0.5622  0.0771 -0.3608
   82SAPS   H4X 7702   2.651   3.980   8.791 -0.2996  0.5455 -1.0333
   82SAPS   H4Y 7703   2.547   4.102   8.729  1.5652  0.6569  1.5447
   82SAPS   C35 7704   2.517   3.908   8.636  0.1488  0.4990 -0.1554
   82SAPS   H5X 7705   2.408   3.917   8.615  0.1896  1.7316  0.1243
   82SAPS   H5Y 7706   2.537   3.803   8.667  1.8072  0.8233 -0.0618
   82SAPS   C36 7707   2.591   3.960   8.514 -0.1087  0.1295  0.2415
   82SAPS   H6X 7708   2.699   3.970   8.541  0.2724  2.0518 -1.9139
   82SAPS   H6Y 7709   2.553   4.060   8.485 -0.2476  0.2720  0.9076
   82SAPS   C37 7710   2.575   3.854   8.402 -0.4141  0.2619 -0.5174
   82SAPS   H7X 7711   2.615   3.755   8.433  1.8060  1.5511  0.8241
   82SAPS   H7Y 7712   2.637   3.893   8.319  1.6178  3.2067  2.2582
   82SAPS   C38 7713   2.423   3.831   8.362 -0.9024 -0.0636  0.3825
   82SAPS   H8X 7714   2.385   3.925   8.316 -3.3105 -1.2673 -0.2014
   82SAPS   H8Y 7715   2.356   3.802   8.445  3.4769 -1.3685  3.6554
   82SAPS   C39 7716   2.408   3.721   8.265 -0.1662 -0.1163 -0.0930
   82SAPS   H9X 7717   2.305   3.685   8.243  0.6511 -3.8873  1.8618
   82SAPS   H9Y 7718   2.458   3.628   8.300  0.3071  0.1412 -0.0788
   82SAPS  C310 7719   2.473   3.738   8.121  0.2557  0.2009  0.4925
   82SAPS  H10X 7720   2.578   3.765   8.143 -0.3542  1.8909  1.4794
   82SAPS  H10Y 7721   2.425   3.825   8.072  2.0744  0.7185 -0.4051
   82SAPS  C311 7722   2.455   3.616   8.033  0.3194 -0.3659  0.2733
   82SAPS  H11X 7723   2.346   3.602   8.018  0.3687 -1.6990  1.1089
   82SAPS  H11Y 7724   2.499   3.523   8.077  0.4805 -2.0391 -3.2261
   82SAPS  C312 7725   2.515   3.629   7.895 -0.7339 -0.6080  0.4274
   82SAPS  H12X 7726   2.517   3.540   7.828  2.3327 -0.6466  0.5117
   82SAPS  H12Y 7727   2.621   3.658   7.911 -0.5452 -0.2869 -1.2408
   82SAPS  C313 7728   2.451   3.743   7.805  0.1621  0.4473  0.2019
   82SAPS  H13X 7729   2.520   3.751   7.718  0.7056 -0.2544  0.5646
   82SAPS  H13Y 7730   2.467   3.842   7.852 -2.9289  2.0698 -2.0065
   82SAPS  C314 7731   2.301   3.718   7.767 -0.4948 -0.0876 -0.0454
   82SAPS  H14X 7732   2.270   3.810   7.714 -0.0116 -0.3166 -0.7325
   82SAPS  H14Y 7733   2.232   3.711   7.854  0.0831 -3.4443  0.2163
   82SAPS  C315 7734   2.271   3.598   7.682 -0.2377 -0.1237 -0.4780
   82SAPS  H15X 7735   2.298   3.506   7.738  0.3900  0.1151 -0.3911
   82SAPS  H15Y 7736   2.321   3.588   7.584 -1.0999 -1.1071 -0.8258
   82SAPS  C316 7737   2.122   3.606   7.645 -0.2130  0.2692 -0.4287
   82SAPS  H16X 7738   2.101   3.705   7.599 -1.3429 -0.8255 -2.3267
   82SAPS  H16Y 7739   2.070   3.600   7.743  1.3258 -1.2309  0.3416
   82SAPS  C317 7740   2.082   3.495   7.545 -0.0329  1.2856  0.0611
   82SAPS  H17X 7741   2.101   3.395   7.588 -0.3908  0.9746 -0.4860
   82SAPS  H17Y 7742   2.148   3.499   7.455 -1.8373  0.5209 -1.3349
   82SAPS  C318 7743   1.932   3.503   7.516 -0.1904  0.1318  0.2562
   82SAPS  H18X 7744   1.906   3.588   7.449  0.8451 -0.0526 -0.3915
   82SAPS  H18Y 7745   1.874   3.531   7.606 -0.0838 -0.8602  0.6398
   82SAPS  H18Z 7746   1.889   3.407   7.482  1.2578  0.8236 -3.8879
   83SAPS     N 7747   4.563   5.029   9.806 -0.5259 -0.6106 -0.7623
   83SAPS   HN1 7748   4.661   5.057   9.830 -0.2554 -2.2203  0.0375
   83SAPS   HN2 7749   4.556   4.926   9.813  0.0015 -0.7543 -2.2429
   83SAPS   HN3 7750   4.546   5.061   9.709 -0.9913  1.7676  0.0409
   83SAPS   C12 7751   4.460   5.102   9.892 -0.6722  0.0733 -0.5638
   83SAPS  H12A 7752   4.361   5.078   9.856 -0.1587  0.9008 -2.5394
   83SAPS   C13 7753   4.466   5.062  10.046  0.5152 -0.7400 -0.7758
   83SAPS  O13A 7754   4.512   4.954  10.091 -0.0726 -0.0767  0.0868
   83SAPS  O13B 7755   4.407   5.138  10.124 -0.6016  0.0997 -0.2092
   83SAPS   C11 7756   4.492   5.254   9.886  0.1738 -0.7779 -0.1254
   83SAPS  H11A 7757   4.575   5.284   9.954  0.5933  1.3607 -1.5168
   83SAPS  H11B 7758   4.399   5.305   9.918  1.2315  2.1576 -1.5173
   83SAPS     P 7759   4.556   5.437   9.713  0.4236 -0.1673  0.2745
   83SAPS   O13 7760   4.535   5.528   9.823  0.3597  0.4662 -0.0647
   83SAPS   O14 7761   4.694   5.432   9.667 -0.1233 -0.4713  0.2242
   83SAPS   O12 7762   4.527   5.286   9.751 -0.0661 -0.2596  0.4591
   83SAPS   O11 7763   4.452   5.470   9.607 -0.1785  0.4184  0.6105
   83SAPS    C1 7764   4.332   5.403   9.596 -0.0711 -0.2284 -0.7530
   83SAPS    HA 7765   4.283   5.378   9.693  0.9528 -0.5729 -0.3160
   83SAPS    HB 7766   4.259   5.481   9.564  1.6889  1.8985  0.2777
   83SAPS    C2 7767   4.330   5.279   9.504 -0.5151 -0.6042 -0.6282
   83SAPS    HS 7768   4.422   5.219   9.521 -0.2886  0.4324  2.0604
   83SAPS   O21 7769   4.336   5.322   9.368 -0.0050 -0.6902 -0.9483
   83SAPS   C21 7770   4.386   5.236   9.284 -0.7952 -0.0523 -0.1358
   83SAPS   O22 7771   4.440   5.129   9.309 -0.2311  0.3581 -0.5694
   83SAPS   C22 7772   4.380   5.291   9.143 -0.2297  0.1289 -0.7511
   83SAPS   H2R 7773   4.436   5.210   9.092 -1.4021 -0.4039 -1.1916
   83SAPS   H2S 7774   4.274   5.299   9.110 -0.0142  1.1513 -1.2204
   83SAPS    C3 7775   4.203   5.194   9.529  0.2791 -0.1604  0.0191
   83SAPS    HX 7776   4.118   5.259   9.503 -0.0111 -1.9071 -3.6979
   83SAPS    HY 7777   4.201   5.187   9.640  0.3276  0.6381  0.0684
   83SAPS   O31 7778   4.200   5.063   9.463  0.3488  0.5791 -0.0920
   83SAPS   C31 7779   4.271   4.975   9.529  0.5788  0.8137 -0.3956
   83SAPS   O32 7780   4.313   4.981   9.641  0.4446 -0.3767  0.4163
   83SAPS   C32 7781   4.275   4.838   9.444  0.5728  0.1734  0.1211
   83SAPS   H2X 7782   4.194   4.776   9.487  0.6743 -0.2884 -0.3556
   83SAPS   H2Y 7783   4.372   4.791   9.470 -0.2833 -2.2527 -0.9888
   83SAPS   C23 7784   4.452   5.427   9.136  0.0512 -0.3987  0.0242
   83SAPS   H3R 7785   4.554   5.419   9.178 -0.4334 -1.9476  0.9690
   83SAPS   H3S 7786   4.395   5.499   9.199 -1.2970 -0.0714 -1.5315
   83SAPS   C24 7787   4.469   5.474   8.988 -0.0664 -0.3378  0.1326
   83SAPS   H4R 7788   4.485   5.379   8.934 -2.2199 -1.0033  0.6262
   83SAPS   H4S 7789   4.555   5.538   8.958  1.0244 -3.1721 -2.9730
   83SAPS   C25 7790   4.339   5.537   8.930 -0.9170 -0.6907 -0.6773
   83SAPS   H5R 7791   4.311   5.629   8.983  1.2786 -0.9748  1.0362
   83SAPS   C26 7792   4.262   5.484   8.836 -0.5047  0.2506 -0.7672
   83SAPS   H6R 7793   4.179   5.543   8.797 -2.3880 -2.2890 -0.7251
   83SAPS   C27 7794   4.277   5.350   8.769  0.0865 -0.3091  0.2887
   83SAPS   H7R 7795   4.358   5.284   8.808  0.1007 -1.9224 -2.3536
   83SAPS   H7S 7796   4.282   5.352   8.658 -1.3360 -1.5818  0.1812
   83SAPS   C28 7797   4.146   5.274   8.799 -1.0485 -0.4901 -0.0215
   83SAPS   H8R 7798   4.126   5.258   8.906 -1.5414  4.0535  0.6584
   83SAPS   C29 7799   4.071   5.205   8.713 -0.1495  0.4721  0.6572
   83SAPS   H9R 7800   3.981   5.160   8.756  1.1404  0.2964  3.2869
   83SAPS  C210 7801   4.098   5.170   8.569 -0.1983  0.1926 -0.1550
   83SAPS  H10R 7802   4.026   5.089   8.542  0.2417 -0.9047  1.8581
   83SAPS  H10S 7803   4.199   5.125   8.558 -0.1291  0.6242 -1.3945
   83SAPS  C211 7804   4.078   5.283   8.473 -0.2816  0.3760 -0.4798
   83SAPS  H11R 7805   3.991   5.342   8.505  0.1853  0.9197 -0.2117
   83SAPS  C212 7806   4.138   5.289   8.350 -0.4937 -0.6072  0.2315
   83SAPS  H12R 7807   4.126   5.387   8.302  1.9657 -0.2520  0.2462
   83SAPS  C213 7808   4.244   5.195   8.301 -0.0317 -0.1287  0.2334
   83SAPS  H13R 7809   4.216   5.087   8.308  0.8065 -0.3377  0.3968
   83SAPS  H13S 7810   4.339   5.208   8.358  0.8314 -0.3182 -1.1335
   83SAPS  C214 7811   4.269   5.216   8.164 -0.2571 -0.7167 -0.5614
   83SAPS  H14R 7812   4.179   5.196   8.104  0.0059 -1.4404 -0.7171
   83SAPS  C215 7813   4.388   5.227   8.092 -0.1577  0.2934  0.1289
   83SAPS  H15R 7814   4.377   5.224   7.983  1.3690  0.9648 -0.0577
   83SAPS  C216 7815   4.532   5.226   8.144  0.1868  0.0386  0.0077
   83SAPS  H16R 7816   4.527   5.290   8.234  1.1579  1.6692 -1.0774
   83SAPS  H16S 7817   4.594   5.280   8.070  0.0829  0.1429 -0.0028
   83SAPS  C217 7818   4.583   5.083   8.163 -0.5998 -0.1166 -0.7694
   83SAPS  H17R 7819   4.587   5.033   8.064 -1.2265  2.6794 -2.2733
   83SAPS  H17S 7820   4.530   5.022   8.240  1.0981 -1.9139 -1.0014
   83SAPS  C218 7821   4.732   5.085   8.206  0.0485  0.3218 -1.2855
   83SAPS  H18R 7822   4.744   5.154   8.292  1.2377  0.6555 -1.6998
   83SAPS  H18S 7823   4.785   5.118   8.114 -0.5677  3.0829 -0.6787
   83SAPS  C219 7824   4.790   4.939   8.241  0.4593 -0.2056 -0.0923
   83SAPS  H19R 7825   4.756   4.911   8.344 -1.9203  0.5056 -0.6479
   83SAPS  H19S 7826   4.900   4.942   8.236  0.5594 -0.2991  1.5264
   83SAPS  C220 7827   4.741   4.824   8.156 -0.6061 -0.2529 -0.1913
   83SAPS  H20R 7828   4.790   4.735   8.202  0.8721  0.9124  0.5038
   83SAPS  H20S 7829   4.756   4.838   8.047  1.8883 -0.7010  0.0862
   83SAPS  H20T 7830   4.631   4.810   8.167 -0.7358  0.1997 -0.8611
   83SAPS   C33 7831   4.250   4.851   9.291 -0.3428  0.0167 -0.2088
   83SAPS   H3X 7832   4.297   4.947   9.263 -1.2454  0.4189 -0.3842
   83SAPS   H3Y 7833   4.140   4.862   9.274 -0.4480 -0.4384  0.1532
   83SAPS   C34 7834   4.314   4.736   9.206  0.5573  0.2264  0.7542
   83SAPS   H4X 7835   4.255   4.643   9.222 -1.5491  0.9003 -2.5166
   83SAPS   H4Y 7836   4.420   4.726   9.237  0.7992 -0.4475 -0.2588
   83SAPS   C35 7837   4.306   4.775   9.050 -0.6963  0.1059 -0.1747
   83SAPS   H5X 7838   4.352   4.690   8.996 -0.9344  0.9170 -1.6949
   83SAPS   H5Y 7839   4.369   4.866   9.041  0.4160 -0.6503 -0.1544
   83SAPS   C36 7840   4.180   4.800   8.972  0.7625  0.0871  0.2723
   83SAPS   H6X 7841   4.145   4.905   8.985  0.6689 -0.0772  1.3815
   83SAPS   H6Y 7842   4.101   4.731   9.010  0.4150  0.4946  0.2970
   83SAPS   C37 7843   4.206   4.768   8.823 -0.0769  0.0183 -0.4569
   83SAPS   H7X 7844   4.242   4.663   8.823  0.7775  0.3148 -0.6377
   83SAPS   H7Y 7845   4.279   4.840   8.781  0.0830  0.2955  0.2856
   83SAPS   C38 7846   4.075   4.785   8.735  0.6531 -0.9193  0.0990
   83SAPS   H8X 7847   4.041   4.890   8.725  1.3554 -0.5910  1.0666
   83SAPS   H8Y 7848   3.981   4.745   8.779 -0.3354  0.8869 -0.3110
   83SAPS   C39 7849   4.090   4.722   8.595  0.3998 -0.3459 -0.4428
   83SAPS   H9X 7850   4.115   4.614   8.587 -1.5848 -0.8255 -0.5065
   83SAPS   H9Y 7851   4.169   4.784   8.547  0.6352  0.6849  1.2248
   83SAPS  C310 7852   3.967   4.714   8.507  0.2050 -0.6155  0.0539
   83SAPS  H10X 7853   3.937   4.820   8.491 -0.3923 -0.2293  3.3951
   83SAPS  H10Y 7854   3.881   4.669   8.562 -0.3164 -2.0646 -1.9106
   83SAPS  C311 7855   4.011   4.636   8.377 -0.4340 -0.2780 -0.3086
   83SAPS  H11X 7856   4.035   4.534   8.415  1.8574 -0.4668 -2.2160
   83SAPS  H11Y 7857   4.096   4.686   8.327  0.6408 -2.4909 -0.7827
   83SAPS  C312 7858   3.894   4.623   8.281 -0.4110  0.0247 -0.2998
   83SAPS  H12X 7859   3.809   4.590   8.345  1.6279  0.0800  2.5191
   83SAPS  H12Y 7860   3.922   4.549   8.203  0.7116 -1.9477  1.8995
   83SAPS  C313 7861   3.865   4.754   8.201 -0.0688 -0.4036  0.0922
   83SAPS  H13X 7862   3.954   4.794   8.147  0.9185 -1.8237  0.6205
   83SAPS  H13Y 7863   3.829   4.835   8.267 -0.2701  0.2251 -0.7818
   83SAPS  C314 7864   3.750   4.741   8.097 -0.3266 -0.1201 -0.2531
   83SAPS  H14X 7865   3.649   4.742   8.143  0.1776 -3.1743  1.0732
   83SAPS  H14Y 7866   3.764   4.643   8.046  0.6991 -0.8295  1.3723
   83SAPS  C315 7867   3.753   4.850   7.978  0.2532  0.4448 -0.2160
   83SAPS  H15X 7868   3.856   4.858   7.937  0.3979  0.7112  0.1890
   83SAPS  H15Y 7869   3.741   4.949   8.026 -3.0551  0.0246 -0.0296
   83SAPS  C316 7870   3.671   4.827   7.860 -0.6652 -0.4587 -0.0760
   83SAPS  H16X 7871   3.682   4.916   7.794 -1.3412  1.7417  2.6656
   83SAPS  H16Y 7872   3.566   4.815   7.895  0.4216 -1.9895  2.7823
   83SAPS  C317 7873   3.706   4.706   7.770 -0.6507  0.2002 -0.8136
   83SAPS  H17X 7874   3.620   4.690   7.702 -0.9968 -1.7071  0.0547
   83SAPS  H17Y 7875   3.717   4.619   7.838  1.8143  0.5242 -0.7520
   83SAPS  C318 7876   3.837   4.721   7.687  0.2020 -0.3372  0.3621
   83SAPS  H18X 7877   3.828   4.816   7.630  1.2910 -2.0638 -2.8323
   83SAPS  H18Y 7878   3.838   4.642   7.608  0.5409  1.1397 -1.1353
   83SAPS  H18Z 7879   3.931   4.733   7.745  0.4733  0.4127 -0.2244
   84SAPS     N 7880   6.097   2.978   9.703 -0.2562 -0.0390  0.0290
   84SAPS   HN1 7881   6.183   2.929   9.670 -0.6913  0.2111 -1.5638
   84SAPS   HN2 7882   6.041   2.897   9.736  1.4005 -1.4515 -0.5088
   84SAPS   HN3 7883   6.053   3.022   9.619  1.1026 -0.7237 -1.0792
   84SAPS   C12 7884   6.112   3.084   9.800 -0.6109 -0.8303 -0.3138
   84SAPS  H12A 7885   6.009   3.096   9.832  0.4787  0.5981  2.8681
   84SAPS   C13 7886   6.189   3.045   9.932  0.5601 -0.5601  0.7816
   84SAPS  O13A 7887   6.212   2.919   9.956  0.4286  0.0644 -0.2090
   84SAPS  O13B 7888   6.188   3.131  10.025  0.1158  0.3723  0.1680
   84SAPS   C11 7889   6.178   3.204   9.721 -0.2884  0.0516  0.4522
   84SAPS  H11A 7890   6.273   3.161   9.683 -0.3948  0.2762 -0.0727
   84SAPS  H11B 7891   6.202   3.287   9.790  1.1718  2.1065 -2.4257
   84SAPS     P 7892   5.998   3.353   9.598  0.5707 -0.1782 -0.0771
   84SAPS   O13 7893   5.872   3.291   9.645 -0.0390 -0.5448  0.0856
   84SAPS   O14 7894   6.045   3.475   9.671  0.5770 -0.0304  0.0997
   84SAPS   O12 7895   6.105   3.239   9.602 -0.4563  0.1414  0.3985
   84SAPS   O11 7896   5.987   3.388   9.450 -0.2910 -0.6556 -0.4786
   84SAPS    C1 7897   5.988   3.289   9.348  0.2380 -0.4918  0.2525
   84SAPS    HA 7898   5.993   3.188   9.393 -1.0528 -0.6747 -0.0044
   84SAPS    HB 7899   5.893   3.303   9.293  0.3239  3.1979  0.8917
   84SAPS    C2 7900   6.112   3.311   9.253 -0.5990 -0.6123  1.0866
   84SAPS    HS 7901   6.204   3.303   9.314  0.0779  1.7277  0.4219
   84SAPS   O21 7902   6.097   3.432   9.176  0.4449 -0.3537 -0.9345
   84SAPS   C21 7903   6.205   3.486   9.135 -0.0712 -0.4444  0.7234
   84SAPS   O22 7904   6.319   3.452   9.159  0.1200  0.2415 -0.0923
   84SAPS   C22 7905   6.170   3.592   9.036  0.1867  0.4838 -0.0678
   84SAPS   H2R 7906   6.088   3.651   9.081 -0.9119  0.3087 -1.8010
   84SAPS   H2S 7907   6.257   3.661   9.032  1.1033 -0.6052  0.5977
   84SAPS    C3 7908   6.105   3.190   9.148 -0.0864  1.3861  0.2958
   84SAPS    HX 7909   6.115   3.100   9.213  0.1465  0.2771 -1.2528
   84SAPS    HY 7910   6.203   3.177   9.098 -0.4828 -0.1879 -0.1078
   84SAPS   O31 7911   6.000   3.192   9.055 -0.2748  1.1946  0.4531
   84SAPS   C31 7912   6.020   3.109   8.952 -0.3962  0.5425  0.1300
   84SAPS   O32 7913   6.119   3.044   8.931 -0.2162 -0.3963  0.0712
   84SAPS   C32 7914   5.896   3.121   8.861 -0.6261  0.5414  0.0904
   84SAPS   H2X 7915   5.816   3.165   8.926  0.5649  1.1400  1.1856
   84SAPS   H2Y 7916   5.875   3.015   8.838  0.4426  0.3871 -0.1987
   84SAPS   C23 7917   6.149   3.534   8.897  0.5310  0.4398 -0.2794
   84SAPS   H3R 7918   6.102   3.605   8.825 -3.3408 -1.4372  0.2916
   84SAPS   H3S 7919   6.078   3.449   8.910 -1.6856  2.0279 -1.6981
   84SAPS   C24 7920   6.277   3.481   8.827  0.5389  0.3940  0.0990
   84SAPS   H4R 7921   6.308   3.386   8.875 -0.5887 -1.3807 -2.6049
   84SAPS   H4S 7922   6.348   3.566   8.835  0.9473  0.0181  0.4422
   84SAPS   C25 7923   6.254   3.471   8.675 -0.0177 -0.9299 -0.7436
   84SAPS   H5R 7924   6.180   3.539   8.631 -0.1777 -0.8415 -0.3322
   84SAPS   C26 7925   6.295   3.372   8.593 -0.1755 -0.4297  0.4661
   84SAPS   H6R 7926   6.258   3.379   8.490 -0.8516  1.2806  0.8099
   84SAPS   C27 7927   6.367   3.243   8.635 -0.3990 -0.3619  0.1757
   84SAPS   H7R 7928   6.339   3.209   8.737 -0.4605 -0.2339  0.2019
   84SAPS   H7S 7929   6.476   3.266   8.638 -0.9979  2.9704 -1.1479
   84SAPS   C28 7930   6.354   3.130   8.540 -0.4234  0.9736 -0.2814
   84SAPS   H8R 7931   6.296   3.048   8.587 -1.5423  0.9824 -1.6163
   84SAPS   C29 7932   6.399   3.102   8.419 -0.4266 -0.6248 -0.0856
   84SAPS   H9R 7933   6.368   3.010   8.368  0.0109 -0.5691 -0.4498
   84SAPS  C210 7934   6.484   3.187   8.328 -0.1816 -0.6588  0.4526
   84SAPS  H10R 7935   6.546   3.268   8.372  0.5737 -0.0443 -1.6967
   84SAPS  H10S 7936   6.423   3.252   8.262  2.6592  0.7305 -0.8796
   84SAPS  C211 7937   6.571   3.106   8.230 -0.1212 -0.0698  0.3695
   84SAPS  H11R 7938   6.595   3.001   8.252 -1.3737 -0.5396 -0.4510
   84SAPS  C212 7939   6.623   3.146   8.117  0.2027  0.2654  0.5194
   84SAPS  H12R 7940   6.688   3.082   8.055 -3.0378  0.2375 -3.1210
   84SAPS  C213 7941   6.601   3.280   8.056  0.2813 -0.2263 -0.5733
   84SAPS  H13R 7942   6.556   3.353   8.127 -0.4789  1.1974 -2.4697
   84SAPS  H13S 7943   6.521   3.279   7.978 -0.9408  0.2101  0.6521
   84SAPS  C214 7944   6.719   3.343   7.994 -0.3392 -0.0500 -0.0716
   84SAPS  H14R 7945   6.788   3.399   8.058  0.1880 -0.1416 -0.5568
   84SAPS  C215 7946   6.741   3.364   7.864 -0.9893 -0.0392 -0.0577
   84SAPS  H15R 7947   6.822   3.429   7.827 -1.8656  0.2990 -1.4042
   84SAPS  C216 7948   6.642   3.327   7.752  0.3090  0.8059 -0.6607
   84SAPS  H16R 7949   6.551   3.390   7.764 -1.1093 -1.1626 -0.8497
   84SAPS  H16S 7950   6.603   3.224   7.766  1.4159  0.5721  0.8365
   84SAPS  C217 7951   6.705   3.345   7.615  0.9239 -0.4096  0.0694
   84SAPS  H17R 7952   6.804   3.295   7.610  0.4131 -1.5768  1.3506
   84SAPS  H17S 7953   6.734   3.449   7.589  0.4836  0.0117  1.2257
   84SAPS  C218 7954   6.607   3.290   7.504  0.4250 -0.9311 -0.0595
   84SAPS  H18R 7955   6.512   3.340   7.530  1.3124  0.0835  1.2624
   84SAPS  H18S 7956   6.592   3.180   7.514 -0.1352 -0.9601 -1.0726
   84SAPS  C219 7957   6.673   3.313   7.365  0.2891  0.1371  0.1651
   84SAPS  H19R 7958   6.764   3.250   7.372  0.5956  0.6476  0.9141
   84SAPS  H19S 7959   6.707   3.419   7.359  0.9084  0.0480  1.9213
   84SAPS  C220 7960   6.587   3.270   7.252  0.2262  0.6611 -0.4469
   84SAPS  H20R 7961   6.653   3.265   7.163  0.8664 -0.6833  0.0939
   84SAPS  H20S 7962   6.511   3.349   7.234 -1.2134 -1.0126 -1.7599
   84SAPS  H20T 7963   6.532   3.178   7.280 -1.0132  1.1421 -1.2926
   84SAPS   C33 7964   5.917   3.207   8.738 -0.0837  0.6902 -0.4108
   84SAPS   H3X 7965   6.012   3.177   8.688  0.0192  0.6481 -0.1931
   84SAPS   H3Y 7966   5.936   3.312   8.770 -1.2376  0.5024  0.9335
   84SAPS   C34 7967   5.792   3.200   8.654 -0.0046 -0.4268  0.9127
   84SAPS   H4X 7968   5.708   3.235   8.717 -0.2727  1.6981 -0.5436
   84SAPS   H4Y 7969   5.763   3.096   8.630  2.2931 -0.9596  0.3308
   84SAPS   C35 7970   5.801   3.285   8.527  0.2188  0.4254 -0.2267
   84SAPS   H5X 7971   5.888   3.251   8.467 -0.8330 -1.2423 -0.8653
   84SAPS   H5Y 7972   5.828   3.387   8.560 -0.4559  0.8063 -0.8413
   84SAPS   C36 7973   5.672   3.303   8.448  0.1893  0.2968  0.0327
   84SAPS   H6X 7974   5.593   3.352   8.508  0.5137  1.6211 -0.6140
   84SAPS   H6Y 7975   5.643   3.198   8.429  2.8171 -0.3316 -0.7377
   84SAPS   C37 7976   5.697   3.365   8.314 -0.1323 -0.3124  0.1280
   84SAPS   H7X 7977   5.794   3.331   8.271  0.5825  2.1297 -0.2512
   84SAPS   H7Y 7978   5.692   3.476   8.318 -3.3361 -0.4181  0.0413
   84SAPS   C38 7979   5.595   3.309   8.210 -0.1350 -0.5629  0.0509
   84SAPS   H8X 7980   5.607   3.199   8.219  1.2210 -0.2992  1.5822
   84SAPS   H8Y 7981   5.616   3.328   8.102  1.9870  0.1586  0.5736
   84SAPS   C39 7982   5.451   3.343   8.239  0.9306  0.4922  0.5240
   84SAPS   H9X 7983   5.430   3.349   8.348  0.4067 -0.3036  0.4751
   84SAPS   H9Y 7984   5.385   3.275   8.181  3.2457 -0.6891 -0.8153
   84SAPS  C310 7985   5.431   3.487   8.195 -1.0756 -0.3953 -0.1751
   84SAPS  H10X 7986   5.507   3.551   8.245 -1.4554  0.1068 -0.2430
   84SAPS  H10Y 7987   5.331   3.510   8.235 -0.3932  1.9590  0.2438
   84SAPS  C311 7988   5.414   3.508   8.040  0.4239 -0.6028  0.8168
   84SAPS  H11X 7989   5.317   3.458   8.020 -0.1972  0.3612  1.4236
   84SAPS  H11Y 7990   5.490   3.455   7.978 -2.1408 -1.9774 -1.3089
   84SAPS  C312 7991   5.395   3.661   8.001  0.0830 -0.2015  0.1976
   84SAPS  H12X 7992   5.494   3.699   8.035  1.0241 -2.5785  0.2232
   84SAPS  H12Y 7993   5.316   3.711   8.061 -0.4954 -0.6153 -0.2139
   84SAPS  C313 7994   5.379   3.676   7.854 -0.3891  0.0711 -0.3635
   84SAPS  H13X 7995   5.472   3.641   7.807  0.8806  2.7225  0.0563
   84SAPS  H13Y 7996   5.359   3.781   7.823  2.6804  0.6616 -0.5168
   84SAPS  C314 7997   5.259   3.594   7.802 -0.0444  1.6334 -0.1686
   84SAPS  H14X 7998   5.175   3.587   7.875  0.8738 -2.1186  0.6494
   84SAPS  H14Y 7999   5.303   3.492   7.803 -1.5444  0.9547 -0.6309
   84SAPS  C315 8000   5.220   3.628   7.659  0.6432 -0.8473 -0.1518
   84SAPS  H15X 8001   5.300   3.600   7.586  1.3234  1.9277 -0.5422
   84SAPS  H15Y 8002   5.202   3.737   7.652  0.0776 -1.0046 -1.2728
   84SAPS  C316 8003   5.089   3.568   7.604  0.3938  0.4149  0.7078
   84SAPS  H16X 8004   5.007   3.635   7.640  0.3851  0.9384 -0.2590
   84SAPS  H16Y 8005   5.063   3.465   7.634  1.3089 -0.1066 -0.2457
   84SAPS  C317 8006   5.091   3.580   7.450 -0.6779  0.3071 -0.2524
   84SAPS  H17X 8007   5.159   3.501   7.412  0.4612  1.2070 -0.1158
   84SAPS  H17Y 8008   5.129   3.678   7.414  0.2959 -0.3475 -1.0396
   84SAPS  C318 8009   4.946   3.550   7.398 -0.2599  0.1719 -0.3966
   84SAPS  H18X 8010   4.918   3.443   7.409  1.3169 -0.2795 -0.7657
   84SAPS  H18Y 8011   4.943   3.567   7.288  1.4197  0.4882 -0.3966
   84SAPS  H18Z 8012   4.878   3.618   7.455  0.2393  0.0964  0.2967
   85SAPS     N 8013   2.426   6.418   9.828 -0.0765 -0.2049  0.1610
   85SAPS   HN1 8014   2.403   6.369   9.740  1.8206  0.3158 -0.6479
   85SAPS   HN2 8015   2.350   6.404   9.897  2.6320 -0.9479  3.1512
   85SAPS   HN3 8016   2.431   6.520   9.807  1.5303  0.3817  3.0615
   85SAPS   C12 8017   2.553   6.368   9.889  0.1539  0.0346  0.0651
   85SAPS  H12A 8018   2.623   6.377   9.808 -0.1887  0.7892 -0.1521
   85SAPS   C13 8019   2.600   6.428  10.022 -0.1624 -0.2790  0.3553
   85SAPS  O13A 8020   2.523   6.504  10.081  0.8107  0.2127 -0.2719
   85SAPS  O13B 8021   2.708   6.394  10.072  0.3697  0.2140  0.4722
   85SAPS   C11 8022   2.538   6.205   9.922 -0.1123  0.1326  0.2782
   85SAPS  H11A 8023   2.471   6.180  10.007  2.9945 -2.5071  2.0765
   85SAPS  H11B 8024   2.636   6.173   9.964 -0.5226 -1.5837 -0.0263
   85SAPS     P 8025   2.539   5.972   9.802  0.1965  0.2582 -0.0200
   85SAPS   O13 8026   2.632   5.953   9.692  0.0128 -0.0083 -0.1307
   85SAPS   O14 8027   2.584   5.925   9.937 -0.1841 -0.6454 -0.7919
   85SAPS   O12 8028   2.505   6.126   9.808 -0.1426  0.9538 -0.1768
   85SAPS   O11 8029   2.398   5.905   9.765  0.0770 -0.0158 -0.1872
   85SAPS    C1 8030   2.281   5.946   9.819  0.6191 -0.0755 -0.4702
   85SAPS    HA 8031   2.242   5.857   9.873  0.1541  0.9715  0.9103
   85SAPS    HB 8032   2.289   6.030   9.890  1.9396  0.1799 -0.9052
   85SAPS    C2 8033   2.177   5.997   9.717 -0.4836 -0.7318  0.0303
   85SAPS    HS 8034   2.082   6.002   9.776  0.4550 -0.3727  1.5516
   85SAPS   O21 8035   2.163   5.895   9.611 -0.1522 -0.3462 -0.7612
   85SAPS   C21 8036   2.070   5.925   9.524  0.2682 -0.1915  0.6260
   85SAPS   O22 8037   1.986   6.012   9.536 -0.2301 -0.2057 -0.1606
   85SAPS   C22 8038   2.081   5.834   9.402 -0.0158  0.2526  0.2401
   85SAPS   H2R 8039   2.189   5.810   9.393 -0.2175 -0.0682 -1.6062
   85SAPS   H2S 8040   2.019   5.743   9.419  0.3063 -0.2925 -1.4286
   85SAPS    C3 8041   2.222   6.129   9.654  0.3909 -0.0983  0.5741
   85SAPS    HX 8042   2.261   6.194   9.735  1.7153 -0.9122  0.6055
   85SAPS    HY 8043   2.138   6.182   9.604  1.3314  1.7693  0.9334
   85SAPS   O31 8044   2.318   6.111   9.544 -0.4885 -0.2072 -0.0496
   85SAPS   C31 8045   2.410   6.211   9.524 -0.9103  0.7067  0.0507
   85SAPS   O32 8046   2.400   6.322   9.575  0.0858  0.1773  0.4184
   85SAPS   C32 8047   2.512   6.154   9.428 -0.4223 -0.2411 -0.0639
   85SAPS   H2X 8048   2.457   6.088   9.357 -0.0405  0.1494 -0.7266
   85SAPS   H2Y 8049   2.583   6.098   9.491 -0.8031 -0.4331  0.1946
   85SAPS   C23 8050   2.044   5.910   9.277 -0.3775  0.2327  0.2492
   85SAPS   H3R 8051   1.955   5.970   9.307 -0.3243  1.1532 -1.3513
   85SAPS   H3S 8052   2.009   5.837   9.200  2.5934 -0.4475 -0.4967
   85SAPS   C24 8053   2.170   5.983   9.221  1.3145 -0.5008 -0.0365
   85SAPS   H4R 8054   2.237   5.906   9.176 -0.1603  0.6578 -4.4609
   85SAPS   H4S 8055   2.227   6.032   9.303  1.2925 -0.9394  0.2402
   85SAPS   C25 8056   2.123   6.075   9.114 -0.6612 -0.1645  0.2882
   85SAPS   H5R 8057   2.119   6.022   9.018 -0.4051  1.5043 -0.6775
   85SAPS   C26 8058   2.109   6.213   9.110 -0.8832 -0.0030 -0.8629
   85SAPS   H6R 8059   2.089   6.255   9.010 -2.3700 -0.7842 -0.9106
   85SAPS   C27 8060   2.145   6.313   9.221 -0.0441 -0.3165  0.6808
   85SAPS   H7R 8061   2.253   6.336   9.221 -0.1891  0.3756 -0.2882
   85SAPS   H7S 8062   2.127   6.260   9.317  2.2458  1.9640  2.4247
   85SAPS   C28 8063   2.074   6.445   9.209 -0.4202 -0.7731  0.0444
   85SAPS   H8R 8064   1.976   6.462   9.258 -0.2880 -1.7682  0.6596
   85SAPS   C29 8065   2.121   6.556   9.144  0.2376 -0.2936 -0.3091
   85SAPS   H9R 8066   2.058   6.646   9.142 -1.0643 -1.1732  0.4347
   85SAPS  C210 8067   2.246   6.567   9.066 -0.0865 -0.0812 -0.6806
   85SAPS  H10R 8068   2.328   6.521   9.126  2.4470  2.7214 -1.8579
   85SAPS  H10S 8069   2.266   6.675   9.050  0.9554 -0.3989 -1.5624
   85SAPS  C211 8070   2.232   6.503   8.931  0.3179  0.1625 -0.0343
   85SAPS  H11R 8071   2.268   6.399   8.926  0.8758  0.1472  3.0711
   85SAPS  C212 8072   2.164   6.553   8.829  0.1873 -0.7683  0.1426
   85SAPS  H12R 8073   2.175   6.508   8.730 -0.2025  0.1482 -0.3221
   85SAPS  C213 8074   2.082   6.682   8.830 -0.1682  0.0146 -0.2097
   85SAPS  H13R 8075   2.132   6.750   8.757 -1.3420  1.9579  0.7458
   85SAPS  H13S 8076   2.077   6.740   8.925 -0.4104 -1.6018  0.7919
   85SAPS  C214 8077   1.944   6.659   8.786 -0.0250 -0.3202 -0.1171
   85SAPS  H14R 8078   1.871   6.636   8.866 -0.7607 -0.3992 -0.8041
   85SAPS  C215 8079   1.890   6.694   8.669 -0.7050 -0.4471 -0.1929
   85SAPS  H15R 8080   1.792   6.647   8.649 -0.8566  0.0258 -0.5700
   85SAPS  C216 8081   1.972   6.750   8.548 -0.3008 -0.0521 -0.0501
   85SAPS  H16R 8082   1.918   6.712   8.458  1.1413 -0.7073 -0.6666
   85SAPS  H16S 8083   2.077   6.714   8.533 -0.7989 -2.1905  1.3657
   85SAPS  C217 8084   1.973   6.903   8.536  0.4925 -1.0697  0.5391
   85SAPS  H17R 8085   2.015   6.938   8.632  1.6348 -2.1888  0.4578
   85SAPS  H17S 8086   1.869   6.942   8.533 -0.3140 -3.1832 -0.0786
   85SAPS  C218 8087   2.048   6.948   8.415  0.6220 -0.6308  0.2787
   85SAPS  H18R 8088   2.020   6.900   8.319 -1.6093 -0.5035  0.8430
   85SAPS  H18S 8089   2.154   6.918   8.433  0.9279 -0.6536 -1.4785
   85SAPS  C219 8090   2.041   7.100   8.392  0.3098 -0.1645  0.2868
   85SAPS  H19R 8091   2.086   7.145   8.482  0.5483  0.2084 -0.0176
   85SAPS  H19S 8092   1.934   7.128   8.385  1.1664  3.0868 -0.5316
   85SAPS  C220 8093   2.131   7.134   8.267  0.0373  0.3496  0.4418
   85SAPS  H20R 8094   2.236   7.108   8.295  0.1776 -1.0774 -1.2700
   85SAPS  H20S 8095   2.129   7.244   8.257  0.3241  0.3657  0.5492
   85SAPS  H20T 8096   2.105   7.078   8.174  0.5306 -1.9577  1.6432
   85SAPS   C33 8097   2.608   6.251   9.354 -0.0771 -0.3771  0.4248
   85SAPS   H3X 8098   2.698   6.205   9.306  0.8853  0.4786  1.3951
   85SAPS   H3Y 8099   2.639   6.328   9.427 -2.5865 -0.2583  1.3807
   85SAPS   C34 8100   2.541   6.316   9.226 -0.6229  0.6379 -0.0167
   85SAPS   H4X 8101   2.460   6.381   9.265 -0.0826 -0.1643  2.5768
   85SAPS   H4Y 8102   2.496   6.229   9.174 -1.3426 -0.4554  2.3607
   85SAPS   C35 8103   2.648   6.390   9.147 -0.0032  0.1408 -0.1413
   85SAPS   H5X 8104   2.740   6.412   9.205  0.9773 -1.2355 -1.1235
   85SAPS   H5Y 8105   2.611   6.490   9.118  0.3692  0.7062  1.3300
   85SAPS   C36 8106   2.685   6.325   9.010  0.0784  0.0195 -0.0435
   85SAPS   H6X 8107   2.729   6.225   9.027  0.6511  0.4705  1.1954
   85SAPS   H6Y 8108   2.762   6.384   8.956 -0.7962  0.4582 -0.8268
   85SAPS   C37 8109   2.567   6.313   8.916 -0.1455  0.4826 -0.0564
   85SAPS   H7X 8110   2.495   6.397   8.926 -1.0811 -0.4393  1.0200
   85SAPS   H7Y 8111   2.512   6.219   8.939 -0.5544  0.5457 -0.7360
   85SAPS   C38 8112   2.603   6.324   8.770 -0.6315 -0.2988  0.5018
   85SAPS   H8X 8113   2.676   6.243   8.746 -0.1571  0.4519 -0.6020
   85SAPS   H8Y 8114   2.661   6.415   8.745  0.5825 -1.3407 -0.5275
   85SAPS   C39 8115   2.491   6.320   8.668 -0.3814 -1.1829  0.0821
   85SAPS   H9X 8116   2.416   6.398   8.692 -2.0422 -2.0738 -2.0910
   85SAPS   H9Y 8117   2.433   6.226   8.672  0.3512 -1.7073 -1.3525
   85SAPS  C310 8118   2.546   6.345   8.529  0.7117  0.4001  0.7776
   85SAPS  H10X 8119   2.623   6.272   8.496  0.7966  0.8411 -0.0221
   85SAPS  H10Y 8120   2.588   6.447   8.511  0.1752  0.7691  1.5844
   85SAPS  C311 8121   2.423   6.331   8.431 -0.4118 -0.2199  1.0234
   85SAPS  H11X 8122   2.360   6.421   8.451  0.4370  0.0118  2.7094
   85SAPS  H11Y 8123   2.354   6.245   8.447 -0.6848 -0.2074 -0.0554
   85SAPS  C312 8124   2.455   6.334   8.283 -1.2949 -0.1836  0.0428
   85SAPS  H12X 8125   2.487   6.437   8.255  1.7268 -1.1983 -0.4209
   85SAPS  H12Y 8126   2.364   6.319   8.221 -1.0423  0.7195 -0.5583
   85SAPS  C313 8127   2.566   6.239   8.243  0.4178  0.0749  0.5080
   85SAPS  H13X 8128   2.526   6.141   8.277  3.1523 -1.2679 -0.0845
   85SAPS  H13Y 8129   2.662   6.250   8.296  0.5856 -1.8312  0.6130
   85SAPS  C314 8130   2.589   6.236   8.091  0.5852  0.2718 -0.1036
   85SAPS  H14X 8131   2.625   6.337   8.062 -0.8252  0.4207 -1.4115
   85SAPS  H14Y 8132   2.488   6.226   8.045  0.1175 -2.2086  1.3491
   85SAPS  C315 8133   2.686   6.128   8.044  0.4658 -0.6617  0.5696
   85SAPS  H15X 8134   2.639   6.028   8.055 -1.8322  0.3455  0.1965
   85SAPS  H15Y 8135   2.770   6.113   8.115  1.3485  1.2649 -0.0089
   85SAPS  C316 8136   2.723   6.138   7.896 -0.3804 -0.0206 -0.4946
   85SAPS  H16X 8137   2.767   6.235   7.867 -1.7570  0.3568 -1.3398
   85SAPS  H16Y 8138   2.623   6.126   7.849 -0.4303 -2.1330  0.0835
   85SAPS  C317 8139   2.813   6.027   7.845 -0.5135  0.5295 -0.1954
   85SAPS  H17X 8140   2.818   6.028   7.734 -1.0242  0.8583 -0.2148
   85SAPS  H17Y 8141   2.764   5.932   7.873 -1.2936  0.3742 -1.9898
   85SAPS  C318 8142   2.953   6.020   7.901 -0.0997 -0.0116 -0.8977
   85SAPS  H18X 8143   2.937   6.010   8.011 -0.0752 -1.1205 -0.9824
   85SAPS  H18Y 8144   3.006   6.111   7.868  0.6403 -0.4136 -0.8247
   85SAPS  H18Z 8145   2.995   5.920   7.875 -0.6365 -0.1200 -1.3676
   86SAPS     N 8146   4.951   6.245   9.728  0.7017 -0.0784  0.1388
   86SAPS   HN1 8147   4.847   6.244   9.719  0.9060 -0.3436 -2.5334
   86SAPS   HN2 8148   4.964   6.344   9.756 -2.4326  0.1880  0.8622
   86SAPS   HN3 8149   4.990   6.225   9.634 -1.2274 -2.9234 -0.1360
   86SAPS   C12 8150   5.006   6.150   9.826  0.1735  0.2464 -0.5980
   86SAPS  H12A 8151   5.114   6.160   9.827  0.1772  0.2950 -1.0724
   86SAPS   C13 8152   4.959   6.178   9.964 -0.3881  0.5793 -0.4779
   86SAPS  O13A 8153   4.882   6.278   9.983 -0.0164  0.1132 -0.3771
   86SAPS  O13B 8154   4.979   6.095  10.052  0.1401  0.3221 -0.2463
   86SAPS   C11 8155   4.975   6.004   9.783  0.6901  0.3839  0.0582
   86SAPS  H11A 8156   4.865   5.993   9.788  1.0130 -2.8685  1.0329
   86SAPS  H11B 8157   5.012   5.933   9.860 -1.4223 -1.5720 -0.6672
   86SAPS     P 8158   5.107   5.843   9.623 -0.1532 -0.4523 -0.0471
   86SAPS   O13 8159   5.171   5.793   9.748 -0.3997  0.0283 -0.3210
   86SAPS   O14 8160   5.004   5.757   9.562 -0.4102 -0.1170 -0.4807
   86SAPS   O12 8161   5.029   5.977   9.653  0.6687 -0.3690 -0.6165
   86SAPS   O11 8162   5.214   5.872   9.513  0.8641 -0.7321  0.0914
   86SAPS    C1 8163   5.177   5.969   9.406 -0.1330  0.4355 -0.2513
   86SAPS    HA 8164   5.095   6.038   9.434  0.4193 -0.5989  4.3182
   86SAPS    HB 8165   5.262   6.039   9.393 -0.0527  0.2617 -0.6510
   86SAPS    C2 8166   5.112   5.894   9.286  0.2952  0.4103  0.9427
   86SAPS    HS 8167   5.025   5.835   9.321  0.6070 -1.5181 -1.4553
   86SAPS   O21 8168   5.217   5.811   9.223 -0.1675  0.3057  0.0314
   86SAPS   C21 8169   5.157   5.710   9.157 -0.3862  0.6502 -0.4470
   86SAPS   O22 8170   5.037   5.680   9.160 -0.2339 -0.6880  0.3988
   86SAPS   C22 8171   5.261   5.630   9.073  0.2079  0.0071 -0.4627
   86SAPS   H2R 8172   5.287   5.548   9.143  0.9906  1.8862  1.5197
   86SAPS   H2S 8173   5.201   5.589   8.989  0.3915 -0.9232 -0.1423
   86SAPS    C3 8174   5.067   5.993   9.178  0.4818 -0.0707  0.1969
   86SAPS    HX 8175   4.996   6.066   9.223 -2.0183 -1.3083 -1.6317
   86SAPS    HY 8176   5.010   5.937   9.101 -1.9773  0.8909  1.2590
   86SAPS   O31 8177   5.174   6.059   9.109 -0.4706 -0.0478 -0.4933
   86SAPS   C31 8178   5.203   6.189   9.131  0.6008 -0.1112  0.5805
   86SAPS   O32 8179   5.129   6.262   9.194  0.1907 -0.4738 -0.2022
   86SAPS   C32 8180   5.316   6.241   9.036 -0.8050  0.3844 -0.2078
   86SAPS   H2X 8181   5.407   6.237   9.099 -0.6352  0.0057 -0.4759
   86SAPS   H2Y 8182   5.297   6.345   9.004  0.8332  0.2386 -1.7021
   86SAPS   C23 8183   5.380   5.715   9.025  0.3245 -0.3561 -0.5236
   86SAPS   H3R 8184   5.440   5.741   9.114  2.0687 -1.2575 -1.4149
   86SAPS   H3S 8185   5.341   5.808   8.979  1.3470  0.2362 -0.1763
   86SAPS   C24 8186   5.484   5.655   8.932  0.0213 -0.2351  0.1974
   86SAPS   H4R 8187   5.431   5.624   8.839  0.9630  0.5518 -0.5965
   86SAPS   H4S 8188   5.523   5.559   8.973 -3.3036 -2.0801 -0.7054
   86SAPS   C25 8189   5.598   5.752   8.893  0.0516 -0.1682  0.0413
   86SAPS   H5R 8190   5.648   5.786   8.984  0.2897 -2.9829  1.0213
   86SAPS   C26 8191   5.628   5.783   8.768 -0.0942  0.1584  0.4907
   86SAPS   H6R 8192   5.714   5.845   8.740  0.7554 -1.4920 -0.6718
   86SAPS   C27 8193   5.549   5.722   8.652  0.3705 -1.2084 -0.3665
   86SAPS   H7R 8194   5.442   5.746   8.665  0.5841  1.6997 -3.4490
   86SAPS   H7S 8195   5.564   5.612   8.655  0.1807 -1.2565 -1.2521
   86SAPS   C28 8196   5.592   5.774   8.523  0.3132  1.1688 -0.4741
   86SAPS   H8R 8197   5.679   5.731   8.470  0.3417  0.9982 -0.2862
   86SAPS   C29 8198   5.546   5.879   8.453  0.0767 -0.0424  0.0390
   86SAPS   H9R 8199   5.604   5.903   8.363  1.1181 -0.1193  0.6871
   86SAPS  C210 8200   5.432   5.967   8.478 -0.0844  0.4508  0.8468
   86SAPS  H10R 8201   5.466   6.073   8.471 -0.6540  0.4936 -1.6548
   86SAPS  H10S 8202   5.383   5.955   8.577  0.0838 -1.3512  0.7179
   86SAPS  C211 8203   5.326   5.939   8.367 -0.3986  0.3415  0.0713
   86SAPS  H11R 8204   5.282   5.838   8.372  2.0020 -0.7856 -0.7488
   86SAPS  C212 8205   5.278   6.019   8.268 -0.4784  0.0069 -0.0103
   86SAPS  H12R 8206   5.213   5.967   8.196  1.9961  0.9576 -3.0339
   86SAPS  C213 8207   5.314   6.162   8.241 -0.3718 -0.4324  0.0212
   86SAPS  H13R 8208   5.420   6.161   8.207 -0.7558 -0.0344 -1.2087
   86SAPS  H13S 8209   5.307   6.226   8.331 -0.9012 -1.0628  0.4269
   86SAPS  C214 8210   5.230   6.230   8.136 -0.1245  0.0742  0.2532
   86SAPS  H14R 8211   5.137   6.277   8.171 -1.7445 -1.5112 -1.7723
   86SAPS  C215 8212   5.251   6.215   8.002  0.4239  0.4625  0.7852
   86SAPS  H15R 8213   5.184   6.262   7.928  3.0677  0.7447 -1.4718
   86SAPS  C216 8214   5.356   6.121   7.953  0.2874  0.0559  0.6033
   86SAPS  H16R 8215   5.420   6.059   8.020 -0.4740 -0.4018  0.9047
   86SAPS  H16S 8216   5.427   6.191   7.905  0.0862 -1.6729 -2.3076
   86SAPS  C217 8217   5.300   6.023   7.849  0.3236 -0.9577 -0.1126
   86SAPS  H17R 8218   5.206   5.979   7.888 -0.8392  0.8127 -0.9075
   86SAPS  H17S 8219   5.382   5.948   7.839  2.6600  1.6243 -0.8013
   86SAPS  C218 8220   5.278   6.080   7.714  0.5288 -0.0023  0.8490
   86SAPS  H18R 8221   5.378   6.093   7.668 -0.2973  0.4409 -0.8555
   86SAPS  H18S 8222   5.231   6.180   7.727  0.4209 -0.0149  0.5403
   86SAPS  C219 8223   5.178   6.003   7.635 -0.0499  0.0169 -0.2531
   86SAPS  H19R 8224   5.166   6.053   7.537  1.7145 -1.2025 -1.1265
   86SAPS  H19S 8225   5.082   6.008   7.691  0.4332  2.2318  0.4241
   86SAPS  C220 8226   5.219   5.857   7.618 -0.5441 -0.4772  0.3466
   86SAPS  H20R 8227   5.161   5.817   7.532 -0.2180 -0.3489  0.0631
   86SAPS  H20S 8228   5.208   5.789   7.705 -0.4789  0.0454  0.7651
   86SAPS  H20T 8229   5.321   5.858   7.574  0.1274  2.4181  1.8357
   86SAPS   C33 8230   5.354   6.166   8.906 -0.1258  0.0058 -0.5816
   86SAPS   H3X 8231   5.347   6.059   8.935 -1.6247  0.2638  0.0546
   86SAPS   H3Y 8232   5.453   6.199   8.868 -0.3879  2.4744  0.7880
   86SAPS   C34 8233   5.263   6.184   8.782 -0.0097  0.3656  0.3420
   86SAPS   H4X 8234   5.313   6.142   8.693  1.0705  0.1639  1.0410
   86SAPS   H4Y 8235   5.258   6.293   8.760  0.3492  0.0375 -1.3894
   86SAPS   C35 8236   5.125   6.120   8.791 -0.3463 -0.6148  0.8996
   86SAPS   H5X 8237   5.092   6.157   8.890  0.0420 -0.3645  0.9384
   86SAPS   H5Y 8238   5.118   6.009   8.792 -1.1892 -0.5808 -0.3583
   86SAPS   C36 8239   5.020   6.161   8.683 -0.6669  0.2073  0.1656
   86SAPS   H6X 8240   5.009   6.272   8.679  0.1593  0.2423 -1.7454
   86SAPS   H6Y 8241   4.924   6.127   8.727  0.6296 -0.3274  2.6388
   86SAPS   C37 8242   5.036   6.108   8.540  0.5731 -0.3384  0.0505
   86SAPS   H7X 8243   5.034   5.997   8.544  1.0302 -0.2871  3.1342
   86SAPS   H7Y 8244   5.131   6.140   8.492  0.3584 -0.9503 -0.7881
   86SAPS   C38 8245   4.927   6.145   8.436  0.0572  0.2082  0.9162
   86SAPS   H8X 8246   4.951   6.244   8.390 -0.4963  1.0221  2.3477
   86SAPS   H8Y 8247   4.832   6.151   8.494 -0.0917 -1.1013  0.8026
   86SAPS   C39 8248   4.915   6.049   8.321 -0.0305  0.7807  0.4769
   86SAPS   H9X 8249   4.910   5.943   8.355  1.8704  0.0205 -1.5174
   86SAPS   H9Y 8250   5.008   6.061   8.261 -2.1663 -1.3204 -3.4619
   86SAPS  C310 8251   4.785   6.080   8.242 -0.6678 -0.3890 -0.4584
   86SAPS  H10X 8252   4.774   6.186   8.209 -1.7091 -0.5816 -0.7511
   86SAPS  H10Y 8253   4.706   6.047   8.313  0.6591  1.1218  1.7937
   86SAPS  C311 8254   4.778   5.995   8.112  0.4825 -0.9239  0.7278
   86SAPS  H11X 8255   4.800   5.887   8.126  0.7478 -1.3042 -2.4342
   86SAPS  H11Y 8256   4.840   6.046   8.036 -0.3587  0.7991  1.1596
   86SAPS  C312 8257   4.628   5.993   8.062 -0.3871  0.4159  0.0143
   86SAPS  H12X 8258   4.571   6.078   8.105  0.0174 -0.4490  2.3418
   86SAPS  H12Y 8259   4.584   5.899   8.101 -4.3498  1.0162 -2.7031
   86SAPS  C313 8260   4.618   6.004   7.907 -0.4932  0.3760 -0.0190
   86SAPS  H13X 8261   4.671   6.089   7.859  1.6812  0.7651  2.9080
   86SAPS  H13Y 8262   4.509   6.018   7.886 -0.1302  0.1463 -2.1153
   86SAPS  C314 8263   4.667   5.871   7.848 -0.1868  0.0543 -0.1206
   86SAPS  H14X 8264   4.604   5.797   7.902 -1.9647 -0.8569 -3.2810
   86SAPS  H14Y 8265   4.772   5.859   7.884  0.2541  0.9336 -1.0885
   86SAPS  C315 8266   4.648   5.849   7.697 -0.4129 -0.0815 -0.5002
   86SAPS  H15X 8267   4.543   5.879   7.677 -0.2116  0.7659 -0.3077
   86SAPS  H15Y 8268   4.660   5.740   7.683  2.3280  0.2641 -1.1209
   86SAPS  C316 8269   4.744   5.911   7.610 -0.3279  0.1447 -0.1721
   86SAPS  H16X 8270   4.848   5.908   7.650 -0.3741 -2.1081 -0.1587
   86SAPS  H16Y 8271   4.707   6.014   7.595  0.4205  0.4708  0.1987
   86SAPS  C317 8272   4.742   5.837   7.473  0.1116 -0.3002  0.5098
   86SAPS  H17X 8273   4.641   5.837   7.428  0.9328  1.5957 -1.4045
   86SAPS  H17Y 8274   4.778   5.732   7.480 -3.2196 -1.5713 -0.7725
   86SAPS  C318 8275   4.835   5.901   7.372  0.5434  0.2993 -0.1996
   86SAPS  H18X 8276   4.805   5.862   7.272  1.3339 -0.6206 -0.0861
   86SAPS  H18Y 8277   4.942   5.876   7.386 -0.3956 -4.3601 -0.3853
   86SAPS  H18Z 8278   4.820   6.011   7.371 -1.8057  0.0282 -2.7152
   87SAPS     N 8279   5.710   6.570   9.649  0.3925  0.2117 -0.3774
   87SAPS   HN1 8280   5.796   6.624   9.629  0.9102 -0.6576 -0.5099
   87SAPS   HN2 8281   5.692   6.517   9.561  1.0931  0.1433 -0.4836
   87SAPS   HN3 8282   5.629   6.632   9.672  1.0727  1.0180 -0.1377
   87SAPS   C12 8283   5.719   6.470   9.768  0.1015 -1.0154 -0.0566
   87SAPS  H12A 8284   5.767   6.380   9.732 -1.0418 -1.7750  0.3024
   87SAPS   C13 8285   5.792   6.514   9.897  0.1618  1.2544 -0.4574
   87SAPS  O13A 8286   5.861   6.617   9.899  0.4525 -0.7247 -0.3415
   87SAPS  O13B 8287   5.782   6.438  10.000 -0.1754  0.1364 -0.1716
   87SAPS   C11 8288   5.574   6.440   9.817  0.0464 -0.5691  0.8326
   87SAPS  H11A 8289   5.517   6.520   9.870 -0.3156 -1.5493  1.9455
   87SAPS  H11B 8290   5.577   6.365   9.899 -0.7703  1.0002  2.3375
   87SAPS     P 8291   5.373   6.315   9.713  0.2135  0.0211  0.2814
   87SAPS   O13 8292   5.395   6.176   9.664 -0.1362  0.4441 -0.1812
   87SAPS   O14 8293   5.298   6.335   9.839  0.2466 -0.1421 -0.2827
   87SAPS   O12 8294   5.497   6.401   9.704  0.0735 -0.3208 -0.0753
   87SAPS   O11 8295   5.284   6.387   9.598 -0.1274 -0.9288  0.5831
   87SAPS    C1 8296   5.307   6.524   9.569 -0.6093  0.5836  0.0590
   87SAPS    HA 8297   5.338   6.578   9.661  0.8092 -0.8158  0.4388
   87SAPS    HB 8298   5.389   6.533   9.494 -2.5670 -1.7868 -2.4522
   87SAPS    C2 8299   5.185   6.603   9.515  0.4313 -0.1453  0.0827
   87SAPS    HS 8300   5.098   6.548   9.557  1.5946  0.0713  2.8770
   87SAPS   O21 8301   5.180   6.605   9.374  0.5601  0.1576  0.1975
   87SAPS   C21 8302   5.065   6.642   9.315 -0.1877 -0.4584  1.0514
   87SAPS   O22 8303   4.962   6.671   9.375 -0.2170  0.2496 -0.0481
   87SAPS   C22 8304   5.075   6.651   9.167 -0.5993 -0.1599  0.9317
   87SAPS   H2R 8305   5.146   6.733   9.143  0.4910 -2.0283 -2.5049
   87SAPS   H2S 8306   5.122   6.556   9.136 -0.5945 -0.2477  1.2104
   87SAPS    C3 8307   5.186   6.752   9.566  0.5699 -0.2463  0.0634
   87SAPS    HX 8308   5.183   6.754   9.677  0.6656  0.1763  0.0592
   87SAPS    HY 8309   5.094   6.802   9.529  1.0760  0.3859 -0.3551
   87SAPS   O31 8310   5.307   6.824   9.526 -0.6350  0.2224 -0.0568
   87SAPS   C31 8311   5.289   6.912   9.423 -1.5543  0.7208 -0.4657
   87SAPS   O32 8312   5.181   6.924   9.369 -0.6319 -0.0042  0.5140
   87SAPS   C32 8313   5.407   6.997   9.402  0.1719 -0.6786 -0.2464
   87SAPS   H2X 8314   5.497   6.968   9.460 -1.0991 -1.5075  1.3658
   87SAPS   H2Y 8315   5.376   7.103   9.416 -1.5177 -1.1928  0.0363
   87SAPS   C23 8316   4.942   6.678   9.094  0.0749  0.7147 -0.6857
   87SAPS   H3R 8317   4.927   6.788   9.105 -0.2366  0.5221  0.9178
   87SAPS   H3S 8318   4.856   6.617   9.127 -0.8002  1.8748 -0.7739
   87SAPS   C24 8319   4.947   6.628   8.945  0.1799 -0.1582  0.0893
   87SAPS   H4R 8320   4.845   6.630   8.900  0.1925 -2.5996 -0.1119
   87SAPS   H4S 8321   4.969   6.520   8.960 -0.3982 -0.3707 -0.5711
   87SAPS   C25 8322   5.051   6.703   8.869  0.4708 -0.2780 -0.4538
   87SAPS   H5R 8323   5.118   6.762   8.933  1.3081  0.0704 -1.6250
   87SAPS   C26 8324   5.057   6.712   8.735 -0.0780 -0.8321 -0.5445
   87SAPS   H6R 8325   5.127   6.788   8.701 -0.7018  0.6523  1.3646
   87SAPS   C27 8326   4.976   6.634   8.633 -0.3753  0.1528  0.8634
   87SAPS   H7R 8327   4.940   6.712   8.562 -1.9396 -1.0112  0.3334
   87SAPS   H7S 8328   4.883   6.588   8.672 -0.0915  0.3692  1.7857
   87SAPS   C28 8329   5.060   6.528   8.570 -0.5290  0.9211 -0.0565
   87SAPS   H8R 8330   5.107   6.461   8.643  0.9429  0.6891 -1.1885
   87SAPS   C29 8331   5.089   6.510   8.441 -0.3689 -1.1744 -0.6956
   87SAPS   H9R 8332   5.155   6.427   8.412  1.2441  0.2669 -1.2163
   87SAPS  C210 8333   5.034   6.608   8.330  0.2330 -0.3674  0.1118
   87SAPS  H10R 8334   5.037   6.713   8.368 -0.7319  0.7700 -2.7911
   87SAPS  H10S 8335   4.926   6.581   8.319 -0.0099  1.5469 -2.5624
   87SAPS  C211 8336   5.115   6.599   8.203  0.5326 -0.0121 -0.5807
   87SAPS  H11R 8337   5.224   6.615   8.213  0.5755 -1.7021  2.2058
   87SAPS  C212 8338   5.068   6.575   8.077  0.2652  0.0309  0.3039
   87SAPS  H12R 8339   5.137   6.537   8.000  1.6968 -0.2563  1.7014
   87SAPS  C213 8340   4.915   6.552   8.058 -0.4831 -0.0031  0.3764
   87SAPS  H13R 8341   4.884   6.600   7.963 -0.6093 -1.7627 -0.4703
   87SAPS  H13S 8342   4.860   6.610   8.135 -0.0809  1.5382 -0.4643
   87SAPS  C214 8343   4.861   6.416   8.069 -0.2499 -0.4078 -0.7605
   87SAPS  H14R 8344   4.885   6.365   8.164  1.8434  3.0161  0.6475
   87SAPS  C215 8345   4.811   6.347   7.966 -0.4768 -0.2532 -0.4457
   87SAPS  H15R 8346   4.785   6.242   7.986  2.1158 -1.0655 -1.0817
   87SAPS  C216 8347   4.792   6.379   7.816  0.4910  0.2735  0.1507
   87SAPS  H16R 8348   4.802   6.487   7.794 -0.9223  0.5872  0.9712
   87SAPS  H16S 8349   4.687   6.353   7.790  0.3916  0.8716 -0.0540
   87SAPS  C217 8350   4.897   6.319   7.721 -0.2883  0.1884 -0.1449
   87SAPS  H17R 8351   4.902   6.208   7.716 -0.7533  0.1164  0.7942
   87SAPS  H17S 8352   4.995   6.368   7.738  0.6650 -1.8026  0.3226
   87SAPS  C218 8353   4.865   6.345   7.569 -0.4277 -0.7098  0.0913
   87SAPS  H18R 8354   4.823   6.448   7.572 -0.3011 -0.6159 -1.1207
   87SAPS  H18S 8355   4.790   6.271   7.534  1.9455 -2.1155 -2.2413
   87SAPS  C219 8356   4.993   6.336   7.481  0.0841 -0.2024 -0.3303
   87SAPS  H19R 8357   5.024   6.231   7.463 -1.7497 -0.6582 -1.0023
   87SAPS  H19S 8358   5.072   6.396   7.530  0.2840 -0.4275 -0.3765
   87SAPS  C220 8359   4.959   6.388   7.337 -0.4558  0.2729 -0.5905
   87SAPS  H20R 8360   4.904   6.485   7.339  1.3137  1.2900  2.7454
   87SAPS  H20S 8361   4.903   6.302   7.295  1.6049 -0.4695 -1.9227
   87SAPS  H20T 8362   5.057   6.394   7.286  0.3552 -2.9888  0.4666
   87SAPS   C33 8363   5.452   6.979   9.257  0.3282 -0.4890  0.1533
   87SAPS   H3X 8364   5.538   7.046   9.239 -0.0300 -0.4845 -1.7525
   87SAPS   H3Y 8365   5.367   6.992   9.185  0.6959  2.1730  0.1819
   87SAPS   C34 8366   5.510   6.841   9.227  0.4255  0.0497  0.1812
   87SAPS   H4X 8367   5.452   6.763   9.280 -0.2987  0.8375  0.5637
   87SAPS   H4Y 8368   5.611   6.826   9.270  0.6259  0.5310 -0.1121
   87SAPS   C35 8369   5.527   6.818   9.072 -0.0580 -0.3806 -0.8720
   87SAPS   H5X 8370   5.634   6.821   9.043  1.0537  1.5125  3.0433
   87SAPS   H5Y 8371   5.481   6.902   9.017 -0.3062 -0.0327 -0.1390
   87SAPS   C36 8372   5.478   6.687   9.020 -0.2659  0.5950 -0.3828
   87SAPS   H6X 8373   5.370   6.693   9.043 -0.0267  2.1184  0.4115
   87SAPS   H6Y 8374   5.512   6.595   9.073 -1.5585  0.3622  0.0666
   87SAPS   C37 8375   5.496   6.669   8.865  0.1745 -0.4695  0.1928
   87SAPS   H7X 8376   5.603   6.652   8.840  0.7403  0.5323  1.8304
   87SAPS   H7Y 8377   5.482   6.766   8.815 -0.4487  0.4193  2.0322
   87SAPS   C38 8378   5.427   6.543   8.811  0.5243  0.1735  0.9781
   87SAPS   H8X 8379   5.316   6.558   8.811  0.5588  0.4429  0.4205
   87SAPS   H8Y 8380   5.461   6.461   8.877  1.9067  2.1399  2.7396
   87SAPS   C39 8381   5.474   6.516   8.668 -0.5951 -0.1702 -0.1732
   87SAPS   H9X 8382   5.434   6.420   8.630  0.0883 -0.2084 -0.8075
   87SAPS   H9Y 8383   5.584   6.498   8.675 -0.4780 -0.4307 -2.3623
   87SAPS  C310 8384   5.456   6.626   8.564  0.9167 -0.2069  0.8441
   87SAPS  H10X 8385   5.536   6.703   8.570 -0.6295  1.6500 -1.6917
   87SAPS  H10Y 8386   5.361   6.678   8.587  0.8089 -0.0455  0.0419
   87SAPS  C311 8387   5.467   6.585   8.413  0.6341  0.8525  0.2394
   87SAPS  H11X 8388   5.437   6.676   8.357 -0.8381  0.9335  1.1373
   87SAPS  H11Y 8389   5.395   6.506   8.384 -1.0139  2.7481 -0.9876
   87SAPS  C312 8390   5.603   6.538   8.371 -0.5738  0.4192 -0.8010
   87SAPS  H12X 8391   5.612   6.435   8.411 -0.5500  0.8020  0.1997
   87SAPS  H12Y 8392   5.683   6.599   8.417 -0.7734 -0.2687  0.4729
   87SAPS  C313 8393   5.620   6.527   8.219  0.3225  0.7299 -0.2318
   87SAPS  H13X 8394   5.548   6.456   8.173  0.6779 -1.1307  1.9888
   87SAPS  H13Y 8395   5.727   6.502   8.206  0.1376 -0.6481  0.7107
   87SAPS  C314 8396   5.597   6.662   8.140 -0.1674 -0.2236 -1.1732
   87SAPS  H14X 8397   5.650   6.744   8.192  1.8039 -1.2840 -1.4416
   87SAPS  H14Y 8398   5.488   6.682   8.148 -0.2041 -1.7072  2.9484
   87SAPS  C315 8399   5.655   6.660   7.992  0.1013 -0.1378 -1.3353
   87SAPS  H15X 8400   5.610   6.569   7.947  0.0393 -0.1927 -1.1629
   87SAPS  H15Y 8401   5.766   6.647   7.993  0.0888 -0.2446 -1.2986
   87SAPS  C316 8402   5.617   6.771   7.895 -0.3985  0.5455  0.2098
   87SAPS  H16X 8403   5.509   6.794   7.908 -1.1035 -2.0083 -0.7652
   87SAPS  H16Y 8404   5.644   6.746   7.791  1.3383  0.5416  0.6480
   87SAPS  C317 8405   5.699   6.898   7.914 -0.0144  0.3736  0.0701
   87SAPS  H17X 8406   5.805   6.865   7.917 -0.8623 -2.2729  2.3922
   87SAPS  H17Y 8407   5.674   6.941   8.013 -3.4485 -0.6955 -0.2803
   87SAPS  C318 8408   5.684   7.003   7.807  0.0214 -0.2801 -0.7098
   87SAPS  H18X 8409   5.579   7.037   7.821  0.1313 -1.1637  2.8367
   87SAPS  H18Y 8410   5.682   6.962   7.704 -3.2614 -1.0128 -0.4203
   87SAPS  H18Z 8411   5.768   7.075   7.803 -0.0761 -0.2424 -3.1143
   88SAPS     N 8412   0.441   2.892  10.078 -0.0924 -0.3858 -0.4662
   88SAPS   HN1 8413   0.514   2.868  10.008  0.9644  0.7646  0.2081
   88SAPS   HN2 8414   0.493   2.957  10.141 -0.8814  0.0626 -0.2742
   88SAPS   HN3 8415   0.405   2.802  10.116 -0.1914 -0.3020 -0.3611
   88SAPS   C12 8416   0.326   2.965  10.022  0.3361  0.9503 -0.3179
   88SAPS  H12A 8417   0.258   2.888   9.988  4.1752 -3.2221  0.8672
   88SAPS   C13 8418   0.242   3.039  10.123 -0.4663  0.1047 -0.1846
   88SAPS  O13A 8419   0.281   3.043  10.247 -0.2151  0.5666  0.8998
   88SAPS  O13B 8420   0.138   3.095  10.080  0.1802  0.4765 -1.1773
   88SAPS   C11 8421   0.380   3.067   9.919  0.3248 -0.1356 -0.0771
   88SAPS  H11A 8422   0.444   3.143   9.969  1.1590 -0.2550 -0.9775
   88SAPS  H11B 8423   0.300   3.129   9.873 -0.3001  0.1021  1.2896
   88SAPS     P 8424   0.370   2.923   9.705 -0.5421 -0.1495  0.0433
   88SAPS   O13 8425   0.459   2.826   9.641 -0.3052 -0.1284  0.1872
   88SAPS   O14 8426   0.250   2.867   9.767  0.2582  0.4265 -0.0032
   88SAPS   O12 8427   0.456   2.996   9.816  0.4392  0.4784  0.4080
   88SAPS   O11 8428   0.331   3.033   9.604  0.0295  0.2535  0.1126
   88SAPS    C1 8429   0.235   3.009   9.505  0.6655 -0.2146 -0.5767
   88SAPS    HA 8430   0.281   3.051   9.414  1.6043  0.5705  0.2483
   88SAPS    HB 8431   0.223   2.900   9.487  1.2116 -1.1722  4.0571
   88SAPS    C2 8432   0.104   3.076   9.536  0.0234 -0.0995 -0.2871
   88SAPS    HS 8433   0.044   2.996   9.584 -4.6857  2.2685 -1.9579
   88SAPS   O21 8434   0.053   3.109   9.404  0.8820  0.3875 -0.0727
   88SAPS   C21 8435  -0.086   3.121   9.407  0.1437 -0.0931 -0.0828
   88SAPS   O22 8436  -0.152   3.106   9.507 -0.0206 -0.4799  0.4404
   88SAPS   C22 8437  -0.140   3.137   9.267 -0.3998 -0.2515 -0.3661
   88SAPS   H2R 8438  -0.251   3.131   9.265 -0.3720 -1.1906  0.5921
   88SAPS   H2S 8439  -0.119   3.242   9.239 -1.2664 -0.5161 -2.1305
   88SAPS    C3 8440   0.119   3.208   9.630 -0.2524  0.2250 -0.0055
   88SAPS    HX 8441   0.169   3.162   9.717 -1.1901 -1.7770 -0.5022
   88SAPS    HY 8442   0.020   3.245   9.664 -0.3993  0.4642 -0.6726
   88SAPS   O31 8443   0.185   3.321   9.562  0.3236 -0.0937  0.1299
   88SAPS   C31 8444   0.295   3.361   9.626 -1.2958 -0.8325 -0.8102
   88SAPS   O32 8445   0.325   3.325   9.743  0.5507  0.2653  0.2275
   88SAPS   C32 8446   0.390   3.441   9.525 -0.3817  0.1711  0.4766
   88SAPS   H2X 8447   0.486   3.443   9.582 -0.5108  2.8781  0.6343
   88SAPS   H2Y 8448   0.358   3.547   9.528 -0.1478  0.2474  0.2600
   88SAPS   C23 8449  -0.076   3.042   9.157 -0.9903 -0.1453 -1.0482
   88SAPS   H3R 8450  -0.086   2.934   9.182  0.0117 -0.7403 -3.1081
   88SAPS   H3S 8451   0.031   3.073   9.159 -1.1512  0.3439  1.0459
   88SAPS   C24 8452  -0.122   3.079   9.013 -0.2523  0.4375 -0.4171
   88SAPS   H4R 8453  -0.092   3.184   8.992 -0.2111 -0.3409 -4.8471
   88SAPS   H4S 8454  -0.233   3.073   9.008 -0.2424 -0.2259  0.1399
   88SAPS   C25 8455  -0.052   2.980   8.922  0.7393 -0.8166  0.2947
   88SAPS   H5R 8456   0.044   2.939   8.954  1.2620 -0.3917 -0.7049
   88SAPS   C26 8457  -0.119   2.909   8.825 -0.3241 -0.7188  0.0526
   88SAPS   H6R 8458  -0.054   2.848   8.760 -0.5121 -1.3075  0.4079
   88SAPS   C27 8459  -0.265   2.917   8.782  0.6128 -0.4185  0.6877
   88SAPS   H7R 8460  -0.339   2.927   8.863  0.5513 -1.1912  0.7382
   88SAPS   H7S 8461  -0.303   2.816   8.755  1.2198 -0.0280 -1.8045
   88SAPS   C28 8462  -0.279   3.032   8.675 -0.0461  0.1188  1.2194
   88SAPS   H8R 8463  -0.220   3.122   8.697  1.8753 -0.5783 -0.9059
   88SAPS   C29 8464  -0.324   3.014   8.549 -0.0263 -0.3786 -0.4371
   88SAPS   H9R 8465  -0.322   3.107   8.490 -0.9979  0.4496  0.7936
   88SAPS  C210 8466  -0.381   2.887   8.488 -0.2521 -0.1570  0.6298
   88SAPS  H10R 8467  -0.484   2.916   8.459 -0.6828  0.3557  2.6391
   88SAPS  H10S 8468  -0.395   2.803   8.559 -0.8881  0.4084  1.1806
   88SAPS  C211 8469  -0.303   2.834   8.365  0.4118  0.0275 -0.4121
   88SAPS  H11R 8470  -0.349   2.859   8.269  2.0586  1.9108 -0.7503
   88SAPS  C212 8471  -0.184   2.768   8.362  0.0630 -0.3195  0.1703
   88SAPS  H12R 8472  -0.161   2.732   8.261 -0.3697  1.0084 -0.4198
   88SAPS  C213 8473  -0.096   2.736   8.484  0.0730  0.1855 -0.1314
   88SAPS  H13R 8474  -0.111   2.637   8.533 -1.0003 -1.0168 -2.8068
   88SAPS  H13S 8475  -0.111   2.803   8.571  0.8608 -1.3333  1.2093
   88SAPS  C214 8476   0.047   2.752   8.419  0.6478  0.0807 -1.0648
   88SAPS  H14R 8477   0.106   2.831   8.467 -0.8022 -1.1309  2.9414
   88SAPS  C215 8478   0.116   2.687   8.320  0.2922  0.5893 -0.0525
   88SAPS  H15R 8479   0.206   2.742   8.290 -0.0689  1.1055 -0.1954
   88SAPS  C216 8480   0.061   2.571   8.243 -0.0221  0.2140  1.3416
   88SAPS  H16R 8481   0.036   2.600   8.138  0.6113  0.8158  1.3516
   88SAPS  H16S 8482  -0.035   2.534   8.286 -0.5916  0.1754  0.0694
   88SAPS  C217 8483   0.158   2.453   8.224 -0.3311  0.5359 -0.2432
   88SAPS  H17R 8484   0.112   2.370   8.166 -0.7061  0.9686 -0.5701
   88SAPS  H17S 8485   0.185   2.417   8.325 -2.6139 -0.9942 -0.1250
   88SAPS  C218 8486   0.290   2.484   8.146 -0.2720 -0.3277  0.7843
   88SAPS  H18R 8487   0.366   2.542   8.203  1.0297  0.5172 -1.7578
   88SAPS  H18S 8488   0.253   2.548   8.063 -0.0579 -1.1525  0.0480
   88SAPS  C219 8489   0.356   2.355   8.097  1.0051  0.2051  0.0209
   88SAPS  H19R 8490   0.373   2.289   8.185 -2.0789 -0.8780 -0.1512
   88SAPS  H19S 8491   0.450   2.382   8.043  1.8441  1.3000  1.9695
   88SAPS  C220 8492   0.274   2.279   7.986 -0.3957 -1.1563  0.1307
   88SAPS  H20R 8493   0.186   2.227   8.029 -2.0113  1.3077 -0.1205
   88SAPS  H20S 8494   0.342   2.208   7.935  0.1149 -0.6923  0.1614
   88SAPS  H20T 8495   0.250   2.355   7.908  1.2651 -1.3845 -0.6199
   88SAPS   C33 8496   0.404   3.382   9.383  0.4586  0.3471  0.1670
   88SAPS   H3X 8497   0.427   3.273   9.387 -0.5787  0.1099  0.0015
   88SAPS   H3Y 8498   0.486   3.437   9.332 -0.6810  1.1006 -0.8898
   88SAPS   C34 8499   0.287   3.401   9.282 -0.5096 -0.6820 -0.8206
   88SAPS   H4X 8500   0.264   3.510   9.289 -0.0108 -0.7052  1.2873
   88SAPS   H4Y 8501   0.200   3.345   9.323 -1.0298  2.5425  2.7427
   88SAPS   C35 8502   0.311   3.355   9.136  0.1259  0.6729 -0.1322
   88SAPS   H5X 8503   0.369   3.260   9.134 -0.9459  0.0005  0.4160
   88SAPS   H5Y 8504   0.375   3.427   9.081  1.0852 -1.8108 -2.4119
   88SAPS   C36 8505   0.189   3.335   9.048 -0.0210  0.9840  0.2118
   88SAPS   H6X 8506   0.121   3.423   9.054 -0.4673  0.8767 -2.6691
   88SAPS   H6Y 8507   0.124   3.246   9.063  2.7555 -1.1791 -0.3051
   88SAPS   C37 8508   0.220   3.322   8.897 -0.6692 -0.2718 -0.2968
   88SAPS   H7X 8509   0.274   3.225   8.885 -1.3467 -0.8621  1.2264
   88SAPS   H7Y 8510   0.287   3.406   8.867 -1.6408  0.3867 -0.6294
   88SAPS   C38 8511   0.091   3.326   8.808 -0.0685  0.0621 -0.4185
   88SAPS   H8X 8512   0.021   3.392   8.866  1.0497  0.5023  0.4501
   88SAPS   H8Y 8513   0.051   3.223   8.805 -0.2172  0.1337 -0.9607
   88SAPS   C39 8514   0.119   3.377   8.667  0.2499 -0.2306  0.3645
   88SAPS   H9X 8515   0.217   3.340   8.631  0.1198 -2.1450  1.9301
   88SAPS   H9Y 8516   0.122   3.488   8.661 -1.2640 -0.0801  2.0169
   88SAPS  C310 8517   0.014   3.331   8.573 -0.0074  0.6788 -0.1238
   88SAPS  H10X 8518  -0.089   3.361   8.602 -0.2943 -0.7317  0.3672
   88SAPS  H10Y 8519   0.020   3.222   8.594 -2.5118  0.7740  1.3744
   88SAPS  C311 8520   0.047   3.365   8.431 -0.2863  0.0964  0.3068
   88SAPS  H11X 8521   0.148   3.337   8.395 -0.5392 -0.0604 -0.2782
   88SAPS  H11Y 8522   0.040   3.472   8.405  3.7740  0.5730  0.8816
   88SAPS  C312 8523  -0.051   3.297   8.332 -0.2761  0.0869  0.3039
   88SAPS  H12X 8524  -0.155   3.329   8.357 -0.5739 -0.2687 -0.4404
   88SAPS  H12Y 8525  -0.063   3.187   8.340  1.1560 -0.0652  0.4168
   88SAPS  C313 8526  -0.028   3.336   8.186 -0.7397  0.3841 -0.6238
   88SAPS  H13X 8527   0.076   3.317   8.153 -0.0957  0.7136  1.1846
   88SAPS  H13Y 8528  -0.044   3.444   8.164 -0.7030  0.6164  0.4942
   88SAPS  C314 8529  -0.109   3.245   8.090 -0.5421 -0.5131 -0.2160
   88SAPS  H14X 8530  -0.129   3.305   7.999  2.7659 -0.7664 -1.1813
   88SAPS  H14Y 8531  -0.208   3.215   8.131 -1.1002  1.3893 -0.1186
   88SAPS  C315 8532  -0.041   3.117   8.044  0.3973 -0.3520 -0.3254
   88SAPS  H15X 8533  -0.012   3.050   8.128 -0.9589 -1.7788 -0.9641
   88SAPS  H15Y 8534   0.053   3.148   7.993 -0.5800  1.1599 -1.2581
   88SAPS  C316 8535  -0.127   3.042   7.946 -0.1320  0.6305  0.5221
   88SAPS  H16X 8536  -0.141   3.104   7.855 -2.3647 -0.8744 -0.2014
   88SAPS  H16Y 8537  -0.232   3.051   7.983  0.6581  1.9569  2.4793
   88SAPS  C317 8538  -0.072   2.906   7.896  0.1924  0.2688  0.5101
   88SAPS  H17X 8539   0.032   2.922   7.859 -0.5154  0.0339 -1.6858
   88SAPS  H17Y 8540  -0.132   2.874   7.808  2.1737 -0.1750 -0.7181
   88SAPS  C318 8541  -0.088   2.789   7.991 -0.9437  0.1564 -1.1403
   88SAPS  H18X 8542  -0.003   2.783   8.062 -2.3395  0.8407  0.6088
   88SAPS  H18Y 8543  -0.101   2.692   7.937 -0.9498  0.4455 -1.6672
   88SAPS  H18Z 8544  -0.186   2.784   8.043 -0.7443 -1.2925 -0.8792
   89SAPS     N 8545   5.802   0.674   9.844 -0.3379 -0.1215 -0.6998
   89SAPS   HN1 8546   5.805   0.776   9.861  1.4314 -0.1185 -0.9415
   89SAPS   HN2 8547   5.875   0.641   9.778  0.0973 -1.4482  0.4324
   89SAPS   HN3 8548   5.707   0.654   9.807 -0.9490 -0.0771  0.8277
   89SAPS   C12 8549   5.817   0.595   9.967 -0.3902 -0.0243 -0.4374
   89SAPS  H12A 8550   5.920   0.609   9.999 -0.8823  1.1922  0.6631
   89SAPS   C13 8551   5.720   0.656  10.072  0.0552  0.2816  0.1650
   89SAPS  O13A 8552   5.687   0.778  10.060 -0.3472  0.3010  0.3148
   89SAPS  O13B 8553   5.699   0.598  10.182  0.2800  0.2894 -0.3404
   89SAPS   C11 8554   5.794   0.441   9.939  0.7154 -0.4198  0.9936
   89SAPS  H11A 8555   5.692   0.428   9.898  1.5433 -0.3125 -1.1595
   89SAPS  H11B 8556   5.799   0.391  10.038 -1.7386  1.7180  2.2715
   89SAPS     P 8557   5.904   0.239   9.821  0.7467 -0.0273 -0.4760
   89SAPS   O13 8558   5.969   0.182   9.940 -0.4385 -0.6145  0.0739
   89SAPS   O14 8559   5.769   0.188   9.795  0.4087 -0.2879  0.0144
   89SAPS   O12 8560   5.897   0.397   9.837  0.3674 -0.1328 -0.2573
   89SAPS   O11 8561   6.005   0.216   9.703  0.1140  0.1495  0.1602
   89SAPS    C1 8562   6.022   0.088   9.642  0.2082 -0.5078 -0.6355
   89SAPS    HA 8563   6.119   0.045   9.674  0.8020  0.8904 -0.5523
   89SAPS    HB 8564   5.943   0.014   9.669  0.4416 -0.4777  0.1283
   89SAPS    C2 8565   6.020   0.102   9.488 -0.4315 -0.0806  0.1754
   89SAPS    HS 8566   6.051   0.001   9.452  2.1814 -0.5009  3.3772
   89SAPS   O21 8567   6.114   0.208   9.445  0.5967  0.6628  0.0385
   89SAPS   C21 8568   6.236   0.164   9.424 -0.3973  0.4617  0.3367
   89SAPS   O22 8569   6.274   0.053   9.435 -0.5257 -0.0994 -0.1150
   89SAPS   C22 8570   6.319   0.279   9.382  0.1213 -0.5272  0.7452
   89SAPS   H2R 8571   6.344   0.260   9.276  3.1879 -2.1592  1.6890
   89SAPS   H2S 8572   6.267   0.374   9.406  2.2329  1.5050 -2.3666
   89SAPS    C3 8573   5.874   0.142   9.429  0.2706  0.0270  0.0261
   89SAPS    HX 8574   5.868   0.250   9.451  1.5359  0.2661 -0.7343
   89SAPS    HY 8575   5.795   0.085   9.483  0.5975 -0.0834  0.3864
   89SAPS   O31 8576   5.879   0.118   9.286  0.3161  0.4844 -0.0199
   89SAPS   C31 8577   5.854  -0.001   9.243  0.0676 -0.4500 -0.3420
   89SAPS   O32 8578   5.839  -0.103   9.310 -0.8293  0.3044 -0.1877
   89SAPS   C32 8579   5.876  -0.006   9.094 -0.1420  0.1553  0.2214
   89SAPS   H2X 8580   5.985  -0.019   9.073  0.6927  2.3788  2.8227
   89SAPS   H2Y 8581   5.851   0.089   9.042  1.7232 -0.7684 -2.4721
   89SAPS   C23 8582   6.466   0.293   9.442  0.0559 -0.1680  0.4389
   89SAPS   H3R 8583   6.517   0.197   9.422 -2.6049 -1.8503  1.3555
   89SAPS   H3S 8584   6.465   0.307   9.553  0.8606 -1.5220  0.6361
   89SAPS   C24 8585   6.543   0.404   9.369 -0.7668 -0.0047 -0.5379
   89SAPS   H4R 8586   6.532   0.395   9.258  1.8693 -1.0660 -0.7311
   89SAPS   H4S 8587   6.652   0.400   9.385 -1.0954 -0.4727  1.6438
   89SAPS   C25 8588   6.504   0.543   9.419  0.9951 -0.2913  0.6791
   89SAPS   H5R 8589   6.540   0.574   9.518  1.0788 -0.6608  0.7640
   89SAPS   C26 8590   6.410   0.622   9.361 -0.4614  0.6774 -0.7859
   89SAPS   H6R 8591   6.389   0.719   9.408  2.0727  0.1754  1.4754
   89SAPS   C27 8592   6.343   0.594   9.231  0.4794 -0.3318  0.4205
   89SAPS   H7R 8593   6.384   0.505   9.178 -0.3721 -1.4196  1.5577
   89SAPS   H7S 8594   6.363   0.676   9.159  1.9132  0.6019  1.8519
   89SAPS   C28 8595   6.190   0.583   9.233  0.2729 -0.9514 -0.2071
   89SAPS   H8R 8596   6.146   0.646   9.312  2.1576 -0.3363  0.3736
   89SAPS   C29 8597   6.106   0.497   9.165  0.4052 -0.1985  0.1875
   89SAPS   H9R 8598   5.999   0.497   9.191  0.3447  3.6388  0.2083
   89SAPS  C210 8599   6.148   0.387   9.067 -0.5021  0.0015 -0.3586
   89SAPS  H10R 8600   6.189   0.296   9.116  1.3175  1.9509  1.8705
   89SAPS  H10S 8601   6.227   0.429   9.000  0.1969  0.1868  0.5826
   89SAPS  C211 8602   6.036   0.352   8.978 -0.0068  0.2623  0.4856
   89SAPS  H11R 8603   5.934   0.351   9.019  0.0355  0.5267  0.5981
   89SAPS  C212 8604   6.045   0.311   8.849  0.2649 -0.2394 -0.9130
   89SAPS  H12R 8605   5.960   0.313   8.780  0.2461  2.9332 -0.8742
   89SAPS  C213 8606   6.176   0.285   8.776 -0.2599 -0.0031 -0.5777
   89SAPS  H13R 8607   6.260   0.299   8.849 -2.4620  1.9109  1.6945
   89SAPS  H13S 8608   6.184   0.360   8.694 -2.7938  0.3802 -0.5154
   89SAPS  C214 8609   6.184   0.149   8.712  0.1417 -0.1182  0.5294
   89SAPS  H14R 8610   6.228   0.064   8.767 -1.8835 -0.2332  2.0258
   89SAPS  C215 8611   6.129   0.120   8.588 -0.0792  0.2285  0.0788
   89SAPS  H15R 8612   6.127   0.018   8.547 -2.1212  1.2483 -2.5202
   89SAPS  C216 8613   6.050   0.225   8.510 -0.1893  0.1010  0.1607
   89SAPS  H16R 8614   6.097   0.325   8.518 -2.2545  1.3412 -2.1077
   89SAPS  H16S 8615   5.943   0.225   8.539 -1.0012  1.5278 -2.5983
   89SAPS  C217 8616   6.057   0.191   8.358  0.4450  0.4572 -0.0030
   89SAPS  H17R 8617   6.009   0.091   8.348 -0.0374  0.7769 -0.9953
   89SAPS  H17S 8618   6.165   0.178   8.334  0.8260 -0.5570  2.1822
   89SAPS  C218 8619   5.990   0.287   8.259  0.3052  1.1705  0.9754
   89SAPS  H18R 8620   5.881   0.304   8.272  0.1597 -0.6839  2.4618
   89SAPS  H18S 8621   5.992   0.228   8.165 -2.1685  0.7469  1.1637
   89SAPS  C219 8622   6.057   0.419   8.241 -1.0330 -0.1306  1.1886
   89SAPS  H19R 8623   6.161   0.389   8.215 -1.9144 -0.6979 -1.9681
   89SAPS  H19S 8624   6.059   0.473   8.338  2.6218 -1.3447  1.8528
   89SAPS  C220 8625   5.990   0.489   8.122 -0.3456 -0.1944  0.8627
   89SAPS  H20R 8626   5.995   0.427   8.030 -1.1403  1.5654 -0.3948
   89SAPS  H20S 8627   6.050   0.576   8.089 -0.9907 -0.3695 -0.8123
   89SAPS  H20T 8628   5.882   0.509   8.139 -1.1881 -2.8740 -1.0195
   89SAPS   C33 8629   5.809  -0.121   9.026 -0.2800  0.4600 -0.4576
   89SAPS   H3X 8630   5.702  -0.113   9.052 -0.1553  1.2937 -0.1848
   89SAPS   H3Y 8631   5.850  -0.220   9.056 -0.2784  0.6566  0.1831
   89SAPS   C34 8632   5.831  -0.117   8.873  0.0628 -0.1955 -0.4971
   89SAPS   H4X 8633   5.939  -0.112   8.849 -0.3126  0.9444 -2.0321
   89SAPS   H4Y 8634   5.795  -0.026   8.820 -0.5465  0.7355  1.4883
   89SAPS   C35 8635   5.746  -0.232   8.806 -0.0532 -0.0008 -0.4079
   89SAPS   H5X 8636   5.641  -0.199   8.824  0.1810 -0.5006  2.0193
   89SAPS   H5Y 8637   5.752  -0.330   8.858 -0.7572  1.1092  1.8287
   89SAPS   C36 8638   5.771  -0.257   8.658 -0.0415 -0.3166  0.2853
   89SAPS   H6X 8639   5.700  -0.336   8.626 -1.7485  1.2878  0.0211
   89SAPS   H6Y 8640   5.871  -0.296   8.629 -0.8460 -0.3038 -2.6927
   89SAPS   C37 8641   5.744  -0.142   8.558  0.6742 -0.8357  0.1961
   89SAPS   H7X 8642   5.789  -0.044   8.585 -1.3124 -0.4924  2.4153
   89SAPS   H7Y 8643   5.635  -0.122   8.566  0.3531 -2.2292 -0.4986
   89SAPS   C38 8644   5.754  -0.176   8.412 -0.7012 -0.2853 -0.0253
   89SAPS   H8X 8645   5.680  -0.107   8.365 -1.2742 -2.4200 -2.3428
   89SAPS   H8Y 8646   5.721  -0.282   8.405 -0.3994 -0.4315  0.7108
   89SAPS   C39 8647   5.900  -0.164   8.362  0.1424 -0.6538  0.2368
   89SAPS   H9X 8648   5.942  -0.267   8.372 -0.4840 -0.8398  1.0579
   89SAPS   H9Y 8649   5.953  -0.097   8.434 -0.4902  1.1745 -0.9647
   89SAPS  C310 8650   5.905  -0.131   8.215 -0.9056 -0.7554  0.5166
   89SAPS  H10X 8651   5.854  -0.035   8.192 -0.4515 -0.6348 -0.0018
   89SAPS  H10Y 8652   5.849  -0.202   8.151 -0.3116  0.6990 -1.6687
   89SAPS  C311 8653   6.052  -0.128   8.157  1.2038  0.3399  0.0966
   89SAPS  H11X 8654   6.124  -0.168   8.232  1.0987 -0.2789 -0.1312
   89SAPS  H11Y 8655   6.079  -0.020   8.156 -1.7413  1.1252  0.2924
   89SAPS  C312 8656   6.076  -0.207   8.025  0.4174 -0.5037 -0.1512
   89SAPS  H12X 8657   6.165  -0.166   7.974  1.3302 -0.2953  1.5583
   89SAPS  H12Y 8658   5.993  -0.198   7.952 -0.4414 -1.2048  0.7120
   89SAPS  C313 8659   6.102  -0.354   8.057 -0.0436  0.1969  0.1959
   89SAPS  H13X 8660   6.008  -0.399   8.095  0.6331 -1.1620  0.3184
   89SAPS  H13Y 8661   6.175  -0.359   8.141  0.3922 -2.2382 -0.2778
   89SAPS  C314 8662   6.163  -0.437   7.937  0.2281 -0.0521 -0.1479
   89SAPS  H14X 8663   6.254  -0.391   7.892  0.6349 -0.3353  0.3750
   89SAPS  H14Y 8664   6.085  -0.450   7.859  1.5140 -1.6571 -1.2006
   89SAPS  C315 8665   6.196  -0.582   7.987  0.6530  0.0832 -0.0223
   89SAPS  H15X 8666   6.224  -0.651   7.904  0.3471 -1.0342  0.7868
   89SAPS  H15Y 8667   6.109  -0.626   8.040 -0.1649  1.5454 -0.1403
   89SAPS  C316 8668   6.317  -0.589   8.082 -0.4081 -0.2890 -0.2760
   89SAPS  H16X 8669   6.331  -0.693   8.119  1.0274  0.4054  1.1744
   89SAPS  H16Y 8670   6.289  -0.519   8.164 -0.3049 -0.0189 -0.4708
   89SAPS  C317 8671   6.449  -0.547   8.015  0.0496  0.2078  0.3084
   89SAPS  H17X 8672   6.439  -0.446   7.970  1.6193  0.2445  0.0210
   89SAPS  H17Y 8673   6.458  -0.619   7.931 -0.4595  1.2657 -0.6695
   89SAPS  C318 8674   6.562  -0.567   8.108  0.6147 -0.0641 -0.0425
   89SAPS  H18X 8675   6.573  -0.464   8.148 -2.0128  0.3921 -0.4290
   89SAPS  H18Y 8676   6.655  -0.587   8.050 -0.6503 -0.1005 -2.0802
   89SAPS  H18Z 8677   6.542  -0.643   8.187 -1.4047  0.1166 -0.3611
   90SAPS     N 8678   0.464   0.422  10.024  0.2257  0.4071  0.0338
   90SAPS   HN1 8679   0.557   0.466  10.036  0.5454 -0.1940 -0.2424
   90SAPS   HN2 8680   0.433   0.358  10.101 -1.5353 -0.0182 -0.9791
   90SAPS   HN3 8681   0.474   0.363   9.939 -1.5427 -2.4383  1.6686
   90SAPS   C12 8682   0.376   0.543  10.005  0.6528  0.2976 -0.3127
   90SAPS  H12A 8683   0.368   0.587  10.103 -0.5940 -0.1239 -0.2143
   90SAPS   C13 8684   0.439   0.640   9.907  1.1061  0.1120 -0.2067
   90SAPS  O13A 8685   0.538   0.608   9.848  0.0761 -0.0717  0.2270
   90SAPS  O13B 8686   0.381   0.746   9.892 -0.2287 -0.8741 -0.3739
   90SAPS   C11 8687   0.247   0.487   9.956 -0.1538 -0.2143  0.1180
   90SAPS  H11A 8688   0.183   0.576   9.935  2.3898  1.3869 -1.0047
   90SAPS  H11B 8689   0.187   0.430  10.030  0.7883 -0.6065  0.5796
   90SAPS     P 8690   0.131   0.303   9.803 -0.2445 -0.5514 -0.1200
   90SAPS   O13 8691   0.173   0.166   9.843  0.3982 -0.2386  0.4134
   90SAPS   O14 8692   0.009   0.364   9.849 -0.3272  0.1319  0.1535
   90SAPS   O12 8693   0.249   0.401   9.839  0.0988 -0.4694 -0.2715
   90SAPS   O11 8694   0.141   0.309   9.645 -0.3466 -0.2483  0.0713
   90SAPS    C1 8695   0.255   0.308   9.566  0.2452  0.3136 -0.5119
   90SAPS    HA 8696   0.336   0.251   9.616 -1.4564 -2.0825 -0.3684
   90SAPS    HB 8697   0.226   0.249   9.476  2.1316  1.5571 -1.9791
   90SAPS    C2 8698   0.309   0.444   9.525  0.3712  0.0148 -0.1967
   90SAPS    HS 8699   0.357   0.496   9.610  0.0275  0.5185 -0.3106
   90SAPS   O21 8700   0.202   0.527   9.469  0.0493  0.5333 -0.0764
   90SAPS   C21 8701   0.219   0.659   9.439 -0.6466 -0.5848  0.7433
   90SAPS   O22 8702   0.323   0.721   9.450 -1.1612  0.4247  0.3948
   90SAPS   C22 8703   0.081   0.715   9.416 -0.4717 -0.2853 -0.5250
   90SAPS   H2R 8704   0.028   0.649   9.344  0.6921 -1.5737 -0.2172
   90SAPS   H2S 8705   0.033   0.697   9.514  2.2301 -2.5165  0.4439
   90SAPS    C3 8706   0.423   0.413   9.419 -0.2103 -0.2629 -0.3641
   90SAPS    HX 8707   0.506   0.367   9.476 -0.3541  0.7292  0.6595
   90SAPS    HY 8708   0.474   0.507   9.389 -0.9594  0.7065  1.3272
   90SAPS   O31 8709   0.390   0.325   9.313  0.1790 -0.3134 -0.3248
   90SAPS   C31 8710   0.335   0.385   9.209 -0.8787  0.7624  0.3692
   90SAPS   O32 8711   0.312   0.503   9.203  0.3384 -0.2301 -0.6365
   90SAPS   C32 8712   0.311   0.290   9.095  0.0635 -0.0234 -0.5213
   90SAPS   H2X 8713   0.408   0.283   9.042  0.2945 -2.2825  0.1717
   90SAPS   H2Y 8714   0.245   0.342   9.022  0.4851  2.8178  1.0530
   90SAPS   C23 8715   0.068   0.864   9.376  0.5739 -0.6589 -0.0203
   90SAPS   H3R 8716   0.148   0.887   9.303  1.1460  1.6444  1.2971
   90SAPS   H3S 8717   0.079   0.934   9.461  1.3307 -0.6525 -0.1212
   90SAPS   C24 8718  -0.067   0.890   9.315 -0.2323 -0.1136 -0.1537
   90SAPS   H4R 8719  -0.135   0.873   9.401 -0.4332 -0.8814 -0.4557
   90SAPS   H4S 8720  -0.096   0.813   9.240  1.3552  2.0425 -3.1261
   90SAPS   C25 8721  -0.077   1.026   9.251  0.4345 -0.2333 -0.4614
   90SAPS   H5R 8722  -0.114   1.103   9.320  0.0960  1.2270 -2.2542
   90SAPS   C26 8723  -0.061   1.056   9.121 -0.1840 -0.6489 -0.6771
   90SAPS   H6R 8724  -0.060   1.164   9.101 -0.9460 -0.5026  0.0150
   90SAPS   C27 8725  -0.021   0.976   9.004 -0.2501  0.1351  0.1003
   90SAPS   H7R 8726   0.011   0.874   9.033 -0.7696 -1.0479 -3.1884
   90SAPS   H7S 8727   0.069   1.017   8.951  1.0721 -2.3905  0.3423
   90SAPS   C28 8728  -0.138   0.944   8.915 -0.0760 -0.4263  0.4369
   90SAPS   H8R 8729  -0.200   0.860   8.951  2.0089 -1.9555  0.5185
   90SAPS   C29 8730  -0.169   1.006   8.804 -0.0818  0.1653  0.3476
   90SAPS   H9R 8731  -0.272   0.991   8.768 -0.3268  2.4812 -0.0076
   90SAPS  C210 8732  -0.096   1.113   8.738 -0.9145 -0.0673  0.1585
   90SAPS  H10R 8733   0.011   1.084   8.745 -0.6518  0.6871 -0.7200
   90SAPS  H10S 8734  -0.098   1.208   8.795  0.2882  0.5734 -0.8298
   90SAPS  C211 8735  -0.156   1.133   8.599  0.1620 -0.3639  0.0361
   90SAPS  H11R 8736  -0.227   1.217   8.596  1.2235  0.5729  0.6321
   90SAPS  C212 8737  -0.130   1.063   8.488  0.5286  0.9025 -0.4406
   90SAPS  H12R 8738  -0.181   1.097   8.397  1.2352  1.3415 -0.6827
   90SAPS  C213 8739  -0.037   0.942   8.465  0.5853  0.0905 -0.5285
   90SAPS  H13R 8740  -0.091   0.850   8.435  0.6071  0.1103 -0.6292
   90SAPS  H13S 8741   0.021   0.915   8.556 -2.3566  2.8059  2.2866
   90SAPS  C214 8742   0.049   0.975   8.348  0.1284  0.5291 -0.0344
   90SAPS  H14R 8743   0.140   1.035   8.363  0.2034  0.1350  1.1787
   90SAPS  C215 8744   0.033   0.937   8.218  0.7490  0.8366  0.0109
   90SAPS  H15R 8745   0.090   0.990   8.140 -0.5638  0.4348 -1.2535
   90SAPS  C216 8746  -0.091   0.866   8.184  1.2300 -0.3412  0.1498
   90SAPS  H16R 8747  -0.181   0.905   8.236  1.3399 -2.1310  1.7395
   90SAPS  H16S 8748  -0.091   0.764   8.228  1.3595 -0.7769 -0.8469
   90SAPS  C217 8749  -0.126   0.876   8.033 -0.0630  0.2868 -0.6185
   90SAPS  H17R 8750  -0.048   0.818   7.979 -0.2560  0.7256 -1.3894
   90SAPS  H17S 8751  -0.111   0.981   7.998 -0.9641  0.3889 -0.7142
   90SAPS  C218 8752  -0.270   0.819   8.002 -0.2287 -0.3366  0.5097
   90SAPS  H18R 8753  -0.335   0.898   8.045 -0.3482  0.8610 -1.7726
   90SAPS  H18S 8754  -0.271   0.728   8.066  0.3583  0.7323  2.0595
   90SAPS  C219 8755  -0.293   0.794   7.853  0.3204 -0.0361  0.0802
   90SAPS  H19R 8756  -0.394   0.750   7.844  1.0668 -1.4824 -1.4319
   90SAPS  H19S 8757  -0.218   0.715   7.831 -2.1485 -2.2113 -0.7248
   90SAPS  C220 8758  -0.270   0.918   7.765  0.8095  0.1123  0.0804
   90SAPS  H20R 8759  -0.171   0.962   7.787  1.6721 -0.7425 -1.9829
   90SAPS  H20S 8760  -0.356   0.985   7.790  0.4362 -0.7510  1.1514
   90SAPS  H20T 8761  -0.278   0.885   7.659 -3.0036 -0.8940  0.5853
   90SAPS   C33 8762   0.258   0.150   9.130  0.1348 -0.6569  0.9617
   90SAPS   H3X 8763   0.318   0.093   9.204  0.6153 -2.8549 -1.0250
   90SAPS   H3Y 8764   0.256   0.088   9.037  0.8965 -2.6623  2.2486
   90SAPS   C34 8765   0.113   0.163   9.181  0.0221 -0.2301  0.1752
   90SAPS   H4X 8766   0.070   0.224   9.099  0.5956  1.3034  0.9870
   90SAPS   H4Y 8767   0.098   0.225   9.272 -1.7562 -1.0529  0.4595
   90SAPS   C35 8768   0.027   0.038   9.192 -0.8468  0.5992  0.0320
   90SAPS   H5X 8769   0.058  -0.025   9.277 -0.4396  1.1041  0.2608
   90SAPS   H5Y 8770   0.036  -0.024   9.100  0.0721 -0.2579  0.6828
   90SAPS   C36 8771  -0.121   0.075   9.206 -0.1880  0.1535 -0.5688
   90SAPS   H6X 8772  -0.161   0.131   9.119 -0.9962  0.4003 -0.0393
   90SAPS   H6Y 8773  -0.137   0.144   9.291 -0.7321 -2.9787  1.9791
   90SAPS   C37 8774  -0.202  -0.056   9.220  0.1479 -0.1052  0.9718
   90SAPS   H7X 8775  -0.168  -0.108   9.312  0.3990  1.3731  1.7224
   90SAPS   H7Y 8776  -0.189  -0.121   9.131  1.0572  0.3944  0.7270
   90SAPS   C38 8777  -0.353  -0.040   9.229 -0.4563 -0.2012 -0.5456
   90SAPS   H8X 8778  -0.383   0.016   9.320 -1.2554  0.8982 -1.4709
   90SAPS   H8Y 8779  -0.398  -0.140   9.250 -1.8023  0.2608 -1.1415
   90SAPS   C39 8780  -0.424   0.021   9.105 -0.0963  0.0341  0.3738
   90SAPS   H9X 8781  -0.397  -0.034   9.012  0.1091  0.0017  0.4513
   90SAPS   H9Y 8782  -0.382   0.124   9.095  0.5317 -0.3722 -1.4013
   90SAPS  C310 8783  -0.570   0.046   9.124  0.6378  0.3785  0.1267
   90SAPS  H10X 8784  -0.585   0.139   9.183 -1.0930  0.8844 -1.0675
   90SAPS  H10Y 8785  -0.600  -0.039   9.190  0.3256  2.9192  3.4192
   90SAPS  C311 8786  -0.657   0.059   8.989 -0.9741  0.3883 -0.4652
   90SAPS  H11X 8787  -0.762   0.084   9.013 -0.9354 -1.3168  1.6302
   90SAPS  H11Y 8788  -0.655  -0.039   8.936  1.0134  0.2738 -0.2185
   90SAPS  C312 8789  -0.608   0.179   8.902  0.0863 -0.2392  0.4014
   90SAPS  H12X 8790  -0.567   0.268   8.955 -1.0371  0.3335  0.3261
   90SAPS  H12Y 8791  -0.701   0.213   8.852  1.2551 -0.3725 -1.8978
   90SAPS  C313 8792  -0.524   0.139   8.777  0.3238  0.1121  0.1318
   90SAPS  H13X 8793  -0.552   0.040   8.735  2.4140  0.0309 -1.1164
   90SAPS  H13Y 8794  -0.428   0.121   8.831  0.9485 -0.0645 -1.0362
   90SAPS  C314 8795  -0.501   0.247   8.671 -0.2618 -0.7291  0.4201
   90SAPS  H14X 8796  -0.416   0.224   8.603 -0.4971  0.2085 -0.2054
   90SAPS  H14Y 8797  -0.492   0.340   8.730 -1.5396  0.8235 -1.7338
   90SAPS  C315 8798  -0.634   0.267   8.594  0.2204  0.7537 -0.9312
   90SAPS  H15X 8799  -0.711   0.304   8.665  0.5225  0.9321 -0.6939
   90SAPS  H15Y 8800  -0.664   0.162   8.573  0.2061  1.0032 -2.1735
   90SAPS  C316 8801  -0.622   0.349   8.465 -0.3058  0.3819 -0.3876
   90SAPS  H16X 8802  -0.522   0.343   8.417 -0.0043  1.0023  0.1574
   90SAPS  H16Y 8803  -0.636   0.456   8.489 -1.6957 -0.3850  2.4057
   90SAPS  C317 8804  -0.727   0.303   8.357 -0.1504  0.1280  0.2137
   90SAPS  H17X 8805  -0.829   0.310   8.401 -0.2737 -0.5285  0.0361
   90SAPS  H17Y 8806  -0.708   0.196   8.334 -1.1011 -1.3798  5.7076
   90SAPS  C318 8807  -0.730   0.374   8.219  0.2283 -0.5869  0.0426
   90SAPS  H18X 8808  -0.627   0.384   8.178  0.1551 -1.4750 -0.3555
   90SAPS  H18Y 8809  -0.761   0.480   8.231 -0.8173 -0.7235 -1.3791
   90SAPS  H18Z 8810  -0.801   0.318   8.155 -2.4572 -0.0054  2.3934
   91SAPS     N 8811   3.271   3.614   5.666 -0.6385  0.2434  0.3269
   91SAPS   HN1 8812   3.212   3.646   5.745  1.2859  0.9631  1.5200
   91SAPS   HN2 8813   3.233   3.530   5.619  1.5619  0.1690 -1.4037
   91SAPS   HN3 8814   3.363   3.574   5.696 -1.2416 -1.1924  0.2655
   91SAPS   C12 8815   3.288   3.726   5.564  0.1751 -0.6524 -0.0520
   91SAPS  H12A 8816   3.335   3.677   5.479 -0.1354 -1.1276  0.0489
   91SAPS   C13 8817   3.156   3.785   5.511 -0.0830  1.2066 -0.1030
   91SAPS  O13A 8818   3.052   3.762   5.579 -0.7374  0.2860 -0.3396
   91SAPS  O13B 8819   3.155   3.862   5.414 -0.5655  0.3997  0.1464
   91SAPS   C11 8820   3.368   3.844   5.620 -0.5362  0.7518  0.5180
   91SAPS  H11A 8821   3.321   3.885   5.712 -1.4504  2.1437 -0.5573
   91SAPS  H11B 8822   3.361   3.931   5.552 -0.8928  1.5591  1.5758
   91SAPS     P 8823   3.558   3.755   5.780 -0.0581  0.2129  0.0791
   91SAPS   O13 8824   3.518   3.614   5.790  0.0995  0.0927 -0.3104
   91SAPS   O14 8825   3.699   3.790   5.792 -0.2098 -0.3780  0.4830
   91SAPS   O12 8826   3.504   3.816   5.642 -0.5967 -0.0205  0.6794
   91SAPS   O11 8827   3.485   3.833   5.896  0.1506 -0.4690 -0.0279
   91SAPS    C1 8828   3.498   3.981   5.909 -0.1641 -0.2008  0.1858
   91SAPS    HA 8829   3.603   4.001   5.938  0.0799 -1.7720  0.4007
   91SAPS    HB 8830   3.475   4.033   5.814 -2.3816 -1.8356 -0.2142
   91SAPS    C2 8831   3.400   4.032   6.015  1.1950  0.4393 -0.8666
   91SAPS    HS 8832   3.394   4.142   6.003 -0.6673  0.3460 -0.9799
   91SAPS   O21 8833   3.461   4.004   6.141 -0.2891 -0.0770 -0.2160
   91SAPS   C21 8834   3.408   4.063   6.253 -0.0151 -0.8848  0.2295
   91SAPS   O22 8835   3.312   4.137   6.254 -0.0681  0.4629  0.0882
   91SAPS   C22 8836   3.484   4.036   6.385  0.4041  0.1546 -0.7128
   91SAPS   H2R 8837   3.438   3.944   6.426 -1.7482  0.2199 -2.8756
   91SAPS   H2S 8838   3.589   4.018   6.354  0.7079  1.0546 -0.2141
   91SAPS    C3 8839   3.250   3.980   6.001  0.7501 -0.4403  0.7111
   91SAPS    HX 8840   3.223   3.974   5.894 -1.7046 -1.0894  1.3361
   91SAPS    HY 8841   3.178   4.052   6.045 -0.3834 -0.4669 -1.0679
   91SAPS   O31 8842   3.238   3.850   6.068 -0.2082  0.1938  0.3459
   91SAPS   C31 8843   3.210   3.744   5.995 -0.0843 -0.5423  0.1110
   91SAPS   O32 8844   3.176   3.741   5.879  0.2719 -0.2480 -0.4871
   91SAPS   C32 8845   3.211   3.614   6.076  0.4968 -0.1404 -0.0894
   91SAPS   H2X 8846   3.199   3.526   6.008  0.8121 -0.9665  0.9192
   91SAPS   H2Y 8847   3.117   3.617   6.135 -0.0980 -2.6030 -0.8265
   91SAPS   C23 8848   3.470   4.150   6.483 -0.3436 -0.7067 -0.1035
   91SAPS   H3R 8849   3.371   4.187   6.517  0.1315  0.6355 -0.1602
   91SAPS   H3S 8850   3.516   4.234   6.427  1.2183 -0.5746  1.3154
   91SAPS   C24 8851   3.558   4.129   6.612  0.2727  0.2032  0.7165
   91SAPS   H4R 8852   3.567   4.224   6.669  2.1166  1.1135 -1.0634
   91SAPS   H4S 8853   3.659   4.092   6.587 -0.4315  0.5278 -2.8722
   91SAPS   C25 8854   3.492   4.030   6.711  0.1916 -0.4329  0.4982
   91SAPS   H5R 8855   3.430   3.950   6.669 -0.7878  0.1787  0.7797
   91SAPS   C26 8856   3.489   4.037   6.846 -0.8650  0.3093 -0.4070
   91SAPS   H6R 8857   3.419   3.975   6.903  1.0557  1.5244  3.4253
   91SAPS   C27 8858   3.554   4.148   6.931 -0.2380 -0.1689 -0.7092
   91SAPS   H7R 8859   3.479   4.209   6.984 -1.6076 -2.5817  0.1914
   91SAPS   H7S 8860   3.613   4.212   6.861 -1.3080 -0.7640 -2.1957
   91SAPS   C28 8861   3.661   4.094   7.020  0.5052  0.1745 -0.1086
   91SAPS   H8R 8862   3.718   4.011   6.976  0.0017 -0.7716  0.9855
   91SAPS   C29 8863   3.693   4.151   7.140  0.1231 -0.1669 -0.2185
   91SAPS   H9R 8864   3.778   4.110   7.198 -0.1951 -2.1056 -1.1010
   91SAPS  C210 8865   3.617   4.267   7.197 -0.3227 -0.7282  0.4258
   91SAPS  H10R 8866   3.523   4.242   7.249 -1.2897 -0.5858 -1.2217
   91SAPS  H10S 8867   3.586   4.337   7.116  4.2207  0.7291 -0.2063
   91SAPS  C211 8868   3.696   4.361   7.291 -0.1288 -0.3355 -1.0038
   91SAPS  H11R 8869   3.752   4.442   7.243  3.7046 -1.8162  0.7642
   91SAPS  C212 8870   3.711   4.339   7.419  0.0508 -0.7986 -0.5603
   91SAPS  H12R 8871   3.758   4.422   7.473  1.4784  0.0564 -3.0423
   91SAPS  C213 8872   3.650   4.232   7.495  0.2157 -0.2183 -0.3310
   91SAPS  H13R 8873   3.655   4.141   7.432 -1.8641 -0.0146 -0.8217
   91SAPS  H13S 8874   3.542   4.260   7.493  0.6165  1.6197  1.6625
   91SAPS  C214 8875   3.707   4.214   7.642  0.2580  0.2088  0.9202
   91SAPS  H14R 8876   3.802   4.158   7.647  1.1743  1.5053 -1.0514
   91SAPS  C215 8877   3.663   4.256   7.758 -0.6089  0.3973  0.0729
   91SAPS  H15R 8878   3.723   4.243   7.849 -1.1261  0.4868  0.4340
   91SAPS  C216 8879   3.530   4.325   7.779 -0.1560  0.0643 -0.2167
   91SAPS  H16R 8880   3.452   4.249   7.757  0.3069 -0.8558  1.2384
   91SAPS  H16S 8881   3.517   4.406   7.704 -2.4486 -0.2338 -0.1646
   91SAPS  C217 8882   3.498   4.400   7.910 -0.2821  0.1027 -0.2076
   91SAPS  H17R 8883   3.569   4.485   7.920  0.1802  0.0106 -2.4028
   91SAPS  H17S 8884   3.509   4.336   8.000  0.6544  1.0852  0.3834
   91SAPS  C218 8885   3.359   4.459   7.912  0.7888  0.1068 -0.3897
   91SAPS  H18R 8886   3.276   4.386   7.924  1.2976 -0.4191 -0.0162
   91SAPS  H18S 8887   3.337   4.510   7.816 -1.3046  0.4935  0.2847
   91SAPS  C219 8888   3.342   4.564   8.030 -0.6239  0.1255  0.4881
   91SAPS  H19R 8889   3.401   4.657   8.013  0.4175 -0.7882 -1.0078
   91SAPS  H19S 8890   3.375   4.510   8.121  1.1886  0.5916  0.1280
   91SAPS  C220 8891   3.192   4.608   8.039 -0.8641 -0.2244 -0.2038
   91SAPS  H20R 8892   3.182   4.690   8.112  1.3912  0.2076 -0.3470
   91SAPS  H20S 8893   3.112   4.531   8.047 -1.0854  0.1355  0.9785
   91SAPS  H20T 8894   3.182   4.653   7.938  0.5055 -0.7422 -0.5858
   91SAPS   C33 8895   3.336   3.596   6.163  0.1131  0.3174  0.5134
   91SAPS   H3X 8896   3.328   3.661   6.252 -1.6646  2.2987 -1.0174
   91SAPS   H3Y 8897   3.419   3.628   6.097 -1.3833  0.6483 -1.2686
   91SAPS   C34 8898   3.350   3.450   6.202  0.5624 -0.4959  0.0103
   91SAPS   H4X 8899   3.461   3.439   6.213  0.6380  0.5411  0.3290
   91SAPS   H4Y 8900   3.311   3.389   6.118  0.9434  0.1892 -0.6681
   91SAPS   C35 8901   3.289   3.411   6.337  0.5908  1.1960  0.3462
   91SAPS   H5X 8902   3.301   3.301   6.340 -0.9961  1.0075  0.0000
   91SAPS   H5Y 8903   3.178   3.419   6.335  0.4600  0.4629  2.7585
   91SAPS   C36 8904   3.337   3.492   6.455 -0.1470  0.8640 -0.2852
   91SAPS   H6X 8905   3.271   3.458   6.537 -0.1126  1.5943  0.0498
   91SAPS   H6Y 8906   3.327   3.602   6.440 -0.1655  1.2180  2.1702
   91SAPS   C37 8907   3.487   3.468   6.487 -0.3753 -0.1221 -0.8200
   91SAPS   H7X 8908   3.559   3.480   6.403 -0.4387 -1.1380 -1.0294
   91SAPS   H7Y 8909   3.499   3.362   6.516  0.3104  0.1234 -0.2102
   91SAPS   C38 8910   3.528   3.556   6.608  0.3679  0.3961  0.4737
   91SAPS   H8X 8911   3.451   3.547   6.687 -0.8124 -1.2726 -0.8217
   91SAPS   H8Y 8912   3.520   3.660   6.571  3.0465  0.9798  1.4197
   91SAPS   C39 8913   3.675   3.542   6.655  0.3614  0.4188  0.4534
   91SAPS   H9X 8914   3.740   3.554   6.566 -0.9737  0.5003 -0.5158
   91SAPS   H9Y 8915   3.693   3.444   6.705 -1.0356 -1.2785 -2.2733
   91SAPS  C310 8916   3.714   3.658   6.749 -0.2783 -0.1919 -0.4557
   91SAPS  H10X 8917   3.633   3.649   6.825  1.9901 -0.4908  2.0327
   91SAPS  H10Y 8918   3.702   3.750   6.688  2.1578 -0.6901 -1.7340
   91SAPS  C311 8919   3.848   3.632   6.806 -0.5234  0.1527  0.2400
   91SAPS  H11X 8920   3.922   3.616   6.725  1.7078  2.2108  1.8079
   91SAPS  H11Y 8921   3.836   3.536   6.861  1.7130 -0.4599 -0.2890
   91SAPS  C312 8922   3.891   3.734   6.912 -0.0772  0.2462  0.4725
   91SAPS  H12X 8923   3.805   3.735   6.982  1.0561  0.9287  1.8879
   91SAPS  H12Y 8924   3.910   3.831   6.861  0.2625  0.3319  0.7586
   91SAPS  C313 8925   4.030   3.696   6.970 -0.2271 -0.0219  0.8312
   91SAPS  H13X 8926   4.097   3.675   6.885 -1.3204 -0.3693  0.0497
   91SAPS  H13Y 8927   4.013   3.604   7.029 -3.6870 -0.2290 -0.3723
   91SAPS  C314 8928   4.104   3.811   7.039 -0.1012 -0.2747  0.2888
   91SAPS  H14X 8929   4.043   3.903   7.026  3.7635  2.4380  0.4106
   91SAPS  H14Y 8930   4.206   3.824   6.997 -0.2677 -2.1102 -0.7196
   91SAPS  C315 8931   4.114   3.810   7.195  0.0162  0.5555 -0.1007
   91SAPS  H15X 8932   4.219   3.783   7.220 -0.5321 -3.9645 -2.2454
   91SAPS  H15Y 8933   4.058   3.724   7.238 -0.5420 -0.6097 -3.0717
   91SAPS  C316 8934   4.083   3.947   7.264 -0.4055  0.4439 -0.0054
   91SAPS  H16X 8935   3.976   3.974   7.250 -0.3605 -0.6535 -2.7104
   91SAPS  H16Y 8936   4.141   4.024   7.208 -1.1745  1.9575  1.2406
   91SAPS  C317 8937   4.109   3.948   7.415  0.1456  0.2867  0.2009
   91SAPS  H17X 8938   4.216   3.920   7.429  0.0641  0.0518  0.3600
   91SAPS  H17Y 8939   4.048   3.866   7.457  0.8989 -0.3550  0.0583
   91SAPS  C318 8940   4.066   4.077   7.487  0.5624  0.3175 -0.0271
   91SAPS  H18X 8941   4.104   4.161   7.425  2.8780  0.1145  1.0854
   91SAPS  H18Y 8942   4.113   4.095   7.586  1.1378 -0.7532 -0.0959
   91SAPS  H18Z 8943   3.958   4.101   7.492  0.3372 -0.7864  0.5591
   92SAPS     N 8944   2.902   3.542   5.611  0.1957 -0.3820 -0.4443
   92SAPS   HN1 8945   2.923   3.526   5.712  0.5085 -1.4538 -0.6671
   92SAPS   HN2 8946   2.966   3.612   5.569  2.1472 -1.4335  0.6719
   92SAPS   HN3 8947   2.802   3.570   5.617 -0.0181 -1.3134  0.4548
   92SAPS   C12 8948   2.907   3.412   5.549 -0.7151  0.3993  0.1873
   92SAPS  H12A 8949   2.835   3.423   5.470 -1.1759 -0.6174  0.4580
   92SAPS   C13 8950   3.045   3.372   5.491  0.0718  0.5073  0.6425
   92SAPS  O13A 8951   3.139   3.453   5.504 -0.2679 -0.3788 -0.3275
   92SAPS  O13B 8952   3.047   3.282   5.402  0.2420  0.0705  0.3276
   92SAPS   C11 8953   2.864   3.299   5.649  0.4967 -0.5159  0.0183
   92SAPS  H11A 8954   2.941   3.286   5.728  1.3969 -0.5716 -0.8654
   92SAPS  H11B 8955   2.865   3.210   5.583 -0.0006 -0.8312  0.4257
   92SAPS     P 8956   2.686   3.268   5.842 -0.5787 -0.5198  0.0674
   92SAPS   O13 8957   2.777   3.325   5.944  0.1340  0.1613  0.5860
   92SAPS   O14 8958   2.545   3.281   5.862 -0.7391  0.4273  0.2301
   92SAPS   O12 8959   2.731   3.332   5.700 -0.1784  0.4768 -0.1002
   92SAPS   O11 8960   2.714   3.118   5.808  0.4418 -0.1845 -0.2261
   92SAPS    C1 8961   2.831   3.047   5.850  0.5347 -0.4366 -0.7764
   92SAPS    HA 8962   2.885   3.006   5.762 -1.4075 -0.1500 -2.1473
   92SAPS    HB 8963   2.904   3.116   5.897 -0.8339 -0.9856  2.3046
   92SAPS    C2 8964   2.787   2.928   5.943 -0.2342 -0.2884  0.6450
   92SAPS    HS 8965   2.746   2.844   5.883 -4.4549  1.7901  0.4487
   92SAPS   O21 8966   2.691   2.958   6.043  0.2352 -0.1478 -0.2421
   92SAPS   C21 8967   2.604   2.858   6.075  0.1159 -0.9253  0.0276
   92SAPS   O22 8968   2.609   2.742   6.041 -0.2537 -0.2519 -0.2550
   92SAPS   C22 8969   2.492   2.920   6.166 -0.2571  0.9567 -0.3495
   92SAPS   H2R 8970   2.538   2.994   6.235  0.2050 -1.1175  1.6095
   92SAPS   H2S 8971   2.430   2.960   6.083  0.2061  0.1928 -1.0731
   92SAPS    C3 8972   2.921   2.872   6.023 -0.1798 -0.4036 -0.3083
   92SAPS    HX 8973   2.998   2.841   5.950 -0.5584 -0.5953 -0.6269
   92SAPS    HY 8974   2.882   2.783   6.076 -0.7511  0.2997  0.4671
   92SAPS   O31 8975   2.972   2.971   6.117  0.0576  0.2133 -0.4400
   92SAPS   C31 8976   3.031   2.934   6.231 -0.0829 -0.5595  0.2650
   92SAPS   O32 8977   3.037   2.820   6.277  0.5293  0.2783  0.8326
   92SAPS   C32 8978   3.076   3.064   6.310  0.4050 -0.1613  0.0151
   92SAPS   H2X 8979   3.008   3.144   6.275  0.0279  0.1854  1.5340
   92SAPS   H2Y 8980   3.179   3.081   6.270 -0.0876  0.7229 -0.8738
   92SAPS   C23 8981   2.408   2.829   6.257  0.0938  0.5832 -0.3746
   92SAPS   H3R 8982   2.389   2.734   6.202  0.0586 -0.5162  1.5027
   92SAPS   H3S 8983   2.307   2.873   6.275  0.3736  0.9280  0.3596
   92SAPS   C24 8984   2.469   2.803   6.389 -0.4368  0.3897  0.0324
   92SAPS   H4R 8985   2.388   2.746   6.439 -1.1813  0.8021 -0.6997
   92SAPS   H4S 8986   2.465   2.897   6.449 -0.1613  0.3054  0.1824
   92SAPS   C25 8987   2.593   2.733   6.360  0.1858  0.4640 -0.6092
   92SAPS   H5R 8988   2.591   2.646   6.294 -3.4070  1.1267 -1.4428
   92SAPS   C26 8989   2.706   2.747   6.428 -0.7372  0.1842 -0.3422
   92SAPS   H6R 8990   2.798   2.692   6.403 -0.2386  0.4520  0.8511
   92SAPS   C27 8991   2.721   2.839   6.550 -0.3566  0.2459 -0.6983
   92SAPS   H7R 8992   2.634   2.905   6.568 -3.1040 -2.4974 -3.1515
   92SAPS   H7S 8993   2.807   2.907   6.533  0.2885 -0.2307  0.6438
   92SAPS   C28 8994   2.737   2.752   6.676 -0.0160 -0.8666  0.5791
   92SAPS   H8R 8995   2.694   2.651   6.677  0.3364 -1.0268  2.2369
   92SAPS   C29 8996   2.791   2.803   6.790 -0.1730  0.6391 -0.1287
   92SAPS   H9R 8997   2.818   2.739   6.875  2.5963  1.6884 -0.1636
   92SAPS  C210 8998   2.848   2.940   6.812 -0.1924  0.4405  0.8247
   92SAPS  H10R 8999   2.903   2.984   6.726 -0.1603 -0.9962  0.0896
   92SAPS  H10S 9000   2.942   2.920   6.868 -1.1630 -0.8901  2.0030
   92SAPS  C211 9001   2.756   3.044   6.867  0.2250  0.3393 -0.3030
   92SAPS  H11R 9002   2.669   3.078   6.810 -0.3997  0.7243  0.8546
   92SAPS  C212 9003   2.801   3.120   6.973  0.4861 -0.6084 -0.1557
   92SAPS  H12R 9004   2.730   3.195   7.010  0.2841 -1.3769  1.0555
   92SAPS  C213 9005   2.938   3.114   7.042  0.2688 -0.1013 -0.1965
   92SAPS  H13R 9006   2.960   3.213   7.086  1.4517 -0.2626 -0.4105
   92SAPS  H13S 9007   3.020   3.098   6.968  1.1377  1.4414  0.4108
   92SAPS  C214 9008   2.955   3.003   7.142 -0.2039  0.1081 -0.8363
   92SAPS  H14R 9009   2.896   2.913   7.118  2.2543 -0.9995 -3.1214
   92SAPS  C215 9010   3.022   2.997   7.259  0.2551 -0.5825  0.8382
   92SAPS  H15R 9011   3.031   2.901   7.312  0.4568 -0.5275  0.9035
   92SAPS  C216 9012   3.095   3.103   7.336  0.2640  0.1820  0.1255
   92SAPS  H16R 9013   3.086   3.075   7.443 -0.1548 -0.5010 -0.0867
   92SAPS  H16S 9014   3.047   3.202   7.321 -2.6446 -1.1718  0.1888
   92SAPS  C217 9015   3.240   3.106   7.295 -0.7108 -0.7835 -0.0926
   92SAPS  H17R 9016   3.242   3.153   7.194 -0.1969  0.8905  0.6763
   92SAPS  H17S 9017   3.291   3.008   7.281 -1.2447 -0.6146 -3.5143
   92SAPS  C218 9018   3.321   3.183   7.403  0.1575 -0.6842 -0.3175
   92SAPS  H18R 9019   3.421   3.201   7.358 -1.1662  2.6112 -2.1459
   92SAPS  H18S 9020   3.330   3.127   7.499  1.3939  1.6975  1.0259
   92SAPS  C219 9021   3.273   3.321   7.451  0.2644  0.1959  0.2559
   92SAPS  H19R 9022   3.165   3.307   7.474  0.7895 -1.4709  1.8365
   92SAPS  H19S 9023   3.273   3.394   7.367  1.4761  0.2174  0.2705
   92SAPS  C220 9024   3.341   3.384   7.577  0.1187 -0.4820 -0.2787
   92SAPS  H20R 9025   3.443   3.422   7.555 -0.1433  0.8176  0.7267
   92SAPS  H20S 9026   3.342   3.331   7.675 -0.7870  0.9854  0.5442
   92SAPS  H20T 9027   3.276   3.472   7.595  2.6817  1.5175 -0.4584
   92SAPS   C33 9028   3.080   3.040   6.460  0.1216  0.2346  0.2458
   92SAPS   H3X 9029   3.108   2.935   6.480 -0.6988  0.3139  1.8402
   92SAPS   H3Y 9030   2.977   3.041   6.501  0.3528  0.6484  0.8204
   92SAPS   C34 9031   3.170   3.137   6.526  0.1329  0.8263 -0.0659
   92SAPS   H4X 9032   3.145   3.242   6.500 -1.0338  0.2741 -1.2335
   92SAPS   H4Y 9033   3.272   3.109   6.492 -0.1417 -0.0812 -0.1611
   92SAPS   C35 9034   3.179   3.119   6.673  0.9769  0.2045 -0.5693
   92SAPS   H5X 9035   3.184   3.012   6.700  2.9094  0.3260 -0.4020
   92SAPS   H5Y 9036   3.092   3.157   6.731  1.8630 -0.2727  1.1031
   92SAPS   C36 9037   3.300   3.192   6.726  0.6378 -0.1660 -0.4906
   92SAPS   H6X 9038   3.320   3.275   6.655 -0.2328 -0.5493 -1.1790
   92SAPS   H6Y 9039   3.394   3.133   6.715  1.2887  0.7929 -0.1965
   92SAPS   C37 9040   3.291   3.244   6.867 -0.5747  0.1273 -0.6382
   92SAPS   H7X 9041   3.292   3.158   6.937 -0.2651  1.4872  1.0640
   92SAPS   H7Y 9042   3.193   3.296   6.873 -0.5889  0.5384 -3.6223
   92SAPS   C38 9043   3.403   3.337   6.896 -0.2602 -0.2772  0.0158
   92SAPS   H8X 9044   3.400   3.427   6.831  2.0217 -1.4630 -1.8179
   92SAPS   H8Y 9045   3.498   3.298   6.853 -1.4847  0.3711 -3.4088
   92SAPS   C39 9046   3.415   3.369   7.041  0.6033 -0.0494  0.0593
   92SAPS   H9X 9047   3.407   3.276   7.101 -0.4334 -0.1419 -0.2150
   92SAPS   H9Y 9048   3.330   3.431   7.077  1.2015  0.5490  0.4747
   92SAPS  C310 9049   3.545   3.450   7.071  0.3347 -0.2276 -0.3714
   92SAPS  H10X 9050   3.546   3.537   7.002  0.5363 -0.8147 -1.1132
   92SAPS  H10Y 9051   3.638   3.391   7.060  0.5372  0.3960 -2.1517
   92SAPS  C311 9052   3.536   3.512   7.213  0.0036 -0.1067 -0.3219
   92SAPS  H11X 9053   3.504   3.433   7.284 -1.3452  1.6036  1.0123
   92SAPS  H11Y 9054   3.464   3.595   7.200 -1.3808 -1.6036 -2.4620
   92SAPS  C312 9055   3.675   3.567   7.254 -1.0153  0.4549 -0.0740
   92SAPS  H12X 9056   3.687   3.652   7.183  0.9956 -0.7246 -1.1683
   92SAPS  H12Y 9057   3.742   3.481   7.234 -0.8557  0.7015 -0.6254
   92SAPS  C313 9058   3.684   3.625   7.394 -0.1266 -0.1780  0.4691
   92SAPS  H13X 9059   3.702   3.532   7.454 -0.7224 -0.6206 -0.0345
   92SAPS  H13Y 9060   3.586   3.670   7.421  0.6921  2.1480 -0.3837
   92SAPS  C314 9061   3.793   3.729   7.420 -0.0533  0.4102  0.2762
   92SAPS  H14X 9062   3.805   3.787   7.326 -0.9547  2.2390  1.2767
   92SAPS  H14Y 9063   3.893   3.682   7.435  0.9799  1.4177 -2.9436
   92SAPS  C315 9064   3.765   3.809   7.542 -0.5766  0.0670  0.0936
   92SAPS  H15X 9065   3.666   3.859   7.537 -0.5458  0.4019  2.4297
   92SAPS  H15Y 9066   3.838   3.892   7.532 -0.6615  0.3018  1.4057
   92SAPS  C316 9067   3.794   3.752   7.682  0.3254  0.2800  0.1934
   92SAPS  H16X 9068   3.896   3.708   7.677  0.4968  0.7768 -0.6725
   92SAPS  H16Y 9069   3.727   3.666   7.705 -0.5196  1.7959  3.7545
   92SAPS  C317 9070   3.773   3.852   7.798  0.7123 -0.2787  0.8782
   92SAPS  H17X 9071   3.725   3.802   7.885 -3.3337  0.0938 -0.9990
   92SAPS  H17Y 9072   3.698   3.929   7.768 -0.9294 -2.5046 -0.8952
   92SAPS  C318 9073   3.899   3.911   7.860 -0.1915 -0.6091  0.0149
   92SAPS  H18X 9074   3.952   3.976   7.787 -0.4736 -0.4661 -0.0643
   92SAPS  H18Y 9075   3.968   3.831   7.893 -2.0150 -3.1605 -2.1344
   92SAPS  H18Z 9076   3.875   3.980   7.943  0.7380  0.0679 -0.2755
   93SAPS     N 9077   3.798   2.041   5.595 -0.2185  0.1312 -1.0855
   93SAPS   HN1 9078   3.891   2.002   5.621 -0.0068  1.2668 -0.1265
   93SAPS   HN2 9079   3.743   2.058   5.681  1.6961  0.6109  0.0829
   93SAPS   HN3 9080   3.746   1.990   5.521  0.2956  0.8543 -1.9545
   93SAPS   C12 9081   3.824   2.184   5.532 -0.1111  0.2999  0.2449
   93SAPS  H12A 9082   3.892   2.173   5.449  0.1259  1.9134  0.2029
   93SAPS   C13 9083   3.695   2.227   5.474  0.1868  0.3081  0.1393
   93SAPS  O13A 9084   3.583   2.185   5.510 -0.2773  0.1767  0.0226
   93SAPS  O13B 9085   3.704   2.319   5.388 -0.1274 -0.3310  0.0290
   93SAPS   C11 9086   3.877   2.286   5.651 -0.6407 -0.1178  1.2722
   93SAPS  H11A 9087   3.966   2.237   5.695  0.7064  1.9037  0.8487
   93SAPS  H11B 9088   3.801   2.294   5.731  0.5997  2.0363  2.2676
   93SAPS     P 9089   4.024   2.508   5.616 -0.1455 -0.0527  0.0374
   93SAPS   O13 9090   4.149   2.431   5.591 -0.0213 -0.2540 -0.3763
   93SAPS   O14 9091   4.009   2.636   5.539 -0.4332 -0.1987  0.6347
   93SAPS   O12 9092   3.898   2.412   5.603 -0.7073 -0.3518 -0.0627
   93SAPS   O11 9093   4.000   2.531   5.773  0.7888 -0.6357  0.6527
   93SAPS    C1 9094   4.045   2.658   5.822  0.3155 -0.1238  0.0699
   93SAPS    HA 9095   4.025   2.734   5.744 -1.8305 -1.0266 -0.2958
   93SAPS    HB 9096   3.979   2.692   5.905  0.5440 -1.6325  0.8839
   93SAPS    C2 9097   4.195   2.667   5.880 -0.3142 -0.2420  0.5938
   93SAPS    HS 9098   4.267   2.639   5.801  1.2143  1.6067  1.2863
   93SAPS   O21 9099   4.195   2.580   5.993  0.2254  0.4922  0.4426
   93SAPS   C21 9100   4.315   2.552   6.048  0.4381 -0.1396  1.0187
   93SAPS   O22 9101   4.420   2.592   6.005  0.4948  0.2454 -0.4139
   93SAPS   C22 9102   4.283   2.473   6.175 -0.0034 -0.0640  0.2020
   93SAPS   H2R 9103   4.232   2.540   6.247 -0.7990 -0.5762  0.1145
   93SAPS   H2S 9104   4.216   2.387   6.154  0.6512 -0.7538  0.8974
   93SAPS    C3 9105   4.234   2.812   5.923 -0.2565  0.2899  0.0916
   93SAPS    HX 9106   4.247   2.884   5.840 -1.7282  0.6921  0.2019
   93SAPS    HY 9107   4.333   2.818   5.974 -0.4240  3.4803  0.1089
   93SAPS   O31 9108   4.130   2.867   6.003 -0.0263  0.0681 -0.5354
   93SAPS   C31 9109   4.147   2.858   6.134 -0.4538  0.0397  0.3797
   93SAPS   O32 9110   4.251   2.840   6.196 -0.3357 -0.3884 -0.3454
   93SAPS   C32 9111   4.009   2.874   6.200 -0.0401 -0.6167  0.6630
   93SAPS   H2X 9112   3.931   2.816   6.147 -1.7960  2.1971  0.0902
   93SAPS   H2Y 9113   3.985   2.981   6.185  1.0305 -0.6086 -1.0724
   93SAPS   C23 9114   4.401   2.401   6.228  0.3368  0.4074 -0.4423
   93SAPS   H3R 9115   4.453   2.355   6.141  0.2475 -1.3188  0.4130
   93SAPS   H3S 9116   4.366   2.328   6.303  0.6563  0.2578 -0.4359
   93SAPS   C24 9117   4.491   2.483   6.319  0.1069 -1.0478 -0.3734
   93SAPS   H4R 9118   4.545   2.549   6.248  1.2955 -1.5122  0.0904
   93SAPS   H4S 9119   4.558   2.404   6.359  0.4329 -0.1709  0.8639
   93SAPS   C25 9120   4.412   2.557   6.430 -0.3783  0.5351  0.1498
   93SAPS   H5R 9121   4.371   2.654   6.398  0.7317  0.4530 -1.5304
   93SAPS   C26 9122   4.360   2.501   6.539 -1.1681 -0.1190  0.0255
   93SAPS   H6R 9123   4.315   2.567   6.614  0.8792  0.4906  0.7717
   93SAPS   C27 9124   4.370   2.353   6.577  0.3302 -0.7278 -0.8382
   93SAPS   H7R 9125   4.404   2.332   6.681  2.5310  2.0589 -0.9272
   93SAPS   H7S 9126   4.442   2.303   6.509  3.4684  2.7598 -0.2988
   93SAPS   C28 9127   4.241   2.278   6.577  0.1464 -0.6996  0.6276
   93SAPS   H8R 9128   4.199   2.281   6.476 -0.5211 -2.0169  0.8530
   93SAPS   C29 9129   4.173   2.217   6.671 -0.2371 -0.8212 -0.7556
   93SAPS   H9R 9130   4.076   2.175   6.641 -1.0714  0.5158  0.0384
   93SAPS  C210 9131   4.200   2.206   6.822  0.0193  0.2139 -0.2648
   93SAPS  H10R 9132   4.283   2.273   6.854 -0.9999 -0.0561  3.0417
   93SAPS  H10S 9133   4.227   2.102   6.848 -0.0263 -0.2780 -2.0766
   93SAPS  C211 9134   4.070   2.223   6.900 -0.3488  0.3113 -0.0155
   93SAPS  H11R 9135   3.977   2.247   6.846 -1.4406 -2.0427  0.7512
   93SAPS  C212 9136   4.052   2.201   7.033  0.5081 -0.3532 -0.2497
   93SAPS  H12R 9137   3.960   2.234   7.082  1.9526  3.0034  0.3218
   93SAPS  C213 9138   4.150   2.151   7.143 -0.3609 -0.4076 -0.0693
   93SAPS  H13R 9139   4.240   2.216   7.149 -0.4352 -0.3075 -0.0244
   93SAPS  H13S 9140   4.184   2.050   7.114  1.7683  0.5960 -1.1827
   93SAPS  C214 9141   4.096   2.128   7.280  0.3763  0.3287 -0.1126
   93SAPS  H14R 9142   3.994   2.089   7.286  0.7674 -0.3402  3.0005
   93SAPS  C215 9143   4.167   2.131   7.394 -0.8301 -0.0855 -0.3145
   93SAPS  H15R 9144   4.113   2.100   7.485 -0.8588  0.7454 -0.0484
   93SAPS  C216 9145   4.314   2.169   7.413 -0.3434  0.2059  0.2348
   93SAPS  H16R 9146   4.358   2.170   7.311 -1.6671  1.8836 -0.3513
   93SAPS  H16S 9147   4.360   2.091   7.478  1.3251 -0.4358 -1.6758
   93SAPS  C217 9148   4.336   2.317   7.472  0.1323  1.0805  0.1999
   93SAPS  H17R 9149   4.279   2.385   7.405 -0.9352  0.1685  0.1580
   93SAPS  H17S 9150   4.443   2.345   7.473 -0.1588  2.2533 -0.2185
   93SAPS  C218 9151   4.291   2.329   7.618  0.6289  0.8223 -0.0141
   93SAPS  H18R 9152   4.327   2.237   7.669  1.3320 -0.0476 -2.0206
   93SAPS  H18S 9153   4.180   2.331   7.620  0.5746 -1.1610  0.4549
   93SAPS  C219 9154   4.348   2.455   7.681 -0.6477 -0.1176  0.0969
   93SAPS  H19R 9155   4.330   2.538   7.609  1.0650  2.2257  2.2887
   93SAPS  H19S 9156   4.458   2.449   7.695 -0.6037  1.0728  0.3031
   93SAPS  C220 9157   4.276   2.494   7.813 -0.6571  0.2127  0.0659
   93SAPS  H20R 9158   4.314   2.429   7.894 -2.0832  1.0570  1.4424
   93SAPS  H20S 9159   4.168   2.473   7.807 -0.3904 -1.6847  1.5434
   93SAPS  H20T 9160   4.308   2.598   7.839  2.0396 -0.0477 -2.0113
   93SAPS   C33 9161   3.997   2.823   6.350  0.2072  0.3806  0.3627
   93SAPS   H3X 9162   4.007   2.714   6.370 -0.4228  0.2796  0.1201
   93SAPS   H3Y 9163   3.897   2.860   6.380 -0.1213 -1.0132  1.0565
   93SAPS   C34 9164   4.088   2.898   6.446 -0.7617 -0.3122 -0.4388
   93SAPS   H4X 9165   4.125   2.991   6.398  1.9030 -1.3695 -0.5606
   93SAPS   H4Y 9166   4.182   2.839   6.458  0.5942  2.0548  0.8369
   93SAPS   C35 9167   4.020   2.925   6.577  0.0025 -0.3007 -0.6400
   93SAPS   H5X 9168   3.943   3.005   6.569 -0.6760 -0.9062 -0.1398
   93SAPS   H5Y 9169   4.099   2.970   6.640 -0.5790  0.7879 -0.6681
   93SAPS   C36 9170   3.962   2.799   6.651  0.0668 -0.4957 -0.2358
   93SAPS   H6X 9171   3.874   2.752   6.602 -0.6355 -1.1027  1.5564
   93SAPS   H6Y 9172   3.918   2.847   6.741 -1.5807 -2.0268 -0.1964
   93SAPS   C37 9173   4.059   2.698   6.698 -0.2937  0.2983 -0.9649
   93SAPS   H7X 9174   4.109   2.645   6.615  0.1379 -0.4762 -0.2095
   93SAPS   H7Y 9175   3.993   2.622   6.744 -2.4350  0.1697 -4.0663
   93SAPS   C38 9176   4.157   2.736   6.811  0.1729 -0.2981 -0.3858
   93SAPS   H8X 9177   4.105   2.806   6.879  0.2736 -0.7752  0.1891
   93SAPS   H8Y 9178   4.238   2.799   6.769  0.8143 -1.0753 -0.3383
   93SAPS   C39 9179   4.206   2.604   6.891 -0.7997 -0.7364  0.0041
   93SAPS   H9X 9180   4.237   2.528   6.816 -1.7060 -1.3294  0.2106
   93SAPS   H9Y 9181   4.118   2.561   6.943  0.1387  0.0172  2.2710
   93SAPS  C310 9182   4.300   2.639   7.006 -0.2400 -0.4749 -0.0748
   93SAPS  H10X 9183   4.233   2.674   7.088 -0.5434 -0.0492 -0.5041
   93SAPS  H10Y 9184   4.383   2.709   6.984  0.2333 -0.6989  0.9650
   93SAPS  C311 9185   4.362   2.510   7.061 -0.5081 -0.3149 -0.3346
   93SAPS  H11X 9186   4.385   2.451   6.970 -0.0183 -0.5197 -0.0861
   93SAPS  H11Y 9187   4.286   2.446   7.111 -0.3307 -0.2442  0.0308
   93SAPS  C312 9188   4.481   2.535   7.151 -0.5432 -0.0293 -0.6964
   93SAPS  H12X 9189   4.533   2.439   7.168 -0.4185  0.1648  0.0610
   93SAPS  H12Y 9190   4.438   2.570   7.248  2.5726 -0.0698  0.7840
   93SAPS  C313 9191   4.590   2.630   7.100 -0.2849  0.0068 -0.8664
   93SAPS  H13X 9192   4.564   2.735   7.078  0.4737  0.2514 -0.6280
   93SAPS  H13Y 9193   4.640   2.588   7.010  2.7012  0.8971  0.3002
   93SAPS  C314 9194   4.694   2.625   7.216  0.1758  0.1071 -0.2685
   93SAPS  H14X 9195   4.713   2.519   7.241  1.5929  0.0754 -1.4376
   93SAPS  H14Y 9196   4.654   2.676   7.306  0.1369 -3.5364  1.8743
   93SAPS  C315 9197   4.834   2.672   7.174 -0.8052  0.4732  0.6585
   93SAPS  H15X 9198   4.815   2.766   7.119  2.8775  0.9650  0.1040
   93SAPS  H15Y 9199   4.880   2.598   7.105 -2.0568  1.7547 -1.6188
   93SAPS  C316 9200   4.926   2.692   7.296 -0.6105  0.0068 -0.5251
   93SAPS  H16X 9201   4.951   2.596   7.347 -1.0669  0.3892  0.4353
   93SAPS  H16Y 9202   4.876   2.759   7.369 -0.9070 -0.7985  0.0145
   93SAPS  C317 9203   5.059   2.749   7.242 -0.3156  0.3981 -0.3782
   93SAPS  H17X 9204   5.038   2.850   7.201  0.4959  0.7944  0.1704
   93SAPS  H17Y 9205   5.113   2.681   7.173 -1.3881 -1.9573  1.0768
   93SAPS  C318 9206   5.161   2.776   7.358  0.2941  0.5572 -0.2714
   93SAPS  H18X 9207   5.249   2.832   7.318  1.0640 -1.1391 -1.0280
   93SAPS  H18Y 9208   5.187   2.680   7.408  0.1746  0.7395  0.1383
   93SAPS  H18Z 9209   5.122   2.845   7.435  0.8829 -0.9344  1.4168
   94SAPS     N 9210   4.758   4.730   5.778  0.4608 -0.5462 -0.2150
   94SAPS   HN1 9211   4.849   4.752   5.732 -0.8201  0.7070 -2.2338
   94SAPS   HN2 9212   4.743   4.801   5.852 -0.2074 -0.9028  0.0009
   94SAPS   HN3 9213   4.758   4.633   5.816 -0.7297  0.1522  1.6561
   94SAPS   C12 9214   4.660   4.761   5.667  0.2468 -0.0233 -0.3180
   94SAPS  H12A 9215   4.681   4.859   5.629  1.8084  0.2353  1.1485
   94SAPS   C13 9216   4.651   4.660   5.549 -0.0454 -0.2455 -0.3309
   94SAPS  O13A 9217   4.746   4.580   5.534 -0.0737  0.3638  0.1317
   94SAPS  O13B 9218   4.567   4.674   5.465  0.2109 -0.5276  0.0420
   94SAPS   C11 9219   4.518   4.767   5.740 -0.2569 -0.4992 -0.6512
   94SAPS  H11A 9220   4.506   4.669   5.792 -0.5311  0.8617  1.9540
   94SAPS  H11B 9221   4.439   4.786   5.665 -0.2498  2.1023 -0.0518
   94SAPS     P 9222   4.375   4.909   5.909 -0.3601 -0.3389 -0.4631
   94SAPS   O13 9223   4.391   5.042   5.978  0.0749  1.0922 -0.0887
   94SAPS   O14 9224   4.263   4.883   5.816 -0.2331 -0.2374 -0.1108
   94SAPS   O12 9225   4.520   4.869   5.846  0.3714  0.7181 -0.0233
   94SAPS   O11 9226   4.363   4.793   6.018 -0.4032  0.2348 -0.1589
   94SAPS    C1 9227   4.423   4.804   6.151  0.3178 -0.1954  0.3183
   94SAPS    HA 9228   4.396   4.906   6.187 -1.0363  0.1593 -1.6336
   94SAPS    HB 9229   4.376   4.729   6.219 -0.3494  0.4316  0.5552
   94SAPS    C2 9230   4.570   4.780   6.166  0.1298  0.1675 -0.2530
   94SAPS    HS 9231   4.627   4.823   6.081 -0.7111  1.2469 -0.2811
   94SAPS   O21 9232   4.589   4.644   6.183 -0.2644 -0.1250 -0.1454
   94SAPS   C21 9233   4.710   4.594   6.142 -0.3000  0.7988  0.4984
   94SAPS   O22 9234   4.782   4.656   6.065 -0.3105 -0.1762  0.0992
   94SAPS   C22 9235   4.737   4.460   6.208 -0.2248  0.0003 -0.5388
   94SAPS   H2R 9236   4.658   4.393   6.168  1.2758 -2.0158 -0.2138
   94SAPS   H2S 9237   4.834   4.424   6.166 -0.6702 -0.9392 -0.7531
   94SAPS    C3 9238   4.629   4.845   6.300 -0.3732 -0.1647  0.1267
   94SAPS    HX 9239   4.642   4.953   6.279  0.9743 -0.0326  1.4770
   94SAPS    HY 9240   4.735   4.812   6.292 -0.2967 -0.4691  2.0710
   94SAPS   O31 9241   4.559   4.816   6.421  0.5473  0.1215  0.1036
   94SAPS   C31 9242   4.632   4.792   6.524  0.2762 -0.8039 -0.5712
   94SAPS   O32 9243   4.755   4.794   6.523  0.2463  0.0027  0.5186
   94SAPS   C32 9244   4.532   4.771   6.638 -1.2097  0.2555  0.0007
   94SAPS   H2X 9245   4.495   4.667   6.625 -0.7767 -0.1385  1.6855
   94SAPS   H2Y 9246   4.449   4.843   6.623 -2.0493 -0.2615  1.8702
   94SAPS   C23 9247   4.729   4.461   6.370 -0.0974  0.8787 -0.1577
   94SAPS   H3R 9248   4.622   4.478   6.394 -0.7467 -0.4587 -1.9247
   94SAPS   H3S 9249   4.800   4.535   6.412  0.9336 -1.4974  2.4243
   94SAPS   C24 9250   4.778   4.329   6.436  0.5182 -0.1139  0.1745
   94SAPS   H4R 9251   4.716   4.244   6.400  0.0433 -0.4481  1.7264
   94SAPS   H4S 9252   4.752   4.340   6.543 -3.2662  0.4005 -0.7350
   94SAPS   C25 9253   4.930   4.313   6.423 -0.5715  1.0434 -0.4357
   94SAPS   H5R 9254   4.955   4.241   6.343 -0.0061 -1.4513  1.8851
   94SAPS   C26 9255   5.026   4.386   6.481  0.4948  0.5735  0.4042
   94SAPS   H6R 9256   5.124   4.379   6.432  0.5036  1.0721  0.3531
   94SAPS   C27 9257   5.019   4.501   6.579 -0.5566 -0.0053  0.6467
   94SAPS   H7R 9258   4.994   4.450   6.674  0.1394  0.1276  0.8994
   94SAPS   H7S 9259   4.926   4.562   6.568  0.6322  1.9356  1.1068
   94SAPS   C28 9260   5.138   4.594   6.568  0.3325 -0.0181  0.1397
   94SAPS   H8R 9261   5.220   4.576   6.497 -1.6550 -0.3674 -2.1409
   94SAPS   C29 9262   5.159   4.695   6.650  0.4289 -0.1629 -0.0335
   94SAPS   H9R 9263   5.248   4.759   6.639  1.5205 -1.5542  0.4843
   94SAPS  C210 9264   5.078   4.749   6.767  0.8670  0.3323  0.1125
   94SAPS  H10R 9265   5.006   4.674   6.805 -0.1398  2.4748  2.6115
   94SAPS  H10S 9266   5.024   4.843   6.739 -2.9100 -0.6915  3.5331
   94SAPS  C211 9267   5.175   4.782   6.880 -0.2812 -0.7270 -0.3234
   94SAPS  H11R 9268   5.279   4.797   6.847 -0.3971 -0.9078 -0.7705
   94SAPS  C212 9269   5.138   4.799   7.008 -0.0575  0.2404  0.3485
   94SAPS  H12R 9270   5.204   4.833   7.089 -0.3201 -0.0862  0.7004
   94SAPS  C213 9271   4.997   4.808   7.049 -0.5425 -0.3255 -0.4995
   94SAPS  H13R 9272   4.997   4.762   7.150  3.6353  0.6665  0.0272
   94SAPS  H13S 9273   4.928   4.752   6.982 -0.2040  0.1218 -1.2332
   94SAPS  C214 9274   4.944   4.955   7.051 -0.0721  0.3330  0.3191
   94SAPS  H14R 9275   4.983   5.021   6.973 -2.7037  0.9376 -0.5167
   94SAPS  C215 9276   4.867   5.012   7.139 -0.0910 -0.0031  1.1349
   94SAPS  H15R 9277   4.837   5.117   7.130  1.3910  0.2511 -1.3429
   94SAPS  C216 9278   4.798   4.943   7.257  0.3943  0.6293  0.4095
   94SAPS  H16R 9279   4.792   4.832   7.248 -3.0333  0.7233  0.6141
   94SAPS  H16S 9280   4.695   4.984   7.262 -0.9629 -2.7381  2.1853
   94SAPS  C217 9281   4.865   4.963   7.396  0.4231 -0.1552 -0.7214
   94SAPS  H17R 9282   4.864   5.073   7.409 -1.5544 -0.3305  0.8313
   94SAPS  H17S 9283   4.968   4.923   7.387  0.1545 -0.7937 -1.0417
   94SAPS  C218 9284   4.796   4.902   7.518  0.0495  0.0768  0.8667
   94SAPS  H18R 9285   4.820   4.793   7.510  1.7577  0.3877  1.6166
   94SAPS  H18S 9286   4.686   4.914   7.525  0.0169 -0.0342  0.5506
   94SAPS  C219 9287   4.845   4.962   7.646 -0.8227  0.7065 -0.2327
   94SAPS  H19R 9288   4.797   5.060   7.665 -0.9791  0.5210  0.3430
   94SAPS  H19S 9289   4.952   4.987   7.627 -0.5423 -0.8022 -0.7047
   94SAPS  C220 9290   4.833   4.867   7.762 -0.5555  0.4286 -0.1743
   94SAPS  H20R 9291   4.731   4.847   7.801 -0.0511 -1.9005  0.0000
   94SAPS  H20S 9292   4.898   4.899   7.846  0.9700 -1.8998 -0.4348
   94SAPS  H20T 9293   4.895   4.777   7.742 -1.1121 -0.0795  0.3924
   94SAPS   C33 9294   4.606   4.777   6.780 -0.7695 -0.6222  0.5518
   94SAPS   H3X 9295   4.658   4.874   6.792  1.7504 -1.7464 -0.8521
   94SAPS   H3Y 9296   4.698   4.714   6.775  0.2471  0.9077 -0.1292
   94SAPS   C34 9297   4.526   4.755   6.909 -0.3777 -0.5591  0.1670
   94SAPS   H4X 9298   4.452   4.835   6.931 -1.6597 -1.5245 -0.5220
   94SAPS   H4Y 9299   4.600   4.764   6.992 -1.0431 -0.0938  0.7102
   94SAPS   C35 9300   4.455   4.621   6.921  0.1125 -0.0647 -0.0530
   94SAPS   H5X 9301   4.363   4.641   6.862  1.9359  2.1638 -2.2260
   94SAPS   H5Y 9302   4.421   4.599   7.024 -1.7321  1.7917 -0.2279
   94SAPS   C36 9303   4.535   4.494   6.877 -0.3475 -0.1374  1.0064
   94SAPS   H6X 9304   4.636   4.485   6.923 -0.4061 -1.1558  0.9376
   94SAPS   H6Y 9305   4.543   4.498   6.766  0.5157 -0.6303  1.0468
   94SAPS   C37 9306   4.453   4.369   6.930  0.2959  0.7549  0.6856
   94SAPS   H7X 9307   4.352   4.357   6.887  1.2213 -1.9168 -0.8932
   94SAPS   H7Y 9308   4.443   4.388   7.039  0.1798 -2.0803  1.2171
   94SAPS   C38 9309   4.521   4.237   6.908  0.3909  0.4842  0.4826
   94SAPS   H8X 9310   4.610   4.236   6.975 -0.4656  0.4475  1.6212
   94SAPS   H8Y 9311   4.563   4.219   6.807  1.9217 -2.9011  1.6381
   94SAPS   C39 9312   4.433   4.121   6.947 -0.5624 -0.0926 -0.1064
   94SAPS   H9X 9313   4.430   4.046   6.865 -0.0133 -1.1893  0.8576
   94SAPS   H9Y 9314   4.333   4.163   6.970 -1.4201 -1.1430 -1.8829
   94SAPS  C310 9315   4.484   4.043   7.072  0.6088 -0.2197 -0.7439
   94SAPS  H10X 9316   4.587   4.004   7.056  0.0574 -1.5462 -1.1345
   94SAPS  H10Y 9317   4.421   3.955   7.097 -0.4623  0.2146 -1.8713
   94SAPS  C311 9318   4.484   4.133   7.197  0.6359 -0.9068 -0.3317
   94SAPS  H11X 9319   4.397   4.203   7.187  1.1776  0.0583  1.4251
   94SAPS  H11Y 9320   4.578   4.191   7.182 -0.2893  0.9454  0.7331
   94SAPS  C312 9321   4.500   4.072   7.334  0.0728 -0.4464  0.2072
   94SAPS  H12X 9322   4.548   3.972   7.322  2.3899  0.3837  2.1724
   94SAPS  H12Y 9323   4.399   4.046   7.371 -1.5652  1.8313 -2.5169
   94SAPS  C313 9324   4.593   4.153   7.434 -0.0181 -0.2176  1.1029
   94SAPS  H13X 9325   4.544   4.252   7.449 -0.0244 -0.2329  1.1779
   94SAPS  H13Y 9326   4.690   4.173   7.384  0.0226 -1.9550  0.4695
   94SAPS  C314 9327   4.596   4.100   7.575 -0.3401 -0.2931  0.0926
   94SAPS  H14X 9328   4.630   3.994   7.584  0.1546 -0.0394  1.3745
   94SAPS  H14Y 9329   4.489   4.099   7.604 -1.0668  1.7376 -2.4189
   94SAPS  C315 9330   4.680   4.176   7.681 -0.2296 -0.2485  0.2160
   94SAPS  H15X 9331   4.701   4.279   7.643  0.5921 -0.9652 -1.3525
   94SAPS  H15Y 9332   4.775   4.120   7.668 -1.1471 -1.5131 -1.2135
   94SAPS  C316 9333   4.616   4.183   7.820 -0.0789 -0.0905  0.0737
   94SAPS  H16X 9334   4.688   4.223   7.895  0.3347 -0.4702 -0.1121
   94SAPS  H16Y 9335   4.596   4.078   7.848 -0.1621 -0.4427 -1.2470
   94SAPS  C317 9336   4.479   4.257   7.840 -0.2774  0.4305 -0.4826
   94SAPS  H17X 9337   4.446   4.259   7.946 -0.1514  1.4053 -0.4571
   94SAPS  H17Y 9338   4.402   4.205   7.779 -1.1288  1.1194 -0.0141
   94SAPS  C318 9339   4.495   4.403   7.809  0.6811  0.3549 -0.2964
   94SAPS  H18X 9340   4.580   4.440   7.869  0.5269  0.6349 -0.2479
   94SAPS  H18Y 9341   4.412   4.469   7.843  1.4122  0.5356  1.1532
   94SAPS  H18Z 9342   4.508   4.428   7.701  0.3308 -1.6094 -0.8220
   95SAPS     N 9343   1.005   3.853   5.702  0.1841 -0.0907  0.0667
   95SAPS   HN1 9344   1.008   3.864   5.598 -0.5094  2.3767  0.2902
   95SAPS   HN2 9345   1.027   3.943   5.750 -0.4571  0.1210 -0.0294
   95SAPS   HN3 9346   1.078   3.780   5.710 -0.0271 -0.4338 -0.9684
   95SAPS   C12 9347   0.874   3.811   5.748  0.0593  0.2720 -0.6342
   95SAPS  H12A 9348   0.883   3.803   5.855  1.2851 -0.3583 -0.7710
   95SAPS   C13 9349   0.780   3.933   5.730  0.3680  0.0694 -0.5746
   95SAPS  O13A 9350   0.825   4.045   5.692  0.5272  0.2841 -1.1163
   95SAPS  O13B 9351   0.667   3.926   5.775 -0.1341  0.4546 -0.4258
   95SAPS   C11 9352   0.815   3.684   5.686 -0.6078  0.4662  0.4748
   95SAPS  H11A 9353   0.827   3.690   5.575 -0.3375  2.0390  0.5804
   95SAPS  H11B 9354   0.707   3.673   5.710  0.2432 -2.4860  3.2328
   95SAPS     P 9355   0.806   3.451   5.799  0.1641  0.3755  0.5384
   95SAPS   O13 9356   0.690   3.430   5.712 -0.6021  0.2805 -0.0104
   95SAPS   O14 9357   0.893   3.330   5.824 -0.1814 -0.0074 -0.7452
   95SAPS   O12 9358   0.881   3.567   5.723 -0.2096 -0.0980  0.7361
   95SAPS   O11 9359   0.755   3.520   5.933  0.5247  0.2424  0.5577
   95SAPS    C1 9360   0.774   3.463   6.063 -0.3084 -1.2131  0.3516
   95SAPS    HA 9361   0.683   3.483   6.123 -1.2542  0.1449 -1.5127
   95SAPS    HB 9362   0.788   3.353   6.062 -2.5434 -1.5166 -0.8502
   95SAPS    C2 9363   0.892   3.527   6.135  0.3401  0.4562 -0.0695
   95SAPS    HS 9364   0.904   3.492   6.240  2.5758  2.3657  0.3594
   95SAPS   O21 9365   0.880   3.670   6.125 -0.6551  0.2674  0.2241
   95SAPS   C21 9366   0.778   3.717   6.195  0.4165 -0.6747  0.1347
   95SAPS   O22 9367   0.726   3.656   6.285  0.1760  0.5841 -0.2022
   95SAPS   C22 9368   0.750   3.866   6.165 -0.0724  0.3014 -0.1288
   95SAPS   H2R 9369   0.682   3.864   6.077 -1.2288 -1.9057  0.7671
   95SAPS   H2S 9370   0.689   3.889   6.255  0.8651 -0.9398  0.8521
   95SAPS    C3 9371   1.024   3.481   6.068 -0.3288 -0.4489 -0.1240
   95SAPS    HX 9372   1.025   3.495   5.958 -2.2265  1.7140  0.0965
   95SAPS    HY 9373   1.031   3.372   6.088 -0.1119  0.1075  3.1597
   95SAPS   O31 9374   1.131   3.548   6.136 -0.2940 -0.8046 -0.0819
   95SAPS   C31 9375   1.248   3.524   6.087  0.6638  1.2641  0.3266
   95SAPS   O32 9376   1.285   3.437   6.012  0.6694  0.5323 -0.4051
   95SAPS   C32 9377   1.348   3.622   6.147 -0.2136  0.8745 -0.1360
   95SAPS   H2X 9378   1.353   3.604   6.256 -2.0003 -1.0654 -0.3323
   95SAPS   H2Y 9379   1.314   3.725   6.121 -0.1624  0.7722 -0.6077
   95SAPS   C23 9380   0.871   3.960   6.140 -0.2475 -0.6833  0.4045
   95SAPS   H3R 9381   0.827   4.056   6.106 -0.4975 -0.7976  0.4092
   95SAPS   H3S 9382   0.948   3.926   6.067  1.1066 -0.4661  1.7005
   95SAPS   C24 9383   0.956   3.984   6.266 -1.0947  0.5670 -0.3258
   95SAPS   H4R 9384   1.043   4.039   6.224 -1.0258 -2.1007 -3.8507
   95SAPS   H4S 9385   0.997   3.884   6.291 -1.2649  0.5373 -0.1633
   95SAPS   C25 9386   0.891   4.063   6.380  0.4579 -0.4700 -0.6718
   95SAPS   H5R 9387   0.866   4.167   6.354  1.8278 -0.2453 -1.0998
   95SAPS   C26 9388   0.858   4.002   6.498  0.1035  0.2545 -0.2424
   95SAPS   H6R 9389   0.795   4.057   6.569  0.2127  0.3250 -0.2008
   95SAPS   C27 9390   0.875   3.852   6.534 -0.7609  0.0372  0.0681
   95SAPS   H7R 9391   0.872   3.792   6.441  1.2092 -1.1070  0.6899
   95SAPS   H7S 9392   0.788   3.833   6.601  0.4989 -1.7417  1.2679
   95SAPS   C28 9393   1.007   3.834   6.603  0.3074 -0.5350  0.1381
   95SAPS   H8R 9394   1.067   3.923   6.626 -1.2966  0.6596 -0.2178
   95SAPS   C29 9395   1.048   3.713   6.648  0.1358  0.3812  0.6550
   95SAPS   H9R 9396   1.149   3.708   6.693  0.5118  3.7295  0.2966
   95SAPS  C210 9397   0.963   3.586   6.629 -0.1168 -0.4378  0.3055
   95SAPS  H10R 9398   0.852   3.596   6.632 -0.2379 -1.8237  0.9901
   95SAPS  H10S 9399   0.989   3.518   6.713  0.9368 -0.1520  0.2180
   95SAPS  C211 9400   0.991   3.517   6.503 -0.2475  0.3470  0.0353
   95SAPS  H11R 9401   0.922   3.546   6.422  1.2432  1.2482 -0.9401
   95SAPS  C212 9402   1.090   3.431   6.474  0.9368  0.4455  0.4422
   95SAPS  H12R 9403   1.089   3.377   6.379 -2.2627 -1.3344  1.4046
   95SAPS  C213 9404   1.206   3.379   6.552 -0.2743 -0.1615  0.8369
   95SAPS  H13R 9405   1.256   3.302   6.489 -0.9812  0.2187 -0.2060
   95SAPS  H13S 9406   1.159   3.331   6.640 -0.9507 -0.1564  0.4857
   95SAPS  C214 9407   1.308   3.471   6.600 -0.0812  0.6310 -0.3822
   95SAPS  H14R 9408   1.294   3.580   6.592 -1.6405  0.4304 -0.6006
   95SAPS  C215 9409   1.432   3.434   6.643  0.4522  0.1480  0.2641
   95SAPS  H15R 9410   1.499   3.519   6.663 -0.4321  0.4398  2.0931
   95SAPS  C216 9411   1.483   3.290   6.645  0.5535  0.5257 -0.1678
   95SAPS  H16R 9412   1.554   3.279   6.561 -1.5856 -0.9283 -1.8404
   95SAPS  H16S 9413   1.411   3.207   6.626  0.3713  0.1289  2.1208
   95SAPS  C217 9414   1.546   3.259   6.783 -0.0832 -0.5975 -0.0188
   95SAPS  H17R 9415   1.620   3.341   6.800 -1.0757 -0.2388  2.7715
   95SAPS  H17S 9416   1.588   3.159   6.805  0.0818 -0.3812  0.6813
   95SAPS  C218 9417   1.438   3.281   6.904 -0.1216  0.2802  0.6762
   95SAPS  H18R 9418   1.368   3.195   6.892 -1.4298  1.3966  0.0919
   95SAPS  H18S 9419   1.391   3.381   6.892 -1.0657 -0.2795 -0.3761
   95SAPS  C219 9420   1.506   3.280   7.046 -0.1165 -0.2205  0.4996
   95SAPS  H19R 9421   1.586   3.357   7.043 -0.3464  0.0020 -0.1924
   95SAPS  H19S 9422   1.573   3.192   7.053 -0.0015 -0.3731 -1.9458
   95SAPS  C220 9423   1.402   3.294   7.162  0.5914 -0.1269 -0.6336
   95SAPS  H20R 9424   1.339   3.203   7.170  0.9038 -0.1369  1.9439
   95SAPS  H20S 9425   1.338   3.375   7.120 -0.6366 -0.2064  1.0291
   95SAPS  H20T 9426   1.452   3.334   7.253  2.0381 -0.4343 -1.2794
   95SAPS   C33 9427   1.496   3.595   6.102  0.2086 -0.6120  0.7643
   95SAPS   H3X 9428   1.545   3.695   6.105 -4.5292  2.0352 -2.9836
   95SAPS   H3Y 9429   1.500   3.565   5.995  1.2668 -0.2785  0.7014
   95SAPS   C34 9430   1.572   3.494   6.190 -0.4697 -0.2389  0.1387
   95SAPS   H4X 9431   1.525   3.394   6.184 -0.2364 -0.3948  0.8872
   95SAPS   H4Y 9432   1.571   3.523   6.297 -0.0189  0.4260 -0.0290
   95SAPS   C35 9433   1.720   3.477   6.138 -0.5093  1.0598 -0.5098
   95SAPS   H5X 9434   1.773   3.574   6.146  1.0138  0.2370 -0.3580
   95SAPS   H5Y 9435   1.726   3.445   6.032 -0.2246 -0.0268 -0.1733
   95SAPS   C36 9436   1.802   3.373   6.225  0.2805 -0.2784 -0.0837
   95SAPS   H6X 9437   1.906   3.391   6.193 -0.0731  0.5816 -0.7780
   95SAPS   H6Y 9438   1.767   3.271   6.197 -1.0460 -0.9340  3.6379
   95SAPS   C37 9439   1.787   3.388   6.371  1.0873  0.2352  0.1621
   95SAPS   H7X 9440   1.680   3.371   6.396  0.2400 -0.2905 -3.5608
   95SAPS   H7Y 9441   1.823   3.489   6.398 -0.6249  0.8946  0.0849
   95SAPS   C38 9442   1.854   3.290   6.463 -0.1794  0.2823 -0.1164
   95SAPS   H8X 9443   1.959   3.280   6.426 -0.5924  1.1563 -1.5500
   95SAPS   H8Y 9444   1.799   3.194   6.456  1.8821 -1.0402  1.3924
   95SAPS   C39 9445   1.869   3.338   6.611 -0.0117  0.2576  0.0915
   95SAPS   H9X 9446   1.766   3.373   6.638 -1.6037 -3.0121 -1.5063
   95SAPS   H9Y 9447   1.941   3.422   6.624  0.1217 -0.2450  3.1479
   95SAPS  C310 9448   1.910   3.224   6.708  0.0841 -0.5875 -0.5788
   95SAPS  H10X 9449   2.008   3.184   6.676  0.3207 -0.1646 -0.3744
   95SAPS  H10Y 9450   1.831   3.145   6.711 -1.5289  1.0700  2.8101
   95SAPS  C311 9451   1.930   3.266   6.855  0.0787 -0.3520 -0.5131
   95SAPS  H11X 9452   1.838   3.320   6.885  1.1817  0.7423  1.0174
   95SAPS  H11Y 9453   2.022   3.328   6.867 -0.2796  0.1793 -0.5093
   95SAPS  C312 9454   1.947   3.148   6.951  0.0346  0.3772  0.5804
   95SAPS  H12X 9455   2.030   3.085   6.912  0.4468  1.5158 -0.4118
   95SAPS  H12Y 9456   1.857   3.084   6.954 -1.1817  2.0789  0.8691
   95SAPS  C313 9457   1.974   3.222   7.094  0.3128 -0.2784  0.2496
   95SAPS  H13X 9458   1.882   3.276   7.125 -0.2707 -1.3796  0.4724
   95SAPS  H13Y 9459   2.057   3.296   7.087 -0.6003  0.8472  1.0502
   95SAPS  C314 9460   2.005   3.123   7.201  0.6620  0.3369 -0.6716
   95SAPS  H14X 9461   2.029   3.175   7.296 -0.4242 -0.0171 -0.1952
   95SAPS  H14Y 9462   2.098   3.065   7.183  1.2507  1.6350 -1.8908
   95SAPS  C315 9463   1.879   3.038   7.222 -0.3133 -0.1477  0.1140
   95SAPS  H15X 9464   1.923   2.950   7.275  0.8465 -0.8197 -1.8849
   95SAPS  H15Y 9465   1.834   3.000   7.128  1.3108 -1.0343 -0.3381
   95SAPS  C316 9466   1.779   3.095   7.328 -1.0091 -0.2965  0.1183
   95SAPS  H16X 9467   1.751   3.194   7.288 -0.1405 -0.3648 -0.6675
   95SAPS  H16Y 9468   1.853   3.112   7.409 -0.5640  0.4516 -0.4419
   95SAPS  C317 9469   1.656   3.005   7.365  0.2615 -0.0112 -0.7017
   95SAPS  H17X 9470   1.587   3.025   7.280 -3.2725 -2.7103  1.4054
   95SAPS  H17Y 9471   1.617   3.055   7.456 -1.4478 -0.7957 -0.9823
   95SAPS  C318 9472   1.684   2.860   7.383 -0.3608  0.5431 -0.3998
   95SAPS  H18X 9473   1.756   2.846   7.466  0.7283 -0.0604 -1.4328
   95SAPS  H18Y 9474   1.717   2.802   7.294 -1.1086 -1.3587  0.5209
   95SAPS  H18Z 9475   1.588   2.815   7.419  0.2450  0.3654  1.0307
   96SAPS     N 9476   1.705   5.055   5.472  0.1785 -0.6734 -0.0867
   96SAPS   HN1 9477   1.708   4.951   5.479  1.7874 -0.7417 -1.4104
   96SAPS   HN2 9478   1.743   5.078   5.378  0.8505  1.0185  0.5822
   96SAPS   HN3 9479   1.769   5.093   5.545  0.2080 -0.9428  0.0304
   96SAPS   C12 9480   1.566   5.105   5.486 -0.2218  0.1304  0.0063
   96SAPS  H12A 9481   1.569   5.213   5.479 -0.4498  0.1651  0.3841
   96SAPS   C13 9482   1.475   5.060   5.374  0.0909 -0.0957 -0.4874
   96SAPS  O13A 9483   1.508   4.962   5.298  0.4117 -0.1953  0.1867
   96SAPS  O13B 9484   1.375   5.133   5.345 -0.4479  0.1141  0.0603
   96SAPS   C11 9485   1.507   5.053   5.626  0.4461 -0.2516  0.3639
   96SAPS  H11A 9486   1.502   4.943   5.614  1.3542 -0.4427  1.7111
   96SAPS  H11B 9487   1.411   5.106   5.645  0.0691 -1.7532  2.7592
   96SAPS     P 9488   1.606   5.018   5.863  0.5787 -0.1429 -0.1584
   96SAPS   O13 9489   1.609   4.878   5.825  0.6135 -0.3510  0.3336
   96SAPS   O14 9490   1.716   5.066   5.945 -0.0361  0.3535 -0.5505
   96SAPS   O12 9491   1.603   5.095   5.728  0.3911 -1.1612 -0.1030
   96SAPS   O11 9492   1.475   5.060   5.919 -1.0462 -0.2461 -0.0700
   96SAPS    C1 9493   1.421   5.195   5.926  0.0684 -0.7473 -0.2626
   96SAPS    HA 9494   1.476   5.269   5.988  2.4316 -2.7981  0.1532
   96SAPS    HB 9495   1.405   5.238   5.825 -1.9737 -0.7792  0.0131
   96SAPS    C2 9496   1.272   5.180   5.975  0.3584 -0.2574  0.1631
   96SAPS    HS 9497   1.215   5.274   5.957  0.7825  0.3644  1.9657
   96SAPS   O21 9498   1.267   5.156   6.114 -0.2652 -0.2611 -0.0510
   96SAPS   C21 9499   1.307   5.248   6.199 -0.1435  0.3885  0.6419
   96SAPS   O22 9500   1.320   5.366   6.173 -0.1967  0.1084 -0.9159
   96SAPS   C22 9501   1.320   5.186   6.337  0.5088 -0.0199 -0.1971
   96SAPS   H2R 9502   1.234   5.118   6.355  0.1245 -0.2465 -2.8263
   96SAPS   H2S 9503   1.411   5.121   6.343 -0.3905 -1.3598 -0.9737
   96SAPS    C3 9504   1.190   5.059   5.917  0.0288 -0.1507  0.3593
   96SAPS    HX 9505   1.192   5.070   5.807  0.9328 -0.7444  0.3133
   96SAPS    HY 9506   1.085   5.081   5.946 -0.6003 -1.3966 -0.8885
   96SAPS   O31 9507   1.227   4.930   5.961 -0.1427 -0.1058  0.1201
   96SAPS   C31 9508   1.131   4.855   6.009 -0.6536 -0.2899  0.0141
   96SAPS   O32 9509   1.008   4.878   6.015 -0.2612  0.1582  0.3034
   96SAPS   C32 9510   1.199   4.727   6.062 -0.4108  0.5184  0.2902
   96SAPS   H2X 9511   1.210   4.679   5.963 -0.3396  1.0635  0.0324
   96SAPS   H2Y 9512   1.132   4.665   6.125  0.2413 -0.2581  0.2240
   96SAPS   C23 9513   1.339   5.292   6.446  0.2884 -0.4531  0.6092
   96SAPS   H3R 9514   1.308   5.249   6.543  0.6625 -0.2986  0.7977
   96SAPS   H3S 9515   1.262   5.369   6.423  1.2773  0.2899 -0.3007
   96SAPS   C24 9516   1.481   5.352   6.450  0.8397  0.3326 -0.0105
   96SAPS   H4R 9517   1.474   5.446   6.510 -0.0520 -0.1464  0.6440
   96SAPS   H4S 9518   1.512   5.393   6.351  0.3744  0.9100  0.0827
   96SAPS   C25 9519   1.583   5.247   6.499 -0.2043 -0.4234  0.0811
   96SAPS   H5R 9520   1.639   5.187   6.426 -0.1235 -0.8925  0.5246
   96SAPS   C26 9521   1.607   5.227   6.637 -0.5304  0.3803  0.8138
   96SAPS   H6R 9522   1.675   5.147   6.669  0.3038  0.3002 -1.0554
   96SAPS   C27 9523   1.545   5.299   6.756  0.6743 -0.7280  0.4359
   96SAPS   H7R 9524   1.483   5.387   6.729  1.1162 -0.7141 -0.5646
   96SAPS   H7S 9525   1.630   5.335   6.818  0.7934  0.3972 -0.3607
   96SAPS   C28 9526   1.460   5.214   6.847  0.2031 -0.0569  0.1311
   96SAPS   H8R 9527   1.370   5.181   6.793  0.7626  1.2197 -1.6353
   96SAPS   C29 9528   1.493   5.174   6.971  0.2134  0.1325  0.1402
   96SAPS   H9R 9529   1.413   5.118   7.019  0.6900 -2.3693 -1.8761
   96SAPS  C210 9530   1.623   5.204   7.053  0.5505 -0.5671  0.8243
   96SAPS  H10R 9531   1.698   5.252   6.986 -1.0694  0.7243 -0.0985
   96SAPS  H10S 9532   1.669   5.106   7.078  1.9758 -0.4264 -1.0893
   96SAPS  C211 9533   1.589   5.306   7.161 -0.2792 -0.4383 -0.1517
   96SAPS  H11R 9534   1.550   5.400   7.119 -0.8234  0.7311  2.8697
   96SAPS  C212 9535   1.617   5.282   7.289  0.0322 -0.0099  0.2480
   96SAPS  H12R 9536   1.591   5.366   7.356 -1.1128  0.6465 -1.0004
   96SAPS  C213 9537   1.680   5.156   7.348  0.0835 -0.2233 -0.0089
   96SAPS  H13R 9538   1.730   5.177   7.444 -0.0003  0.4525 -0.1081
   96SAPS  H13S 9539   1.757   5.124   7.275  0.6402 -1.0481  0.9412
   96SAPS  C214 9540   1.574   5.054   7.363  0.7459 -0.1573 -1.2524
   96SAPS  H14R 9541   1.495   5.043   7.287  0.0282 -3.5596 -0.1295
   96SAPS  C215 9542   1.557   4.972   7.471  0.1267  0.6557 -0.0996
   96SAPS  H15R 9543   1.479   4.895   7.462  0.7319 -0.0555  0.6413
   96SAPS  C216 9544   1.641   4.968   7.597  0.6696  0.1133  0.1161
   96SAPS  H16R 9545   1.589   5.045   7.659  0.7197  0.8192 -0.7063
   96SAPS  H16S 9546   1.745   5.001   7.578  0.0542  0.5595 -2.7483
   96SAPS  C217 9547   1.623   4.841   7.683 -0.2414 -0.6568  0.1859
   96SAPS  H17R 9548   1.616   4.744   7.628  0.8755 -0.8014  0.2745
   96SAPS  H17S 9549   1.523   4.851   7.730 -0.3316  1.0894 -0.3714
   96SAPS  C218 9550   1.741   4.823   7.784  0.3802  0.1218  0.5445
   96SAPS  H18R 9551   1.767   4.924   7.824  0.9325  0.5461 -0.8368
   96SAPS  H18S 9552   1.829   4.779   7.732  0.1454  1.1489 -0.7692
   96SAPS  C219 9553   1.710   4.726   7.895 -0.9290  0.5155  0.3106
   96SAPS  H19R 9554   1.688   4.630   7.843  2.0025  0.9832 -1.9698
   96SAPS  H19S 9555   1.630   4.779   7.950 -1.2248 -0.1746  0.5431
   96SAPS  C220 9556   1.830   4.717   7.994  0.6832  0.8454  0.1073
   96SAPS  H20R 9557   1.844   4.811   8.050  0.3556  0.5576  0.6719
   96SAPS  H20S 9558   1.920   4.708   7.928 -0.0274 -1.1382 -0.6332
   96SAPS  H20T 9559   1.821   4.629   8.062  1.4258 -0.3779 -1.3271
   96SAPS   C33 9560   1.330   4.748   6.146 -0.6713  0.3133  0.2280
   96SAPS   H3X 9561   1.400   4.817   6.096 -0.3683 -1.4457 -1.8514
   96SAPS   H3Y 9562   1.363   4.643   6.134 -2.6805 -0.1821 -1.2714
   96SAPS   C34 9563   1.296   4.798   6.286 -0.1743 -0.2124 -0.2798
   96SAPS   H4X 9564   1.216   4.731   6.323 -0.4989  0.1213 -0.3684
   96SAPS   H4Y 9565   1.245   4.897   6.288  3.2124  1.5924  0.3198
   96SAPS   C35 9566   1.418   4.791   6.382 -0.1927  0.3798  0.2535
   96SAPS   H5X 9567   1.500   4.865   6.368  0.7162  0.0038  3.3762
   96SAPS   H5Y 9568   1.479   4.703   6.353 -0.5975 -0.3353  1.5329
   96SAPS   C36 9569   1.375   4.815   6.529  0.2627 -0.1201  0.1380
   96SAPS   H6X 9570   1.288   4.753   6.558  0.9326 -1.4111 -0.5695
   96SAPS   H6Y 9571   1.347   4.922   6.536 -0.8264 -0.4925  1.9240
   96SAPS   C37 9572   1.495   4.802   6.629 -0.6746 -0.5931 -0.1993
   96SAPS   H7X 9573   1.582   4.861   6.592 -1.4262  1.3142  0.9933
   96SAPS   H7Y 9574   1.535   4.699   6.640 -0.1301 -0.2155  1.4341
   96SAPS   C38 9575   1.466   4.851   6.769  0.0846 -0.7834 -0.0175
   96SAPS   H8X 9576   1.398   4.937   6.750  2.4634  1.0771 -0.3458
   96SAPS   H8Y 9577   1.548   4.902   6.825 -2.9975  1.2168  2.8971
   96SAPS   C39 9578   1.395   4.748   6.851 -0.4666 -0.0283 -0.0217
   96SAPS   H9X 9579   1.482   4.684   6.878 -0.1136  1.1895  1.8194
   96SAPS   H9Y 9580   1.320   4.696   6.788 -0.7197 -0.2395  0.4492
   96SAPS  C310 9581   1.344   4.805   6.974  0.0619 -0.3788 -0.2264
   96SAPS  H10X 9582   1.238   4.836   6.959 -0.2510 -1.1642  0.2945
   96SAPS  H10Y 9583   1.397   4.889   7.024 -1.9296  0.9515 -0.2665
   96SAPS  C311 9584   1.336   4.705   7.088 -0.0239  0.4099  0.0577
   96SAPS  H11X 9585   1.267   4.624   7.053 -0.1736 -0.1601  1.6506
   96SAPS  H11Y 9586   1.303   4.764   7.176  2.9027 -1.0849  2.2429
   96SAPS  C312 9587   1.477   4.654   7.129 -0.1106 -0.1505 -0.3796
   96SAPS  H12X 9588   1.515   4.568   7.071  0.4010  0.2082 -0.5808
   96SAPS  H12Y 9589   1.459   4.608   7.228 -2.5408  0.4520 -0.4977
   96SAPS  C313 9590   1.593   4.752   7.138 -0.2829  0.6431 -0.5086
   96SAPS  H13X 9591   1.565   4.837   7.204  0.5500 -0.5636  1.4391
   96SAPS  H13Y 9592   1.613   4.795   7.038  3.2717 -0.4385 -0.3597
   96SAPS  C314 9593   1.731   4.684   7.188 -0.2134  0.4251 -0.0252
   96SAPS  H14X 9594   1.823   4.742   7.165  1.9535 -2.4010  1.1476
   96SAPS  H14Y 9595   1.730   4.589   7.130  0.3653  1.0823 -1.1199
   96SAPS  C315 9596   1.734   4.660   7.332 -0.0636  0.4121 -0.0726
   96SAPS  H15X 9597   1.637   4.615   7.364 -0.2592  0.0027 -1.2188
   96SAPS  H15Y 9598   1.745   4.761   7.378  1.1246  0.6445 -0.8583
   96SAPS  C316 9599   1.850   4.574   7.371  0.5064  0.4020  0.1285
   96SAPS  H16X 9600   1.932   4.640   7.337  0.8740  0.1873  0.5947
   96SAPS  H16Y 9601   1.851   4.478   7.314  2.0599 -0.0483  0.8822
   96SAPS  C317 9602   1.857   4.563   7.519 -0.2256  0.4796  0.4114
   96SAPS  H17X 9603   1.770   4.513   7.567  0.7105 -1.1217  0.4769
   96SAPS  H17Y 9604   1.849   4.666   7.559 -1.3659 -0.5842  2.9905
   96SAPS  C318 9605   1.994   4.508   7.568 -0.1487 -0.3093  0.3739
   96SAPS  H18X 9606   2.023   4.406   7.533  2.5200 -0.5504  3.0922
   96SAPS  H18Y 9607   1.994   4.503   7.679  2.1299  0.7429  0.4527
   96SAPS  H18Z 9608   2.077   4.577   7.542  0.8786 -2.3317 -1.9319
   97SAPS     N 9609   1.685   1.726   5.250 -0.3477  0.4990 -0.3558
   97SAPS   HN1 9610   1.727   1.725   5.155 -0.1281 -0.9390 -0.2541
   97SAPS   HN2 9611   1.759   1.707   5.321  0.0675  0.0004 -0.9234
   97SAPS   HN3 9612   1.605   1.660   5.256  1.8076 -2.1770 -0.3629
   97SAPS   C12 9613   1.609   1.852   5.276 -0.0160  0.4072  0.3013
   97SAPS  H12A 9614   1.676   1.915   5.332 -0.5425  1.1220  0.1409
   97SAPS   C13 9615   1.558   1.930   5.154 -0.4381 -0.1980  0.2946
   97SAPS  O13A 9616   1.596   1.895   5.038 -0.1905 -0.3396 -0.4384
   97SAPS  O13B 9617   1.492   2.033   5.170 -0.0471 -0.5285 -0.3418
   97SAPS   C11 9618   1.485   1.826   5.356  0.2404 -0.0544 -0.4479
   97SAPS  H11A 9619   1.412   1.759   5.305 -1.2555  1.1183  0.0950
   97SAPS  H11B 9620   1.429   1.919   5.382 -0.3305 -0.1090 -1.4698
   97SAPS     P 9621   1.432   1.699   5.588 -0.0312 -0.0237 -0.2420
   97SAPS   O13 9622   1.460   1.749   5.725  0.5956  0.1481  0.0315
   97SAPS   O14 9623   1.292   1.701   5.542  0.5757 -0.2018  0.1330
   97SAPS   O12 9624   1.522   1.779   5.487 -0.3987 -0.3818  0.4318
   97SAPS   O11 9625   1.494   1.558   5.563 -0.3064 -0.0958  0.1518
   97SAPS    C1 9626   1.632   1.532   5.573  0.5524 -0.0083  0.0691
   97SAPS    HA 9627   1.686   1.506   5.479  1.1503 -2.7291  1.1197
   97SAPS    HB 9628   1.681   1.624   5.611 -2.3396  2.7046 -2.4909
   97SAPS    C2 9629   1.664   1.430   5.682  0.9084 -0.0815  0.4666
   97SAPS    HS 9630   1.579   1.361   5.662  0.3919  1.6644 -4.1554
   97SAPS   O21 9631   1.646   1.499   5.805  0.2793 -0.4358  0.5229
   97SAPS   C21 9632   1.631   1.423   5.913 -0.3266  0.0064  0.8448
   97SAPS   O22 9633   1.632   1.304   5.915 -0.3210 -0.3093  0.0779
   97SAPS   C22 9634   1.605   1.514   6.038 -0.2179  0.0426  0.4453
   97SAPS   H2R 9635   1.694   1.578   6.057  1.1530 -1.6175 -0.1416
   97SAPS   H2S 9636   1.521   1.577   6.004 -0.7889 -1.3145 -0.7253
   97SAPS    C3 9637   1.809   1.371   5.670  0.7046  0.4232 -0.0332
   97SAPS    HX 9638   1.868   1.438   5.604 -0.0457  0.4280 -0.6932
   97SAPS    HY 9639   1.814   1.279   5.610 -0.6704 -1.0220  2.0129
   97SAPS   O31 9640   1.880   1.330   5.792 -0.0006 -0.9047  0.4315
   97SAPS   C31 9641   1.946   1.427   5.841  0.9166 -0.2046  0.3643
   97SAPS   O32 9642   1.960   1.543   5.798  0.5108 -0.0991  0.8329
   97SAPS   C32 9643   2.015   1.377   5.972  0.0171  0.7241 -0.5591
   97SAPS   H2X 9644   1.980   1.272   5.984  0.9360  0.7028  2.1735
   97SAPS   H2Y 9645   1.963   1.425   6.058  3.1348  0.9524  1.2728
   97SAPS   C23 9646   1.555   1.450   6.171  0.7685 -0.2390  0.0142
   97SAPS   H3R 9647   1.471   1.387   6.138 -1.7986  2.3196  1.4237
   97SAPS   H3S 9648   1.510   1.531   6.232  3.1472  2.0865 -1.1944
   97SAPS   C24 9649   1.658   1.380   6.260  0.2191  0.2552 -1.2136
   97SAPS   H4R 9650   1.611   1.381   6.361 -1.3527 -0.6053 -1.9238
   97SAPS   H4S 9651   1.750   1.442   6.267 -0.2673  0.8320  0.4427
   97SAPS   C25 9652   1.690   1.242   6.203 -0.4463  0.2062 -0.2122
   97SAPS   H5R 9653   1.764   1.248   6.122 -1.9239 -2.5504 -1.8589
   97SAPS   C26 9654   1.636   1.127   6.235  0.0485  0.6092 -0.0342
   97SAPS   H6R 9655   1.678   1.037   6.187  0.0961 -0.3495  1.7372
   97SAPS   C27 9656   1.514   1.093   6.321 -0.3510 -0.3164  0.3833
   97SAPS   H7R 9657   1.420   1.069   6.266 -0.5806  0.3143  0.4925
   97SAPS   H7S 9658   1.494   1.180   6.388  0.6485  0.8439 -0.7987
   97SAPS   C28 9659   1.537   0.971   6.399 -0.6548  0.7618 -0.0817
   97SAPS   H8R 9660   1.495   0.880   6.355  0.2918 -0.4255  1.4058
   97SAPS   C29 9661   1.592   0.971   6.521  0.1183 -0.0815  0.2784
   97SAPS   H9R 9662   1.622   0.875   6.565  2.6196  1.0064  1.0855
   97SAPS  C210 9663   1.646   1.092   6.595  0.5017 -0.2309  0.4236
   97SAPS  H10R 9664   1.561   1.117   6.662  1.6441  1.3164  1.3225
   97SAPS  H10S 9665   1.668   1.177   6.527  0.2786  0.4169  1.1557
   97SAPS  C211 9666   1.771   1.054   6.667 -0.2144  0.0715 -0.4478
   97SAPS  H11R 9667   1.843   1.000   6.603  1.6307  1.4641  0.3903
   97SAPS  C212 9668   1.798   1.080   6.797  0.2192  0.3893 -0.2236
   97SAPS  H12R 9669   1.900   1.057   6.832  0.5736  0.8295 -0.9497
   97SAPS  C213 9670   1.703   1.148   6.889  0.4703  0.3391 -0.1365
   97SAPS  H13R 9671   1.631   1.213   6.835 -0.1115 -2.2336 -2.6286
   97SAPS  H13S 9672   1.751   1.219   6.959  1.0781 -0.4712  0.2752
   97SAPS  C214 9673   1.611   1.050   6.968 -0.0455 -0.3483  0.0905
   97SAPS  H14R 9674   1.535   0.994   6.912 -2.0309  0.2474  2.0917
   97SAPS  C215 9675   1.624   1.031   7.104  0.4330  0.1523 -0.0481
   97SAPS  H15R 9676   1.541   0.980   7.156  0.9582 -1.3841 -0.6852
   97SAPS  C216 9677   1.732   1.103   7.181 -0.2721  0.1647 -0.4628
   97SAPS  H16R 9678   1.707   1.209   7.199 -2.1713 -0.2302 -0.7172
   97SAPS  H16S 9679   1.829   1.089   7.127  0.5832  0.3468  0.9879
   97SAPS  C217 9680   1.760   1.031   7.317  0.1343 -0.0375 -0.6565
   97SAPS  H17R 9681   1.798   0.930   7.290 -1.2734 -0.4154 -1.2504
   97SAPS  H17S 9682   1.668   1.023   7.378  0.2863  0.1155 -0.4108
   97SAPS  C218 9683   1.872   1.111   7.396  0.3790  0.3598  0.4097
   97SAPS  H18R 9684   1.833   1.215   7.395 -1.7783 -0.3930 -2.3859
   97SAPS  H18S 9685   1.967   1.107   7.339  0.4766  0.8012  0.5379
   97SAPS  C219 9686   1.882   1.065   7.542 -0.0811 -0.0637 -0.2875
   97SAPS  H19R 9687   1.914   0.959   7.537  0.8616  0.1500  0.8916
   97SAPS  H19S 9688   1.785   1.063   7.597 -0.9317  2.8965 -1.5601
   97SAPS  C220 9689   1.975   1.140   7.624  0.4332 -0.3537 -0.5834
   97SAPS  H20R 9690   2.078   1.119   7.586  0.7760  1.0008 -0.4260
   97SAPS  H20S 9691   1.973   1.106   7.730 -1.2284  0.1244 -0.4484
   97SAPS  H20T 9692   1.955   1.249   7.613  1.1404 -0.1345  0.2109
   97SAPS   C33 9693   2.168   1.395   5.983 -0.4008  0.5383  0.3506
   97SAPS   H3X 9694   2.192   1.501   6.004  1.7621 -0.2270  2.0513
   97SAPS   H3Y 9695   2.217   1.370   5.887 -0.0847  0.0646  0.6312
   97SAPS   C34 9696   2.236   1.312   6.096 -0.3361 -0.1291  0.0039
   97SAPS   H4X 9697   2.346   1.331   6.089 -0.4951  0.1423 -2.0961
   97SAPS   H4Y 9698   2.226   1.203   6.078 -0.5371 -0.6948  3.1253
   97SAPS   C35 9699   2.182   1.353   6.237 -0.5298 -0.0976 -0.1305
   97SAPS   H5X 9700   2.213   1.269   6.301  0.5298  1.3968  1.3673
   97SAPS   H5Y 9701   2.071   1.366   6.237 -0.8103 -2.3067  0.0059
   97SAPS   C36 9702   2.243   1.489   6.287  0.4778 -0.0924 -0.2041
   97SAPS   H6X 9703   2.206   1.563   6.213  0.7838  0.9977  0.7204
   97SAPS   H6Y 9704   2.353   1.501   6.281  0.5447 -0.5818  0.0249
   97SAPS   C37 9705   2.194   1.527   6.430  0.7642 -0.5874  0.0513
   97SAPS   H7X 9706   2.226   1.632   6.439  2.1546 -0.9685 -0.2963
   97SAPS   H7Y 9707   2.252   1.473   6.507  1.1774 -1.5584 -0.9150
   97SAPS   C38 9708   2.040   1.520   6.447  0.2329  0.5781 -0.2335
   97SAPS   H8X 9709   2.011   1.413   6.437  1.9101 -0.1144  1.8881
   97SAPS   H8Y 9710   1.998   1.576   6.361 -0.9168  2.1876  1.3398
   97SAPS   C39 9711   1.980   1.576   6.575  0.5853 -0.0477 -0.3613
   97SAPS   H9X 9712   1.872   1.591   6.555  0.6084 -2.1099 -2.1576
   97SAPS   H9Y 9713   2.026   1.677   6.584  1.6623 -0.5041 -0.6482
   97SAPS  C310 9714   1.978   1.470   6.686  0.3851  0.8025 -0.4271
   97SAPS  H10X 9715   2.083   1.438   6.706  0.5700  0.3780 -2.0004
   97SAPS  H10Y 9716   1.914   1.388   6.649 -0.1828  1.4681 -0.9319
   97SAPS  C311 9717   1.926   1.510   6.824 -0.4381  0.1207 -0.0159
   97SAPS  H11X 9718   1.906   1.413   6.875 -1.4161  0.6722  0.6648
   97SAPS  H11Y 9719   1.827   1.556   6.806 -1.3960 -1.7516  0.3365
   97SAPS  C312 9720   2.019   1.599   6.904  0.4263 -0.8546  0.2670
   97SAPS  H12X 9721   2.037   1.689   6.842 -0.5401  1.3948  3.1129
   97SAPS  H12Y 9722   2.109   1.538   6.928  0.7601 -0.3022  0.4362
   97SAPS  C313 9723   1.960   1.654   7.042  0.6809  0.3492  0.1597
   97SAPS  H13X 9724   1.884   1.730   7.014  1.0529  0.5311 -0.3699
   97SAPS  H13Y 9725   2.038   1.704   7.104  1.9509 -1.6080  0.1775
   97SAPS  C314 9726   1.883   1.549   7.123  1.3660 -0.3401 -0.3459
   97SAPS  H14X 9727   1.952   1.468   7.153  1.0785 -0.1975  0.7090
   97SAPS  H14Y 9728   1.811   1.488   7.064 -0.6625  0.1676  1.5323
   97SAPS  C315 9729   1.794   1.602   7.230  0.1636 -0.6893  0.5058
   97SAPS  H15X 9730   1.704   1.658   7.197  0.7187  1.7905  2.9850
   97SAPS  H15Y 9731   1.853   1.673   7.291  0.1385  0.4360 -0.7458
   97SAPS  C316 9732   1.762   1.483   7.314 -0.5435 -0.3784 -0.3038
   97SAPS  H16X 9733   1.851   1.426   7.345 -1.1390  0.3931  2.9594
   97SAPS  H16Y 9734   1.703   1.419   7.245  2.6323 -3.1150 -0.6186
   97SAPS  C317 9735   1.690   1.516   7.441 -0.5317 -1.0758  0.0084
   97SAPS  H17X 9736   1.590   1.553   7.408 -1.0113 -1.9895  0.4227
   97SAPS  H17Y 9737   1.745   1.596   7.494  0.1201 -1.8855  0.5802
   97SAPS  C318 9738   1.667   1.399   7.540 -0.1179  0.1010  0.2484
   97SAPS  H18X 9739   1.620   1.308   7.496 -0.4519  0.8726 -1.0280
   97SAPS  H18Y 9740   1.596   1.429   7.620 -0.4101  1.3612 -0.4684
   97SAPS  H18Z 9741   1.765   1.356   7.569  1.5441  3.1624 -0.6346
   98SAPS     N 9742   0.737   3.108   5.818  0.2544  0.2455 -0.2385
   98SAPS   HN1 9743   0.788   3.198   5.828 -0.9813  0.8947  0.3116
   98SAPS   HN2 9744   0.669   3.098   5.896  1.3035 -0.3648  0.6090
   98SAPS   HN3 9745   0.807   3.032   5.829 -0.8877 -0.5399  1.9065
   98SAPS   C12 9746   0.659   3.099   5.695 -0.2225 -0.1969 -0.1885
   98SAPS  H12A 9747   0.629   3.199   5.669  0.1592  0.0659  0.3490
   98SAPS   C13 9748   0.742   3.058   5.572 -0.2371  0.0470 -0.4493
   98SAPS  O13A 9749   0.872   3.060   5.569 -0.5239 -0.0304  0.3887
   98SAPS  O13B 9750   0.686   3.039   5.461  0.0718  0.0056 -0.3237
   98SAPS   C11 9751   0.529   3.008   5.722  0.1731 -0.2668  0.2833
   98SAPS  H11A 9752   0.576   2.908   5.733  1.9339  0.4583 -0.5212
   98SAPS  H11B 9753   0.473   3.005   5.626  0.1469 -0.1533  0.2937
   98SAPS     P 9754   0.302   3.001   5.858 -0.4740  0.0892  0.2918
   98SAPS   O13 9755   0.254   3.113   5.931 -0.0335  0.2121  0.1213
   98SAPS   O14 9756   0.247   2.973   5.723  0.2683  0.1373 -0.1321
   98SAPS   O12 9757   0.458   3.040   5.840 -0.0096  0.1651 -0.2904
   98SAPS   O11 9758   0.306   2.884   5.955  0.3365 -0.1557 -0.8682
   98SAPS    C1 9759   0.387   2.765   5.935 -0.4955 -0.1231 -0.2226
   98SAPS    HA 9760   0.330   2.701   5.865  0.4116 -1.4356  0.2299
   98SAPS    HB 9761   0.486   2.795   5.895 -0.4140  1.1790  0.9162
   98SAPS    C2 9762   0.411   2.701   6.071  0.2731  0.0042  0.1710
   98SAPS    HS 9763   0.479   2.614   6.057 -1.4962 -1.8643  2.6590
   98SAPS   O21 9764   0.287   2.648   6.124 -0.6256  0.0260 -0.2388
   98SAPS   C21 9765   0.245   2.534   6.073  0.0961 -0.6889  0.5195
   98SAPS   O22 9766   0.303   2.474   5.983 -0.5171  0.2029 -0.0602
   98SAPS   C22 9767   0.134   2.484   6.158 -0.4142  0.2072 -0.2457
   98SAPS   H2R 9768   0.163   2.438   6.255 -2.6365 -0.4008  0.1570
   98SAPS   H2S 9769   0.071   2.570   6.189 -1.3764 -1.0194  1.2867
   98SAPS    C3 9770   0.469   2.806   6.170 -0.8206 -0.1944 -0.1771
   98SAPS    HX 9771   0.382   2.875   6.176 -0.7457 -0.2925  2.2779
   98SAPS    HY 9772   0.557   2.859   6.126 -0.1549 -0.8433  0.3502
   98SAPS   O31 9773   0.493   2.751   6.303 -0.3068 -0.5211  0.1153
   98SAPS   C31 9774   0.559   2.839   6.383 -0.6648 -0.8430 -0.1910
   98SAPS   O32 9775   0.586   2.955   6.348  0.4429  0.3064  0.4637
   98SAPS   C32 9776   0.609   2.772   6.515 -0.3966 -0.6497 -0.1889
   98SAPS   H2X 9777   0.718   2.776   6.493 -0.1999  0.8547  1.0282
   98SAPS   H2Y 9778   0.587   2.663   6.516  1.9656 -1.1692 -0.2579
   98SAPS   C23 9779   0.057   2.369   6.094 -0.4665 -0.6146  0.0571
   98SAPS   H3R 9780   0.112   2.272   6.093 -1.0375 -0.9669  1.3061
   98SAPS   H3S 9781   0.048   2.389   5.986 -0.5395  0.5352  0.2659
   98SAPS   C24 9782  -0.076   2.342   6.161  0.3077  0.0880  0.3859
   98SAPS   H4R 9783  -0.060   2.342   6.271  2.0406  0.1914  0.1521
   98SAPS   H4S 9784  -0.106   2.237   6.139 -0.8846  0.6816 -0.8426
   98SAPS   C25 9785  -0.186   2.428   6.110 -0.2121 -0.2289  0.0933
   98SAPS   H5R 9786  -0.196   2.423   6.001  0.3966 -0.1831  0.0376
   98SAPS   C26 9787  -0.263   2.507   6.178  0.3975 -0.2421  0.0084
   98SAPS   H6R 9788  -0.339   2.572   6.132 -1.3721 -2.1387  0.2117
   98SAPS   C27 9789  -0.266   2.542   6.332  0.4425  0.1430 -0.7363
   98SAPS   H7R 9790  -0.304   2.646   6.325  1.2897  0.5750  0.7927
   98SAPS   H7S 9791  -0.170   2.537   6.388  0.0239  1.9407  0.1946
   98SAPS   C28 9792  -0.363   2.454   6.411 -0.2697  1.1118 -0.0633
   98SAPS   H8R 9793  -0.417   2.381   6.349  1.7055  1.6184 -2.4586
   98SAPS   C29 9794  -0.382   2.447   6.541 -0.5853  0.0642 -0.6141
   98SAPS   H9R 9795  -0.450   2.370   6.581 -0.3836 -0.0442 -0.4781
   98SAPS  C210 9796  -0.311   2.541   6.644  0.1818  0.1667  0.9985
   98SAPS  H10R 9797  -0.237   2.615   6.606 -2.0819  2.2869  0.6574
   98SAPS  H10S 9798  -0.248   2.475   6.709 -1.0258 -0.2604  1.7430
   98SAPS  C211 9799  -0.411   2.598   6.741  0.0782  0.1110 -0.1055
   98SAPS  H11R 9800  -0.505   2.545   6.763  0.7299 -1.3093 -0.7097
   98SAPS  C212 9801  -0.385   2.702   6.823 -0.1725 -0.0213 -0.5331
   98SAPS  H12R 9802  -0.465   2.748   6.883  0.1780 -0.0382 -0.0468
   98SAPS  C213 9803  -0.249   2.769   6.837 -0.0091  0.6556  0.0519
   98SAPS  H13R 9804  -0.175   2.758   6.754 -0.1438 -1.8350  0.2165
   98SAPS  H13S 9805  -0.189   2.718   6.915 -1.4756 -0.0268  0.7528
   98SAPS  C214 9806  -0.261   2.916   6.869 -0.1971  0.1996  0.4175
   98SAPS  H14R 9807  -0.328   2.969   6.799 -0.6552 -0.5997  0.2446
   98SAPS  C215 9808  -0.207   2.985   6.968  0.4333  1.1753  0.5570
   98SAPS  H15R 9809  -0.248   3.083   6.996  1.5067  1.8804 -0.2875
   98SAPS  C216 9810  -0.125   2.925   7.088  0.2332 -0.0975  0.2927
   98SAPS  H16R 9811  -0.178   2.838   7.130  0.4120 -0.7948 -0.8997
   98SAPS  H16S 9812  -0.117   3.006   7.163  1.3255 -0.9662  1.1313
   98SAPS  C217 9813   0.024   2.896   7.050  0.4386 -0.6388  0.0366
   98SAPS  H17R 9814   0.067   2.988   7.004 -1.5648  0.4837  0.3429
   98SAPS  H17S 9815   0.025   2.824   6.965 -0.5410 -0.3148 -0.2532
   98SAPS  C218 9816   0.114   2.856   7.168  0.3804 -0.8146  0.5107
   98SAPS  H18R 9817   0.056   2.818   7.254  0.2139 -0.1843  0.6839
   98SAPS  H18S 9818   0.188   2.932   7.199  0.6743 -1.3340  1.0792
   98SAPS  C219 9819   0.216   2.744   7.129 -0.8438  0.8768  0.4054
   98SAPS  H19R 9820   0.272   2.772   7.037 -1.0930 -0.1751 -0.0802
   98SAPS  H19S 9821   0.157   2.652   7.109 -0.4009  0.0241  2.8403
   98SAPS  C220 9822   0.313   2.737   7.246 -0.6706 -1.2393 -0.7138
   98SAPS  H20R 9823   0.353   2.835   7.279  1.6250 -2.1450 -0.7265
   98SAPS  H20S 9824   0.401   2.670   7.237  2.0917  2.2620 -0.9345
   98SAPS  H20T 9825   0.255   2.689   7.328  0.9329 -0.7873  0.7150
   98SAPS   C33 9826   0.577   2.841   6.642 -0.5179  0.1986  0.0037
   98SAPS   H3X 9827   0.606   2.786   6.734 -0.9477 -0.1577 -0.0681
   98SAPS   H3Y 9828   0.467   2.859   6.639 -0.4759  0.3501 -0.6503
   98SAPS   C34 9829   0.619   2.984   6.664  0.1299  0.1984  0.3633
   98SAPS   H4X 9830   0.563   3.059   6.603 -1.0109  1.2147  2.6005
   98SAPS   H4Y 9831   0.725   3.000   6.635 -0.4482 -0.7453 -2.5003
   98SAPS   C35 9832   0.599   3.029   6.811  0.7847  0.3075 -0.4051
   98SAPS   H5X 9833   0.629   3.135   6.828 -2.4025  1.1138  0.5742
   98SAPS   H5Y 9834   0.676   2.970   6.864  0.3871  1.3972  1.4394
   98SAPS   C36 9835   0.458   3.006   6.869  0.0682 -0.7521  0.3561
   98SAPS   H6X 9836   0.434   2.902   6.899 -0.8377 -0.8392 -0.6348
   98SAPS   H6Y 9837   0.381   3.047   6.800  1.3082  2.1622  0.6591
   98SAPS   C37 9838   0.439   3.083   7.007 -0.1512  0.3164  0.1636
   98SAPS   H7X 9839   0.345   3.035   7.043 -0.4470 -1.2060 -2.5143
   98SAPS   H7Y 9840   0.425   3.190   6.984  0.2099 -0.0555 -1.8577
   98SAPS   C38 9841   0.545   3.055   7.119 -0.1702 -0.7197  0.1004
   98SAPS   H8X 9842   0.646   3.078   7.080 -0.6457 -0.8995 -1.2824
   98SAPS   H8Y 9843   0.539   2.945   7.137 -1.1389 -0.6192  0.4409
   98SAPS   C39 9844   0.526   3.125   7.259  0.2864  0.1343 -0.4577
   98SAPS   H9X 9845   0.615   3.101   7.320  0.2722 -0.4096 -0.6442
   98SAPS   H9Y 9846   0.442   3.072   7.308  0.6795 -0.7061 -0.6872
   98SAPS  C310 9847   0.517   3.277   7.242 -0.1482 -0.2460  0.1903
   98SAPS  H10X 9848   0.420   3.316   7.204  1.1905 -0.4132 -3.5847
   98SAPS  H10Y 9849   0.589   3.304   7.163  1.0000  2.9604  2.2151
   98SAPS  C311 9850   0.561   3.352   7.369  0.3685  0.9430 -0.2805
   98SAPS  H11X 9851   0.671   3.340   7.377  0.3684  0.3647 -1.0491
   98SAPS  H11Y 9852   0.513   3.313   7.461  0.1272  1.5583 -0.1426
   98SAPS  C312 9853   0.544   3.506   7.365 -0.2919  0.5876  0.1275
   98SAPS  H12X 9854   0.437   3.521   7.339 -0.1438  2.3939  0.4613
   98SAPS  H12Y 9855   0.614   3.554   7.294 -0.0647 -1.9192 -1.3741
   98SAPS  C313 9856   0.561   3.556   7.510 -0.0247 -0.9381 -0.1151
   98SAPS  H13X 9857   0.669   3.559   7.537  0.1054  0.0549 -0.6934
   98SAPS  H13Y 9858   0.512   3.488   7.582 -1.6633  0.7563  0.4114
   98SAPS  C314 9859   0.503   3.703   7.527 -0.4344 -0.0220 -0.6089
   98SAPS  H14X 9860   0.513   3.727   7.635  1.5626 -0.9309 -0.5607
   98SAPS  H14Y 9861   0.398   3.685   7.496 -1.3527  1.0690  1.7633
   98SAPS  C315 9862   0.553   3.814   7.439  0.5345 -0.5727  0.4952
   98SAPS  H15X 9863   0.519   3.794   7.335 -1.1450 -0.1705  0.9577
   98SAPS  H15Y 9864   0.662   3.819   7.462  0.6047  0.4253 -0.0503
   98SAPS  C316 9865   0.496   3.952   7.473  0.1480  0.5417 -0.1737
   98SAPS  H16X 9866   0.490   3.949   7.584 -1.7226  0.6580 -0.2543
   98SAPS  H16Y 9867   0.396   3.976   7.432  0.5798  0.5449 -1.2253
   98SAPS  C317 9868   0.600   4.057   7.423 -0.1550 -0.5476  0.0998
   98SAPS  H17X 9869   0.628   4.041   7.317 -1.0534  1.8100 -0.5069
   98SAPS  H17Y 9870   0.691   4.047   7.485 -0.8208 -0.0476  1.1775
   98SAPS  C318 9871   0.558   4.202   7.442 -0.1287 -0.0722  0.0126
   98SAPS  H18X 9872   0.541   4.219   7.551 -0.1284 -1.0738  0.1744
   98SAPS  H18Y 9873   0.465   4.232   7.390  1.3732  0.2891 -2.5855
   98SAPS  H18Z 9874   0.648   4.263   7.416 -1.3722  1.1590 -1.4720
   99SAPS     N 9875   5.637   6.937   5.727 -0.2189 -0.1195  0.3197
   99SAPS   HN1 9876   5.548   6.978   5.763 -0.6285 -1.2641  0.6380
   99SAPS   HN2 9877   5.608   6.884   5.642 -1.6558  0.0080  0.7128
   99SAPS   HN3 9878   5.685   6.873   5.792  0.9708  0.8793  0.4487
   99SAPS   C12 9879   5.714   7.054   5.674 -0.1099 -0.4532  0.1756
   99SAPS  H12A 9880   5.798   7.013   5.619  2.8261  0.6151  3.6199
   99SAPS   C13 9881   5.634   7.139   5.567  0.1206  0.0588 -0.2671
   99SAPS  O13A 9882   5.519   7.108   5.538  0.4152  0.1217 -0.2991
   99SAPS  O13B 9883   5.695   7.238   5.513  0.8302 -0.2184 -0.4412
   99SAPS   C11 9884   5.760   7.151   5.786  0.4637 -0.4551 -0.3787
   99SAPS  H11A 9885   5.674   7.198   5.838 -0.4224 -1.3165 -1.0726
   99SAPS  H11B 9886   5.811   7.236   5.736  1.2193 -1.1706 -0.8410
   99SAPS     P 9887   5.990   7.027   5.865 -0.0148  0.4767  0.1896
   99SAPS   O13 9888   5.972   6.884   5.870 -0.1657  0.1208  0.4225
   99SAPS   O14 9889   6.050   7.081   5.742 -0.1173 -0.4264  0.1188
   99SAPS   O12 9890   5.844   7.084   5.879  0.1562  0.3341  0.0432
   99SAPS   O11 9891   6.075   7.085   5.990 -0.1140  0.0203 -0.2679
   99SAPS    C1 9892   6.062   7.047   6.128  0.6082 -0.5686 -0.1924
   99SAPS    HA 9893   6.069   7.141   6.186  3.3005  0.3185 -1.8472
   99SAPS    HB 9894   5.962   7.013   6.161  1.4558 -2.7241  0.2574
   99SAPS    C2 9895   6.173   6.949   6.174  0.3870 -1.1376  0.3014
   99SAPS    HS 9896   6.262   6.984   6.118  1.3267 -1.2544  1.6835
   99SAPS   O21 9897   6.136   6.819   6.130  0.4291  0.4195 -0.2187
   99SAPS   C21 9898   6.247   6.747   6.088 -1.1639  0.4926 -0.1522
   99SAPS   O22 9899   6.360   6.790   6.085  0.2592  0.3655 -0.1102
   99SAPS   C22 9900   6.202   6.602   6.065  0.4860 -0.5635  0.0478
   99SAPS   H2R 9901   6.129   6.576   6.145  0.7532 -1.7134 -0.0816
   99SAPS   H2S 9902   6.144   6.599   5.971 -0.0934  0.7472  0.3530
   99SAPS    C3 9903   6.208   6.962   6.323 -0.0505 -0.1310  0.4755
   99SAPS    HX 9904   6.214   7.071   6.342 -1.8735  0.1773 -0.6292
   99SAPS    HY 9905   6.304   6.911   6.346 -0.6185 -0.9989  0.9306
   99SAPS   O31 9906   6.111   6.894   6.414  0.5203 -0.3103 -0.2227
   99SAPS   C31 9907   6.097   6.949   6.531 -0.3500 -0.6719 -0.6583
   99SAPS   O32 9908   6.169   7.042   6.573  0.1679 -0.2349  0.2519
   99SAPS   C32 9909   5.999   6.870   6.619 -0.7457 -0.9203  0.4468
   99SAPS   H2X 9910   6.036   6.765   6.620  0.0170 -0.6749 -0.8644
   99SAPS   H2Y 9911   5.899   6.862   6.571 -0.0686 -2.0695 -0.8221
   99SAPS   C23 9912   6.320   6.501   6.040  0.2744  0.0492 -0.1032
   99SAPS   H3R 9913   6.397   6.546   5.973  0.0989 -0.9858 -1.0166
   99SAPS   H3S 9914   6.274   6.414   5.990 -1.0608 -0.0144  1.2277
   99SAPS   C24 9915   6.395   6.448   6.160 -0.5877 -0.4615  0.0088
   99SAPS   H4R 9916   6.438   6.537   6.211 -2.4761  1.1529 -1.1688
   99SAPS   H4S 9917   6.484   6.391   6.126 -0.0310  0.5051 -0.1804
   99SAPS   C25 9918   6.306   6.360   6.251  0.3540 -0.0203  0.0069
   99SAPS   H5R 9919   6.237   6.290   6.201  0.5262 -0.0001 -0.2574
   99SAPS   C26 9920   6.299   6.371   6.386 -0.3915  0.3845 -0.4782
   99SAPS   H6R 9921   6.230   6.297   6.428  1.6834 -0.8953  0.7711
   99SAPS   C27 9922   6.378   6.467   6.474 -0.1582 -0.1006  0.1216
   99SAPS   H7R 9923   6.484   6.473   6.442  0.4558  1.4658  2.3094
   99SAPS   H7S 9924   6.375   6.423   6.576  1.1239  0.1542  0.2739
   99SAPS   C28 9925   6.330   6.606   6.471 -0.1781 -1.0680 -0.1305
   99SAPS   H8R 9926   6.278   6.635   6.378 -1.6274 -1.9391  0.4014
   99SAPS   C29 9927   6.346   6.707   6.563  0.1852  0.3117 -0.3532
   99SAPS   H9R 9928   6.316   6.808   6.530 -0.3093  0.0724 -0.6468
   99SAPS  C210 9929   6.420   6.684   6.691 -0.4747 -0.3532  0.4601
   99SAPS  H10R 9930   6.529   6.675   6.671 -0.5226  2.1226 -1.1407
   99SAPS  H10S 9931   6.382   6.594   6.745  1.6324 -1.2295  0.5163
   99SAPS  C211 9932   6.404   6.801   6.781 -0.3804  0.3742  0.3505
   99SAPS  H11R 9933   6.452   6.892   6.742  0.1710 -0.0383  0.0557
   99SAPS  C212 9934   6.360   6.799   6.908  0.6963 -0.1791 -0.1492
   99SAPS  H12R 9935   6.351   6.892   6.966  2.1769 -2.2980  3.6209
   99SAPS  C213 9936   6.308   6.676   6.987 -0.4157  0.5622 -0.1497
   99SAPS  H13R 9937   6.337   6.681   7.094  1.2226  1.0439 -0.6077
   99SAPS  H13S 9938   6.365   6.586   6.955 -1.7722  1.0026 -4.0373
   99SAPS  C214 9939   6.158   6.643   6.975 -0.2140  0.6301 -0.9632
   99SAPS  H14R 9940   6.118   6.635   6.873 -0.3147 -2.0624 -0.7584
   99SAPS  C215 9941   6.065   6.619   7.070 -0.9188  0.2123  0.2848
   99SAPS  H15R 9942   5.961   6.598   7.041 -0.5075 -3.7049  1.4050
   99SAPS  C216 9943   6.085   6.601   7.217  1.0167 -0.6547 -0.2017
   99SAPS  H16R 9944   6.187   6.641   7.234  0.6774  0.1855 -0.0608
   99SAPS  H16S 9945   6.070   6.497   7.252 -1.1846  0.0813  1.1556
   99SAPS  C217 9946   5.972   6.669   7.304  0.2022 -0.2558  0.2549
   99SAPS  H17R 9947   5.869   6.632   7.280 -0.0694  0.5875  0.1056
   99SAPS  H17S 9948   5.980   6.775   7.274  1.1661 -0.3604  0.1383
   99SAPS  C218 9949   6.009   6.638   7.452  0.2486 -0.6769  0.1542
   99SAPS  H18R 9950   6.115   6.663   7.472 -0.4730 -0.8948  4.8066
   99SAPS  H18S 9951   5.994   6.528   7.452 -1.4040 -0.4727 -1.3231
   99SAPS  C219 9952   5.915   6.703   7.554 -0.1399 -0.0996 -0.5413
   99SAPS  H19R 9953   5.924   6.812   7.532  0.3145 -0.3114 -1.4383
   99SAPS  H19S 9954   5.938   6.686   7.661  2.8334  0.8294 -0.9934
   99SAPS  C220 9955   5.760   6.657   7.535 -0.2821  0.5832 -0.1118
   99SAPS  H20R 9956   5.728   6.680   7.431  0.2065 -0.7298 -0.5596
   99SAPS  H20S 9957   5.704   6.715   7.611 -1.7462  0.1888 -0.8632
   99SAPS  H20T 9958   5.760   6.547   7.553 -1.4381  0.3838 -1.2351
   99SAPS   C33 9959   6.002   6.935   6.761 -0.5681 -0.0117 -0.0072
   99SAPS   H3X 9960   5.982   7.043   6.744  3.4508  0.6805 -0.8780
   99SAPS   H3Y 9961   6.100   6.924   6.813  1.0072  0.4203 -2.7871
   99SAPS   C34 9962   5.894   6.872   6.845 -0.2013  0.0468 -0.0972
   99SAPS   H4X 9963   5.922   6.766   6.864  1.0056  0.7746  2.4370
   99SAPS   H4Y 9964   5.796   6.882   6.794 -0.5180 -2.8085 -0.1486
   99SAPS   C35 9965   5.885   6.940   6.981 -0.2893 -0.0462 -0.0217
   99SAPS   H5X 9966   5.986   6.952   7.024 -0.9678 -0.2212  1.6356
   99SAPS   H5Y 9967   5.820   6.879   7.047 -0.2706 -1.4297 -1.2398
   99SAPS   C36 9968   5.815   7.079   6.982 -0.0612  0.0555 -0.2039
   99SAPS   H6X 9969   5.735   7.084   6.906  0.0316 -0.7878 -0.3654
   99SAPS   H6Y 9970   5.898   7.151   6.965 -1.2871  1.6952  0.5711
   99SAPS   C37 9971   5.767   7.106   7.127  0.6787  0.5197  0.3447
   99SAPS   H7X 9972   5.687   7.033   7.152 -0.5271  2.4460  2.2679
   99SAPS   H7Y 9973   5.722   7.207   7.136  0.7456  0.5322  0.5330
   99SAPS   C38 9974   5.872   7.097   7.232 -0.4478 -0.3351  0.3668
   99SAPS   H8X 9975   5.955   7.166   7.206 -0.0799 -1.5440 -1.7681
   99SAPS   H8Y 9976   5.904   6.990   7.231 -0.5224 -0.3982  2.0717
   99SAPS   C39 9977   5.813   7.141   7.370 -0.2449  0.3483  0.2117
   99SAPS   H9X 9978   5.735   7.067   7.399 -0.2563  0.0952 -0.4528
   99SAPS   H9Y 9979   5.773   7.244   7.363 -0.4846  0.2850  0.6131
   99SAPS  C310 9980   5.904   7.137   7.499 -0.0947 -0.5668 -0.2634
   99SAPS  H10X 9981   5.931   7.030   7.515 -1.1012 -1.0538 -1.7318
   99SAPS  H10Y 9982   5.848   7.175   7.587 -0.4383 -0.3876 -0.5607
   99SAPS  C311 9983   6.034   7.219   7.488 -0.2377 -0.2063 -0.3859
   99SAPS  H11X 9984   6.001   7.323   7.470 -0.3373 -0.4458 -1.6412
   99SAPS  H11Y 9985   6.094   7.180   7.402  2.2867  2.3361  0.1151
   99SAPS  C312 9986   6.119   7.228   7.616  0.0192 -0.2800 -0.2378
   99SAPS  H12X 9987   6.173   7.136   7.645  0.2886 -0.4290 -1.2072
   99SAPS  H12Y 9988   6.055   7.251   7.704 -0.3575 -0.4542 -0.4677
   99SAPS  C313 9989   6.222   7.341   7.592 -0.7625  0.1656 -0.0694
   99SAPS  H13X 9990   6.176   7.441   7.579 -0.6278  0.2933  0.4196
   99SAPS  H13Y 9991   6.285   7.324   7.502 -0.6705 -3.5593  0.6245
   99SAPS  C314 9992   6.315   7.361   7.714  0.2691 -0.7487 -0.1813
   99SAPS  H14X 9993   6.361   7.265   7.744 -1.5137 -1.5902 -0.0838
   99SAPS  H14Y 9994   6.254   7.387   7.804  0.4815  0.9660 -0.5220
   99SAPS  C315 9995   6.424   7.467   7.702 -0.2728  0.1341  0.6119
   99SAPS  H15X 9996   6.389   7.570   7.679  1.8876  0.2183 -2.4808
   99SAPS  H15Y 9997   6.490   7.451   7.615 -0.0460 -0.6283  0.9143
   99SAPS  C316 9998   6.520   7.460   7.815 -0.6209  0.9688 -0.3826
   99SAPS  H16X 9999   6.567   7.363   7.789 -1.3171  0.6165 -0.3205
   99SAPS  H16Y10000   6.486   7.447   7.920  1.7139 -3.0822 -0.0334
   99SAPS  C31710001   6.637   7.566   7.813  0.2552 -0.3120  0.1922
   99SAPS  H17X10002   6.588   7.665   7.814  1.5760  0.3545  0.1312
   99SAPS  H17Y10003   6.701   7.569   7.722 -1.5843  0.0589 -1.1029
   99SAPS  C31810004   6.734   7.554   7.929 -0.0720  0.2019 -0.4660
   99SAPS  H18X10005   6.783   7.460   7.961 -2.3855 -0.3129  1.7786
   99SAPS  H18Y10006   6.671   7.558   8.022 -0.5996  2.9044 -0.8843
   99SAPS  H18Z10007   6.805   7.639   7.934  1.0485 -0.7439 -0.0917
  100SAPS     N10008   1.691   0.219   5.620  0.7795  0.4716  0.6264
  100SAPS   HN110009   1.680   0.121   5.654  3.4375 -1.0229 -2.4943
  100SAPS   HN210010   1.679   0.220   5.517 -0.1784  0.9811  0.7378
  100SAPS   HN310011   1.787   0.255   5.640  0.5400  0.3529  2.0408
  100SAPS   C1210012   1.606   0.327   5.673 -0.1548 -0.1212 -0.4651
  100SAPS  H12A10013   1.649   0.352   5.769 -0.3273  1.1608 -0.7195
  100SAPS   C1310014   1.618   0.462   5.593  0.4525 -0.5822  0.7392
  100SAPS  O13A10015   1.695   0.461   5.495  0.2156  0.0612 -0.0709
  100SAPS  O13B10016   1.554   0.562   5.634 -0.2089  0.6788 -0.0162
  100SAPS   C1110017   1.466   0.270   5.690  0.8434 -0.0061 -0.1676
  100SAPS  H11A10018   1.405   0.266   5.597 -0.4353 -2.2705  0.7479
  100SAPS  H11B10019   1.414   0.349   5.748 -0.1248 -0.0204 -1.0057
  100SAPS     P10020   1.331   0.062   5.766  0.1670  0.2933  0.2978
  100SAPS   O1310021   1.223   0.159   5.778  0.0958  0.6708  0.1525
  100SAPS   O1410022   1.331  -0.023   5.646 -0.0564  0.4547 -0.1730
  100SAPS   O1210023   1.475   0.146   5.769 -0.3329  0.0994  0.5329
  100SAPS   O1110024   1.340  -0.027   5.888  0.1293 -0.6304 -0.3417
  100SAPS    C110025   1.422  -0.001   6.008 -0.2163 -0.2839 -0.2053
  100SAPS    HA10026   1.517  -0.052   5.982 -0.5832 -1.9953  1.7443
  100SAPS    HB10027   1.456   0.105   6.014 -0.9853 -0.0444 -0.0131
  100SAPS    C210028   1.371  -0.040   6.148 -0.9058  0.0076  0.6706
  100SAPS    HS10029   1.438   0.008   6.222 -0.1144 -1.3829  0.8740
  100SAPS   O2110030   1.375  -0.185   6.176 -0.4503 -0.0528 -0.4956
  100SAPS   C2110031   1.496  -0.240   6.177  0.2236 -0.0588 -0.5171
  100SAPS   O2210032   1.598  -0.174   6.157  0.4408 -0.0818  0.3802
  100SAPS   C2210033   1.483  -0.394   6.218  0.7415 -0.0332 -0.5313
  100SAPS   H2R10034   1.379  -0.431   6.226  1.9426 -3.0984  1.6617
  100SAPS   H2S10035   1.535  -0.440   6.131  2.3352 -0.0466  0.4196
  100SAPS    C310036   1.230   0.004   6.161 -0.3957  0.1286  0.2060
  100SAPS    HX10037   1.172  -0.052   6.085  0.1384  1.5813 -1.3082
  100SAPS    HY10038   1.220   0.114   6.146  0.5161  0.1529 -0.2821
  100SAPS   O3110039   1.168  -0.028   6.288  0.4561 -0.1525 -0.0070
  100SAPS   C3110040   1.217   0.045   6.390  0.5345  0.8815 -0.7287
  100SAPS   O3210041   1.287   0.141   6.379 -0.0156 -0.0937 -0.3721
  100SAPS   C3210042   1.170  -0.012   6.527 -0.0749  0.0926  0.4877
  100SAPS   H2X10043   1.209  -0.114   6.545 -1.7986 -0.3641  1.7994
  100SAPS   H2Y10044   1.059  -0.018   6.522 -0.1510  1.9913 -0.2839
  100SAPS   C2310045   1.570  -0.410   6.342 -0.1634  0.2448  0.4050
  100SAPS   H3R10046   1.673  -0.368   6.342 -0.1081  0.1081  0.6405
  100SAPS   H3S10047   1.590  -0.519   6.354 -0.4729 -0.2026 -2.6113
  100SAPS   C2410048   1.497  -0.358   6.464  0.5095  0.3585 -0.1751
  100SAPS   H4R10049   1.399  -0.411   6.466  1.2635 -1.2637 -3.3760
  100SAPS   H4S10050   1.471  -0.250   6.476  1.9432  0.6306  0.5998
  100SAPS   C2510051   1.585  -0.397   6.579 -0.1281  0.1962 -0.2450
  100SAPS   H5R10052   1.602  -0.506   6.582  1.4041  0.4370  0.4197
  100SAPS   C2610053   1.622  -0.310   6.674  0.0211  0.2412 -0.3930
  100SAPS   H6R10054   1.675  -0.346   6.763  1.0611 -0.1410 -1.1612
  100SAPS   C2710055   1.594  -0.163   6.689  0.8897 -0.4977 -0.8476
  100SAPS   H7R10056   1.646  -0.128   6.781  0.4586  3.9584 -2.2019
  100SAPS   H7S10057   1.487  -0.150   6.714  0.4298  0.0423 -2.9604
  100SAPS   C2810058   1.639  -0.074   6.581  0.5456  0.1312  0.0045
  100SAPS   H8R10059   1.663  -0.123   6.485 -1.1813  1.7375 -1.2989
  100SAPS   C2910060   1.630   0.062   6.578  0.0195  0.4004 -0.5496
  100SAPS   H9R10061   1.674   0.118   6.495 -0.3026  1.1656 -0.2129
  100SAPS  C21010062   1.584   0.163   6.679 -0.4824 -0.6529  0.0151
  100SAPS  H10R10063   1.668   0.211   6.734 -0.7974 -3.1841  2.8813
  100SAPS  H10S10064   1.517   0.116   6.755 -1.9779 -0.2088 -1.0127
  100SAPS  C21110065   1.504   0.276   6.625  0.3802  0.5335  0.6627
  100SAPS  H11R10066   1.474   0.279   6.520 -0.8234 -1.7045  0.9190
  100SAPS  C21210067   1.459   0.387   6.692  0.0607 -0.4473 -0.1483
  100SAPS  H12R10068   1.395   0.465   6.647  1.6804  0.5299 -0.8010
  100SAPS  C21310069   1.496   0.419   6.835  0.0313 -0.0036 -0.3289
  100SAPS  H13R10070   1.554   0.349   6.898  0.7520  0.8133 -0.0719
  100SAPS  H13S10071   1.402   0.442   6.888  0.7549 -0.5225  1.2086
  100SAPS  C21410072   1.584   0.544   6.834  0.0447 -0.3079  0.0595
  100SAPS  H14R10073   1.690   0.523   6.814 -0.1638 -1.4525  0.1208
  100SAPS  C21510074   1.547   0.671   6.865  0.6221 -0.0356 -0.1471
  100SAPS  H15R10075   1.634   0.737   6.873  0.6021  0.2081 -1.8974
  100SAPS  C21610076   1.406   0.718   6.907 -0.2852  0.2855  0.0009
  100SAPS  H16R10077   1.328   0.654   6.860  1.1765 -1.7196  0.2459
  100SAPS  H16S10078   1.404   0.825   6.877 -0.1306 -0.2488 -2.0423
  100SAPS  C21710079   1.387   0.722   7.062  0.0262 -0.4028  0.4251
  100SAPS  H17R10080   1.469   0.763   7.126  2.0551 -2.2385 -0.9119
  100SAPS  H17S10081   1.377   0.618   7.101  1.8543 -0.8365 -0.1828
  100SAPS  C21810082   1.258   0.788   7.114 -0.1002 -0.0182 -0.0964
  100SAPS  H18R10083   1.163   0.747   7.071 -0.8674  0.7235  0.8737
  100SAPS  H18S10084   1.277   0.889   7.074 -1.0700  0.1559 -0.1379
  100SAPS  C21910085   1.248   0.794   7.267  0.3924 -0.5590  0.2391
  100SAPS  H19R10086   1.334   0.856   7.300 -0.0564  0.5683 -0.6593
  100SAPS  H19S10087   1.254   0.692   7.309  2.0325 -1.1663 -1.3982
  100SAPS  C22010088   1.127   0.867   7.298  0.2515 -0.0436  0.4527
  100SAPS  H20R10089   1.118   0.884   7.407  1.7921 -1.8037  0.8832
  100SAPS  H20S10090   1.030   0.817   7.278  0.2259  0.5939 -1.1068
  100SAPS  H20T10091   1.132   0.959   7.236 -0.5274 -0.7814 -0.7373
  100SAPS   C3310092   1.207   0.088   6.641 -0.1163 -0.3894  0.1812
  100SAPS   H3X10093   1.150   0.182   6.627  2.0252  0.8745 -0.2718
  100SAPS   H3Y10094   1.314   0.115   6.632 -0.0457 -0.3959  0.9139
  100SAPS   C3410095   1.180   0.025   6.778 -0.3508 -0.2739  1.1748
  100SAPS   H4X10096   1.231  -0.074   6.786 -0.1963 -0.5707 -2.4361
  100SAPS   H4Y10097   1.073   0.017   6.807 -1.0874  2.4063 -0.6022
  100SAPS   C3510098   1.241   0.104   6.893 -0.6582 -0.3557  0.4565
  100SAPS   H5X10099   1.198   0.207   6.893 -0.6661 -0.2837 -3.3670
  100SAPS   H5Y10100   1.349   0.129   6.877 -0.3462 -1.8196  0.2818
  100SAPS   C3610101   1.228   0.033   7.028 -0.1903 -0.1866 -0.7386
  100SAPS   H6X10102   1.291  -0.058   7.017  1.9757  1.2837 -0.7392
  100SAPS   H6Y10103   1.120   0.010   7.044 -0.4554  1.4649 -0.0841
  100SAPS   C3710104   1.308   0.097   7.140 -0.1621  0.1895 -0.4916
  100SAPS   H7X10105   1.313   0.016   7.216  0.1870 -0.6765 -1.4345
  100SAPS   H7Y10106   1.244   0.178   7.184  1.2353  0.3748  1.2479
  100SAPS   C3810107   1.444   0.163   7.110  0.5094  0.0175 -0.1427
  100SAPS   H8X10108   1.427   0.248   7.040  0.1818 -1.6267 -2.0883
  100SAPS   H8Y10109   1.508   0.099   7.046 -0.8752 -0.2927 -1.2604
  100SAPS   C3910110   1.524   0.199   7.228  0.8869 -0.0748 -0.0918
  100SAPS   H9X10111   1.551   0.105   7.280 -0.6914 -1.5889 -1.9469
  100SAPS   H9Y10112   1.470   0.270   7.295  1.4218 -0.9023  1.2351
  100SAPS  C31010113   1.654   0.261   7.179 -0.2408 -0.1113 -0.5006
  100SAPS  H10X10114   1.643   0.353   7.118  1.2702  0.1418 -0.4042
  100SAPS  H10Y10115   1.709   0.182   7.124  0.8048 -0.5526  1.1346
  100SAPS  C31110116   1.755   0.304   7.293  0.3575 -0.2597  0.1892
  100SAPS  H11X10117   1.761   0.226   7.372 -1.3187 -0.4945  0.0968
  100SAPS  H11Y10118   1.704   0.393   7.337 -0.1652 -0.3753 -0.1854
  100SAPS  C31210119   1.888   0.360   7.237 -0.1409  0.3638 -0.5096
  100SAPS  H12X10120   1.856   0.418   7.148 -0.5541  0.7975 -0.0804
  100SAPS  H12Y10121   1.951   0.270   7.223  1.4955  1.2902  0.7559
  100SAPS  C31310122   1.963   0.461   7.333 -0.4124  1.1965 -0.7948
  100SAPS  H13X10123   1.885   0.539   7.348 -1.7593  0.3515 -3.1350
  100SAPS  H13Y10124   2.054   0.494   7.280 -0.7241  2.1405 -0.7612
  100SAPS  C31410125   1.988   0.403   7.465 -0.1024  0.3711  0.1765
  100SAPS  H14X10126   1.933   0.310   7.491 -2.6126  2.3712  2.3656
  100SAPS  H14Y10127   1.969   0.473   7.549 -0.5999 -1.6471  1.7690
  100SAPS  C31510128   2.135   0.361   7.473 -0.1967 -0.1536 -0.3847
  100SAPS  H15X10129   2.195   0.454   7.484 -0.7897  0.2773 -0.8055
  100SAPS  H15Y10130   2.175   0.305   7.386  1.4631  0.7624 -0.2293
  100SAPS  C31610131   2.175   0.278   7.594  0.4488 -1.0262  0.7418
  100SAPS  H16X10132   2.285   0.264   7.588  0.6710  1.0550 -0.2555
  100SAPS  H16Y10133   2.115   0.185   7.581 -2.7195  1.0650 -0.1646
  100SAPS  C31710134   2.153   0.346   7.730  0.7889  0.0947 -0.3289
  100SAPS  H17X10135   2.044   0.354   7.747  0.3759 -3.2224 -1.0277
  100SAPS  H17Y10136   2.181   0.453   7.734  2.0476 -0.2438  0.3406
  100SAPS  C31810137   2.219   0.256   7.837 -0.4200 -0.1593 -0.9549
  100SAPS  H18X10138   2.330   0.254   7.827 -0.0723 -0.6327  2.3469
  100SAPS  H18Y10139   2.187   0.153   7.813  1.1451  0.1352 -4.5368
  100SAPS  H18Z10140   2.183   0.297   7.934  0.0512 -2.1991  0.0955
  101OSM      N10141   3.772   2.667  10.130  0.0650 -0.3231 -0.0667
  101OSM    C1510142   3.752   2.637  10.275 -0.4156  0.2297  0.7815
  101OSM   H15A10143   3.664   2.577  10.292 -1.5947  2.0272  1.2605
  101OSM   H15B10144   3.732   2.725  10.336  0.4723  0.4114  0.8280
  101OSM   H15C10145   3.838   2.580  10.306 -0.2283 -0.5606 -1.1804
  101OSM    C1410146   3.785   2.527  10.068 -0.2276 -0.0379  0.1440
  101OSM   H14A10147   3.698   2.469  10.096  0.2370 -1.4709 -1.3196
  101OSM   H14B10148   3.863   2.466  10.110  1.3532  2.5552  1.1287
  101OSM   H14C10149   3.784   2.526   9.960 -1.6584 -0.1849  0.1486
  101OSM    C1310150   3.657   2.740  10.078  0.8695  0.3836  0.6704
  101OSM   H13A10151   3.564   2.684  10.076  0.4224  1.1888 -1.7858
  101OSM   H13B10152   3.690   2.744   9.976 -0.3807 -0.2329  0.2406
  101OSM   H13C10153   3.642   2.834  10.129  0.0094  0.4807  0.2384
  101OSM    C1210154   3.896   2.751  10.119  0.0551  0.7022 -0.0062
  101OSM   H12A10155   3.975   2.716  10.184 -1.7997  0.1948  2.0381
  101OSM   H12B10156   3.880   2.848  10.163  2.5479  0.1662  2.2379
  101OSM    C1110157   3.950   2.778   9.979  0.8553 -0.1348  0.0221
  101OSM   H11A10158   3.945   2.684   9.920  0.7951 -1.7274  2.4826
  101OSM   H11B10159   4.059   2.794   9.993  0.3974 -0.0305  3.9538
  101OSM      P10160   3.907   2.963   9.793 -0.2917  0.2459  0.3599
  101OSM    O1310161   3.783   3.005   9.721  0.4002  0.6549  0.4876
  101OSM    O1410162   3.996   3.071   9.838  0.8596 -0.5794  0.6604
  101OSM    O1110163   3.996   2.866   9.705 -0.4201 -0.1015  0.2179
  101OSM    O1210164   3.872   2.882   9.915  0.2532  0.1865 -0.4701
  101OSM    C1S10165   3.947   2.760   9.628  0.6197 -0.1470 -0.2804
  101OSM    H1S10166   3.836   2.754   9.621  0.5065 -0.3784  1.3806
  101OSM    H1T10167   3.982   2.670   9.683 -0.6399 -0.4410  0.0703
  101OSM     NF10168   3.970   2.636   9.419  0.6794 -0.4231 -0.1941
  101OSM    HNF10169   4.034   2.566   9.388 -0.5928 -1.6615 -0.0612
  101OSM    C2S10170   4.013   2.757   9.490 -0.6457 -0.3701  0.1143
  101OSM    H2S10171   3.974   2.842   9.430 -1.4717 -0.2386  0.8238
  101OSM    C3S10172   4.168   2.774   9.494 -0.5603 -0.5124 -0.4348
  101OSM    H3S10173   4.211   2.701   9.565  0.7560  0.2502 -0.4361
  101OSM     O310174   4.212   2.898   9.558  0.0641 -0.6644 -0.5575
  101OSM    HO310175   4.139   2.915   9.618  1.0803 -2.0135  1.1038
  101OSM    C4S10176   4.217   2.778   9.357 -0.3668  0.8843  0.8222
  101OSM    H4S10177   4.241   2.675   9.328  1.9728  1.3119  1.2046
  101OSM    C5S10178   4.221   2.878   9.262 -0.1043 -0.0744 -0.0461
  101OSM    H5S10179   4.190   2.974   9.306  0.3221  0.9567 -1.9478
  101OSM    C6S10180   4.265   2.874   9.119 -0.1183  0.3248  0.4702
  101OSM    H6S10181   4.359   2.930   9.099  0.1854 -1.0540 -2.1480
  101OSM    H6T10182   4.186   2.927   9.061 -0.4753  0.6641  1.2609
  101OSM    C7S10183   4.269   2.732   9.051  0.8452  0.8308 -0.4752
  101OSM    H7S10184   4.178   2.669   9.060  2.3469 -1.3915 -0.3681
  101OSM    H7T10185   4.347   2.678   9.107  0.0550  1.3923  1.2057
  101OSM    C8S10186   4.299   2.736   8.899  0.6922 -0.1726  0.0133
  101OSM    H8S10187   4.287   2.637   8.851 -0.9038 -0.1073  0.2393
  101OSM    H8T10188   4.404   2.760   8.871  0.2154 -0.4613 -2.0943
  101OSM    C9S10189   4.199   2.816   8.818  0.2170  0.2672  0.2776
  101OSM    H9S10190   4.228   2.802   8.711 -0.0051  0.6843  0.1615
  101OSM    H9T10191   4.219   2.924   8.836  1.0076 -0.0143  1.1545
  101OSM   C10S10192   4.055   2.770   8.828 -0.5962 -0.0329  0.3708
  101OSM   H10S10193   4.015   2.795   8.929  3.2530  0.4605  1.8444
  101OSM   H10T10194   4.039   2.660   8.820 -0.3437 -0.0715  0.3900
  101OSM   C11S10195   3.980   2.837   8.713 -0.1039 -0.3794  1.0376
  101OSM   H11S10196   4.038   2.816   8.621  0.2356  0.9648  0.9307
  101OSM   H11T10197   3.978   2.946   8.735 -1.8479 -0.1922  0.0448
  101OSM   C12S10198   3.838   2.790   8.699  0.2986  0.3194  0.5520
  101OSM   H12S10199   3.780   2.853   8.770 -0.3567 -0.3448  0.6112
  101OSM   H12T10200   3.830   2.682   8.724  1.8160  0.2610  0.7957
  101OSM   C13S10201   3.776   2.808   8.559 -0.3689  0.1453 -0.3621
  101OSM   H13S10202   3.802   2.913   8.535 -0.7307  0.6775  1.4625
  101OSM   H13T10203   3.665   2.807   8.564 -0.3960 -1.4812 -1.0101
  101OSM   C14S10204   3.831   2.718   8.451 -0.0756  0.0319  0.1633
  101OSM   H14S10205   3.803   2.611   8.463  0.9634 -0.3215 -0.5509
  101OSM   H14T10206   3.939   2.737   8.435 -0.0752 -1.5406 -2.0137
  101OSM   C15S10207   3.765   2.763   8.314  0.0128  0.0028 -0.1409
  101OSM   H15S10208   3.781   2.870   8.287  0.4637  0.1651  0.7388
  101OSM   H15T10209   3.655   2.772   8.327  0.0792  0.5537  0.0600
  101OSM   C16S10210   3.792   2.676   8.194 -0.4762  0.1713 -0.4200
  101OSM   H16S10211   3.723   2.697   8.109  1.8015 -0.3557 -2.4501
  101OSM   H16T10212   3.768   2.570   8.217 -0.5789  0.7973  2.5609
  101OSM   C17S10213   3.930   2.695   8.126  0.1168  0.9480 -0.5672
  101OSM   H17S10214   4.010   2.679   8.201 -1.3092 -1.1141  0.5939
  101OSM   H17T10215   3.935   2.804   8.105  0.8139  1.7826  3.4504
  101OSM   C18S10216   3.961   2.605   8.011  0.6591  0.3062 -0.3021
  101OSM   H18S10217   3.894   2.617   7.923 -0.5868  0.9417  0.7096
  101OSM   H18T10218   3.941   2.500   8.040 -2.1699 -0.0598 -3.2785
  101OSM   H18U10219   4.062   2.619   7.967  1.4037  3.0146  2.1218
  101OSM    C1F10220   3.844   2.627   9.364  0.7083  0.3556  0.6010
  101OSM     OF10221   3.762   2.720   9.379  0.1653 -0.3893 -0.0111
  101OSM    C2F10222   3.807   2.501   9.292 -0.5522  0.0623 -0.3078
  101OSM    H2F10223   3.701   2.498   9.260 -0.3378  0.4389 -1.0711
  101OSM    H2G10224   3.823   2.419   9.365  0.1778 -0.8598 -1.4952
  101OSM    C3F10225   3.891   2.473   9.165  0.1989  0.9397  0.0342
  101OSM    H3F10226   4.000   2.456   9.182 -0.0733 -0.7014  0.1210
  101OSM    H3G10227   3.887   2.558   9.092  1.7726  1.3737  0.4322
  101OSM    C4F10228   3.851   2.345   9.096 -0.3107 -0.2616 -0.8983
  101OSM    H4F10229   3.744   2.349   9.067 -0.4835 -1.4594 -0.4718
  101OSM    H4G10230   3.851   2.261   9.169  0.9345  2.7494  2.7238
  101OSM    C5F10231   3.932   2.298   8.972 -0.4118  0.1545 -0.3506
  101OSM    H5F10232   3.921   2.193   8.940 -0.2987 -0.1739  0.6769
  101OSM    H5G10233   4.039   2.307   9.000 -0.4048  1.3781 -0.7284
  101OSM    C6F10234   3.913   2.383   8.846 -0.7847  0.0639 -0.1901
  101OSM    H6F10235   3.919   2.489   8.878  0.7783  0.2146 -0.9076
  101OSM    H6G10236   3.811   2.371   8.803 -0.8033  0.0711 -0.1467
  101OSM    C7F10237   4.012   2.352   8.725 -0.2898 -0.6343 -0.6674
  101OSM    H7F10238   4.112   2.343   8.772 -1.5094  3.3193  3.0212
  101OSM    H7G10239   4.020   2.444   8.663  0.9463  0.5222  1.1662
  101OSM    C8F10240   3.979   2.229   8.640 -0.0348 -0.3508 -0.0201
  101OSM    H8F10241   3.960   2.150   8.716  1.1063  2.0083  2.7957
  101OSM    H8G10242   4.072   2.217   8.579  1.0922  0.4479  1.5284
  101OSM    C9F10243   3.859   2.231   8.550  0.7300  0.1044  0.5311
  101OSM    H9F10244   3.762   2.228   8.601  0.0592 -1.5796 -0.8037
  101OSM   C10F10245   3.861   2.266   8.418 -0.1680  0.3690  0.0444
  101OSM   H10F10246   3.774   2.240   8.356  0.2749 -2.8667  0.6914
  101OSM   C11F10247   3.988   2.283   8.339  0.2769 -0.0241 -0.4492
  101OSM   H11F10248   4.066   2.216   8.381  1.3509  1.4889  0.0148
  101OSM   H11G10249   4.029   2.386   8.338  3.0206 -1.0598  0.8489
  101OSM   C12F10250   3.989   2.223   8.189 -0.4890  0.3130 -0.0879
  101OSM   H12F10251   3.910   2.275   8.131 -0.7589 -1.3932 -1.2883
  101OSM   H12G10252   3.962   2.115   8.200  0.2328 -0.1895 -2.9623
  101OSM   C13F10253   4.119   2.230   8.113 -0.4947 -0.1867  0.1998
  101OSM   H13F10254   4.194   2.190   8.185  1.8371  1.2058 -1.4035
  101OSM   H13G10255   4.146   2.336   8.095 -1.3060 -0.2980 -1.8161
  101OSM   C14F10256   4.132   2.149   7.980 -0.1822  0.8702 -0.4586
  101OSM   H14F10257   4.091   2.197   7.889 -1.0188  0.6035 -0.2311
  101OSM   H14G10258   4.080   2.051   7.987 -0.1075  0.8989  0.6512
  101OSM   C15F10259   4.279   2.115   7.942  0.7796  0.0392 -0.7436
  101OSM   H15F10260   4.331   2.084   8.036 -1.9430 -0.4162  0.6457
  101OSM   H15G10261   4.342   2.200   7.908 -0.7273  1.5556  0.2310
  101OSM   C16F10262   4.300   2.004   7.832  0.4386 -0.3485  0.0300
  101OSM   H16F10263   4.239   2.020   7.740  1.7691  2.0848 -0.4627
  101OSM   H16G10264   4.252   1.916   7.881 -0.5189  0.6468  0.9183
  101OSM   C17F10265   4.451   1.968   7.802 -0.3206  0.3434 -0.4041
  101OSM   H17F10266   4.503   2.041   7.737  1.3856 -0.7215 -0.2682
  101OSM   H17G10267   4.439   1.871   7.750 -1.1657  1.2868 -2.0053
  101OSM   C18F10268   4.536   1.954   7.938 -0.2038 -0.4270 -0.2779
  101OSM   H18F10269   4.625   1.892   7.915  0.2244  0.3521 -0.7517
  101OSM   H18G10270   4.485   1.897   8.018  0.8203  0.3068  0.9149
  101OSM   H18H10271   4.561   2.056   7.973 -1.5639 -0.6606  1.4402
  102OSM      N10272   2.526   2.591   9.996  0.2821 -0.2906  0.0785
  102OSM    C1510273   2.438   2.532   9.894 -0.4051 -0.6706  0.5789
  102OSM   H15A10274   2.407   2.432   9.923 -0.7517 -0.9926 -0.8443
  102OSM   H15B10275   2.487   2.517   9.799 -4.5419 -0.3802 -1.7461
  102OSM   H15C10276   2.352   2.593   9.870  0.4513 -0.4694 -2.1547
  102OSM    C1410277   2.450   2.605  10.125 -0.5035  0.5219  0.5423
  102OSM   H14A10278   2.505   2.634  10.213  0.0816  0.8296  0.0757
  102OSM   H14B10279   2.396   2.518  10.158 -1.3982  1.2060  0.9216
  102OSM   H14C10280   2.367   2.675  10.121 -1.4430 -0.6187 -0.2174
  102OSM    C1310281   2.637   2.486  10.020 -1.1974 -0.6019 -0.0404
  102OSM   H13A10282   2.713   2.537  10.077  0.2904 -0.4099 -2.1230
  102OSM   H13B10283   2.683   2.463   9.925  0.2673  3.8160 -0.5312
  102OSM   H13C10284   2.606   2.398  10.074 -2.0405 -2.2345 -3.0395
  102OSM    C1210285   2.583   2.719   9.951 -0.3169  0.2651  0.1135
  102OSM   H12A10286   2.664   2.759  10.010  0.4477 -2.2172  0.8263
  102OSM   H12B10287   2.511   2.796   9.973  1.1802  1.7159  0.0194
  102OSM    C1110288   2.655   2.725   9.811  0.4065 -0.3642 -0.3956
  102OSM   H11A10289   2.681   2.833   9.811  1.6294 -0.5892  3.2303
  102OSM   H11B10290   2.575   2.692   9.742  1.5836  0.1428 -2.0459
  102OSM      P10291   2.813   2.580   9.676 -0.0172 -0.5617  0.0706
  102OSM    O1310292   2.961   2.582   9.665 -0.1410  0.0962  0.4962
  102OSM    O1410293   2.742   2.454   9.666 -0.4826 -0.1418  0.0546
  102OSM    O1110294   2.746   2.675   9.566 -0.2647 -0.1252  0.8282
  102OSM    O1210295   2.776   2.651   9.806 -0.1417  0.0726 -0.1374
  102OSM    C1S10296   2.812   2.791   9.524  0.3550  0.1622 -0.5352
  102OSM    H1S10297   2.904   2.813   9.581  0.2260 -0.3490 -0.1289
  102OSM    H1T10298   2.734   2.871   9.525  1.0577  0.8439  0.8598
  102OSM     NF10299   2.911   2.912   9.331  0.1949 -0.6315  0.3367
  102OSM    HNF10300   2.843   2.967   9.285  2.5658  3.2873  1.2987
  102OSM    C2S10301   2.865   2.778   9.378  0.2131 -0.2680  0.0886
  102OSM    H2S10302   2.946   2.701   9.375  0.0978 -0.3697 -0.5437
  102OSM    C3S10303   2.758   2.715   9.283 -0.3934 -0.0149  0.1662
  102OSM    H3S10304   2.663   2.772   9.282  1.0114  2.3652 -0.8832
  102OSM     O310305   2.721   2.580   9.320  0.2767 -0.5371 -1.2528
  102OSM    HO310306   2.747   2.576   9.412  0.7004  1.2486 -1.2766
  102OSM    C4S10307   2.804   2.715   9.138  0.2334  0.1472  0.1734
  102OSM    H4S10308   2.746   2.786   9.076 -0.0894  0.4593  0.8267
  102OSM    C5S10309   2.891   2.636   9.071 -0.4483  0.8105  0.1991
  102OSM    H5S10310   2.954   2.565   9.127 -0.1318 -0.8786 -2.2370
  102OSM    C6S10311   2.935   2.635   8.923  0.0291 -0.1329  0.0701
  102OSM    H6S10312   2.889   2.548   8.871 -0.9159  0.3588  0.0575
  102OSM    H6T10313   3.045   2.621   8.921  0.2178  1.3977 -1.5497
  102OSM    C7S10314   2.913   2.770   8.851  0.5123  0.4578 -0.2660
  102OSM    H7S10315   2.960   2.853   8.907  0.3490 -0.4183  1.1800
  102OSM    H7T10316   2.803   2.785   8.853  0.5550  0.6238  2.4602
  102OSM    C8S10317   2.964   2.764   8.708 -0.1885  0.1355 -0.6263
  102OSM    H8S10318   3.073   2.785   8.705 -0.1065  0.1007  1.2445
  102OSM    H8T10319   2.913   2.842   8.649  0.0860 -0.3315 -1.4785
  102OSM    C9S10320   2.933   2.623   8.640 -0.1724 -0.3324 -0.4087
  102OSM    H9S10321   2.823   2.620   8.621 -0.3239  0.0929  0.3709
  102OSM    H9T10322   2.974   2.534   8.693  0.7315 -0.3199 -1.0829
  102OSM   C10S10323   2.995   2.624   8.496  0.0939  0.5381 -0.8819
  102OSM   H10S10324   3.091   2.679   8.504 -0.7411  1.9789 -0.4979
  102OSM   H10T10325   2.929   2.685   8.431 -2.1314 -1.8203 -0.9109
  102OSM   C11S10326   3.003   2.486   8.445  0.6389  0.2996 -0.3865
  102OSM   H11S10327   2.902   2.443   8.464 -0.6802  3.3122 -0.1840
  102OSM   H11T10328   3.059   2.430   8.523 -1.3534 -0.2589  0.6769
  102OSM   C12S10329   3.063   2.465   8.308 -0.2241 -0.2796  0.6986
  102OSM   H12S10330   3.092   2.359   8.293  0.5669  0.2103 -1.2958
  102OSM   H12T10331   3.148   2.535   8.292 -0.1045  0.0087  2.4473
  102OSM   C13S10332   2.960   2.508   8.209  0.5128  0.2927  0.7066
  102OSM   H13S10333   2.945   2.618   8.199 -0.2689  0.2036  0.8648
  102OSM   H13T10334   2.867   2.450   8.228  0.5441  0.1326  0.3754
  102OSM   C14S10335   3.003   2.458   8.074  0.4949  0.1902 -0.3342
  102OSM   H14S10336   3.024   2.350   8.087  1.9280  0.1148 -3.0289
  102OSM   H14T10337   3.097   2.502   8.034 -0.9834  1.8668 -2.0897
  102OSM   C15S10338   2.891   2.480   7.976  0.0907 -0.0992  0.7199
  102OSM   H15S10339   2.791   2.455   8.016  0.8586 -2.0648  1.5070
  102OSM   H15T10340   2.922   2.410   7.896 -0.5172 -0.1269  0.5099
  102OSM   C16S10341   2.885   2.630   7.933 -0.2785  0.5018  0.5538
  102OSM   H16S10342   2.985   2.678   7.941 -0.0466 -0.1008  1.2617
  102OSM   H16T10343   2.818   2.695   7.993 -0.9304 -0.2370  0.6292
  102OSM   C17S10344   2.847   2.645   7.790  0.6432 -0.0930 -0.5388
  102OSM   H17S10345   2.925   2.589   7.735 -0.3375 -0.9573 -1.0570
  102OSM   H17T10346   2.840   2.749   7.750  2.0967 -0.4717 -1.8340
  102OSM   C18S10347   2.716   2.575   7.759  0.6440 -0.0929 -0.4172
  102OSM   H18S10348   2.711   2.469   7.794 -1.5857  0.5043  1.1993
  102OSM   H18T10349   2.704   2.579   7.649 -0.1543 -0.4334 -0.3452
  102OSM   H18U10350   2.635   2.634   7.806  0.5269  0.1699 -0.9535
  102OSM    C1F10351   3.021   2.980   9.359 -0.1166  0.9998 -0.8592
  102OSM     OF10352   3.105   2.935   9.439 -0.2081  0.1420  0.0466
  102OSM    C2F10353   3.042   3.105   9.292  0.0220  0.0137  0.2060
  102OSM    H2F10354   3.153   3.114   9.291 -0.0508  1.0097 -0.1090
  102OSM    H2G10355   3.012   3.193   9.352  0.9960  1.4576 -1.3742
  102OSM    C3F10356   3.004   3.107   9.145  0.8842  0.2930  0.1451
  102OSM    H3F10357   2.895   3.123   9.134  0.4019 -1.7278  1.6597
  102OSM    H3G10358   3.026   3.012   9.093  0.4032 -0.9134  2.1037
  102OSM    C4F10359   3.066   3.222   9.063  0.8123 -0.0630  0.2638
  102OSM    H4F10360   3.167   3.195   9.025  1.1964  1.4987  0.1416
  102OSM    H4G10361   3.075   3.303   9.138  3.2530  0.4893 -0.5823
  102OSM    C5F10362   2.988   3.284   8.940  0.1357 -0.5898  0.9157
  102OSM    H5F10363   3.042   3.379   8.922 -1.1682 -0.0549 -0.1838
  102OSM    H5G10364   2.880   3.307   8.952  0.1157 -0.2077  0.0322
  102OSM    C6F10365   3.023   3.198   8.819 -0.4912 -0.5529  0.4451
  102OSM    H6F10366   3.001   3.089   8.822 -0.3450 -0.6620 -1.6845
  102OSM    H6G10367   3.128   3.225   8.795 -0.5542 -1.3429 -0.7808
  102OSM    C7F10368   2.947   3.237   8.686 -0.3012 -0.4680  0.5279
  102OSM    H7F10369   2.960   3.347   8.675 -0.1955 -0.6351 -1.1597
  102OSM    H7G10370   2.839   3.219   8.705  0.0024  0.5737  3.4000
  102OSM    C8F10371   2.992   3.162   8.550  0.0088  0.2340 -0.1615
  102OSM    H8F10372   2.908   3.171   8.478 -1.3167 -1.0571  1.2021
  102OSM    H8G10373   2.998   3.054   8.575  0.2412  0.1916 -0.3938
  102OSM    C9F10374   3.118   3.230   8.494 -0.4953 -0.2662 -0.1198
  102OSM    H9F10375   3.102   3.328   8.446  0.1317  0.3602  0.9372
  102OSM   C10F10376   3.241   3.187   8.489  0.0211  0.1760  0.0547
  102OSM   H10F10377   3.318   3.252   8.446  0.2510 -0.7833 -1.0169
  102OSM   C11F10378   3.283   3.051   8.540  0.1494  0.2595  0.4556
  102OSM   H11F10379   3.250   3.060   8.645  1.4847  0.9158  0.8289
  102OSM   H11G10380   3.394   3.047   8.539  0.1611  0.6503 -0.2605
  102OSM   C12F10381   3.243   2.922   8.473  0.3713 -0.4987 -0.5215
  102OSM   H12F10382   3.139   2.936   8.436  0.5979  2.1729 -0.2315
  102OSM   H12G10383   3.251   2.827   8.529 -0.5206  0.4505  1.2617
  102OSM   C13F10384   3.328   2.890   8.347  0.3145 -0.0785 -0.8832
  102OSM   H13F10385   3.436   2.868   8.367  0.4307 -0.3958 -1.8102
  102OSM   H13G10386   3.310   2.978   8.282  0.7713  0.6583 -0.0327
  102OSM   C14F10387   3.281   2.763   8.268 -0.6729  0.4483 -0.1198
  102OSM   H14F10388   3.170   2.771   8.261 -0.7262 -0.3769 -0.3037
  102OSM   H14G10389   3.307   2.675   8.330 -0.3879 -1.3248 -2.6635
  102OSM   C15F10390   3.355   2.750   8.135 -0.2792 -0.0654 -0.4169
  102OSM   H15F10391   3.366   2.643   8.107 -2.8349 -0.3323 -0.5520
  102OSM   H15G10392   3.459   2.785   8.155  0.9098 -3.2191 -0.8139
  102OSM   C16F10393   3.294   2.825   8.016 -0.5400  0.3296 -0.4907
  102OSM   H16F10394   3.326   2.932   8.016  3.8867 -0.8680 -0.1512
  102OSM   H16G10395   3.184   2.820   8.025 -0.5184 -0.0447 -0.4416
  102OSM   C17F10396   3.342   2.768   7.886 -1.1552  1.1107  0.4623
  102OSM   H17F10397   3.282   2.815   7.805 -0.5659 -0.4152 -0.8862
  102OSM   H17G10398   3.301   2.666   7.872 -1.6328  1.5737 -1.8423
  102OSM   C18F10399   3.486   2.789   7.850  0.1920  0.0754  0.1224
  102OSM   H18F10400   3.488   2.755   7.744  2.0513  0.5070 -0.0139
  102OSM   H18G10401   3.562   2.737   7.913  1.1511 -0.0613 -1.1227
  102OSM   H18H10402   3.516   2.896   7.837 -0.6494  0.1714 -1.0829
  103OSM      N10403   2.889   5.194  10.072 -0.4703 -0.4943  0.1505
  103OSM    C1510404   2.950   5.059  10.094  0.1535  0.6140  0.9589
  103OSM   H15A10405   3.044   5.051  10.041 -0.0657  0.7150  0.5500
  103OSM   H15B10406   2.892   4.988  10.036  0.2865 -1.7984  3.6855
  103OSM   H15C10407   2.953   5.036  10.199 -1.0155 -0.6433  0.7340
  103OSM    C1410408   2.760   5.201  10.148 -0.1657 -0.3520 -0.1227
  103OSM   H14A10409   2.780   5.191  10.254  0.7592  1.4219 -0.1250
  103OSM   H14B10410   2.700   5.119  10.111  1.4755 -1.4690 -0.3397
  103OSM   H14C10411   2.712   5.294  10.123  0.9535 -0.2288 -1.8311
  103OSM    C1310412   2.986   5.304  10.119  0.0253  0.1971  0.3901
  103OSM   H13A10413   3.023   5.288  10.220 -0.8425  1.9945  1.0057
  103OSM   H13B10414   2.934   5.398  10.116 -2.0087 -0.9043  0.1601
  103OSM   H13C10415   3.079   5.309  10.065  1.0276 -1.2718  1.9310
  103OSM    C1210416   2.869   5.214   9.921 -0.4164 -0.4728 -0.1347
  103OSM   H12A10417   2.967   5.216   9.875 -0.0180  0.8864  0.7097
  103OSM   H12B10418   2.845   5.316   9.894  0.0989 -0.7776 -1.8038
  103OSM    C1110419   2.777   5.120   9.831  0.1401  0.5619  0.3360
  103OSM   H11A10420   2.780   5.166   9.730 -1.0129 -1.6842 -0.7572
  103OSM   H11B10421   2.676   5.145   9.870  0.6345  2.0082  0.6931
  103OSM      P10422   2.926   4.930   9.743  0.3501  0.3581  0.0221
  103OSM    O1310423   3.050   4.989   9.807  0.2749  0.2317  0.3025
  103OSM    O1410424   2.920   4.781   9.713  0.1994 -0.5134 -0.2586
  103OSM    O1110425   2.915   5.001   9.611  0.5526  0.4186 -0.0030
  103OSM    O1210426   2.807   4.976   9.843 -0.1689  0.4239  0.4631
  103OSM    C1S10427   2.795   5.000   9.532 -0.3306  1.3506 -0.5457
  103OSM    H1S10428   2.705   4.987   9.595 -0.6113 -0.7389 -1.3179
  103OSM    H1T10429   2.799   4.909   9.467  1.1692  0.0757  1.2725
  103OSM     NF10430   2.657   5.136   9.366 -0.2078 -0.6829  0.3985
  103OSM    HNF10431   2.668   5.167   9.272 -0.1952  0.8269  0.8817
  103OSM    C2S10432   2.779   5.131   9.452  0.1167  0.0363 -0.2926
  103OSM    H2S10433   2.774   5.213   9.527 -0.7227  0.5180 -0.8635
  103OSM    C3S10434   2.903   5.152   9.362  0.1882  0.4424  0.4102
  103OSM    H3S10435   2.905   5.064   9.294 -3.3827  0.1141  0.6362
  103OSM     O310436   3.034   5.153   9.421 -0.0296  0.2769 -0.3798
  103OSM    HO310437   3.026   5.136   9.515 -0.4259 -1.4786 -0.7256
  103OSM    C4S10438   2.898   5.281   9.283  0.4245  0.7979 -0.1257
  103OSM    H4S10439   2.864   5.371   9.337  0.2670 -0.0550  1.2265
  103OSM    C5S10440   2.926   5.288   9.150  0.0839 -0.1572 -0.4256
  103OSM    H5S10441   2.959   5.199   9.095  2.8277  0.7536 -0.2974
  103OSM    C6S10442   2.917   5.423   9.076  0.7818 -0.5333  0.6453
  103OSM    H6S10443   3.017   5.468   9.058 -0.3417  0.7418 -2.8894
  103OSM    H6T10444   2.854   5.499   9.128 -0.3002  0.3411 -1.8754
  103OSM    C7S10445   2.844   5.398   8.942 -0.1907 -0.0229  0.2016
  103OSM    H7S10446   2.745   5.352   8.964 -0.3505  0.2367  0.0285
  103OSM    H7T10447   2.905   5.318   8.895 -2.5067 -0.4000 -2.3129
  103OSM    C8S10448   2.838   5.516   8.851  0.2515 -0.0817 -0.3974
  103OSM    H8S10449   2.934   5.563   8.823  0.4818 -0.7426 -0.7304
  103OSM    H8T10450   2.777   5.592   8.904 -0.2186 -0.4885 -0.3506
  103OSM    C9S10451   2.777   5.472   8.718 -0.4685  0.3946 -0.6174
  103OSM    H9S10452   2.689   5.403   8.715  0.2906 -0.5842 -0.8523
  103OSM    H9T10453   2.847   5.415   8.654 -0.7932 -0.9723  0.2170
  103OSM   C10S10454   2.727   5.599   8.653  0.0988 -0.1494  0.0732
  103OSM   H10S10455   2.796   5.685   8.657  0.0270 -0.1646  1.9817
  103OSM   H10T10456   2.644   5.625   8.721  0.0606 -2.0162  0.7851
  103OSM   C11S10457   2.673   5.581   8.509 -0.2220 -0.0547  0.2314
  103OSM   H11S10458   2.753   5.604   8.436 -0.7468  1.5581  0.1364
  103OSM   H11T10459   2.591   5.653   8.492 -0.2242  0.0481  0.6789
  103OSM   C12S10460   2.604   5.447   8.477 -0.0026  0.6783 -0.3672
  103OSM   H12S10461   2.515   5.418   8.536  0.7633 -1.1958 -0.0946
  103OSM   H12T10462   2.669   5.358   8.484  0.1492  0.7607 -0.7100
  103OSM   C13S10463   2.563   5.422   8.329  0.5222 -0.1487 -0.2345
  103OSM   H13S10464   2.638   5.467   8.261  0.9139  1.4302  1.2023
  103OSM   H13T10465   2.470   5.481   8.320  1.5024  1.6297  1.0697
  103OSM   C14S10466   2.528   5.279   8.302 -0.2630 -0.2041  0.4087
  103OSM   H14S10467   2.453   5.242   8.376 -0.7450  0.4620  0.2579
  103OSM   H14T10468   2.613   5.208   8.311 -0.6224 -1.0434 -2.2403
  103OSM   C15S10469   2.471   5.246   8.156  0.0538  0.1968  0.4183
  103OSM   H15S10470   2.379   5.309   8.159  0.7380  1.2867 -1.1499
  103OSM   H15T10471   2.438   5.140   8.149  0.0269  0.1979  0.5223
  103OSM   C16S10472   2.564   5.283   8.040  0.0650 -0.1383 -0.3590
  103OSM   H16S10473   2.662   5.232   8.051 -0.1259  0.0041  2.2251
  103OSM   H16T10474   2.596   5.387   8.061 -3.2472  1.1572 -1.4075
  103OSM   C17S10475   2.501   5.262   7.896 -0.2491 -1.3789 -1.0826
  103OSM   H17S10476   2.587   5.251   7.827  1.5028  0.2506  0.7697
  103OSM   H17T10477   2.448   5.351   7.855  0.3153  0.2585  1.5571
  103OSM   C18S10478   2.413   5.136   7.874  0.0984 -0.2107 -0.9711
  103OSM   H18S10479   2.475   5.043   7.873 -0.0119 -0.3181  1.0307
  103OSM   H18T10480   2.364   5.146   7.774 -3.3616  0.5596  0.7417
  103OSM   H18U10481   2.335   5.122   7.951  2.6663  0.4496  1.8511
  103OSM    C1F10482   2.534   5.144   9.416 -0.4683 -0.0417 -0.0768
  103OSM     OF10483   2.518   5.137   9.539 -0.2632  0.0519 -0.1492
  103OSM    C2F10484   2.420   5.164   9.317 -0.0058  0.8774 -0.2734
  103OSM    H2F10485   2.341   5.225   9.365 -2.7437 -1.0787 -2.0987
  103OSM    H2G10486   2.367   5.068   9.296  1.5800  0.5762 -3.1816
  103OSM    C3F10487   2.446   5.230   9.176  0.0914 -0.6083 -0.2445
  103OSM    H3F10488   2.490   5.330   9.198 -1.1757 -0.1683  0.3246
  103OSM    H3G10489   2.342   5.246   9.142  0.4338  1.3149 -0.4923
  103OSM    C4F10490   2.522   5.143   9.074 -0.3231 -0.4948 -0.0622
  103OSM    H4F10491   2.484   5.038   9.081 -4.4356  0.6320 -3.5730
  103OSM    H4G10492   2.627   5.135   9.108 -0.1549  2.0771  0.1276
  103OSM    C5F10493   2.511   5.197   8.926  0.2601  0.4748  0.2826
  103OSM    H5F10494   2.537   5.304   8.928 -2.3827  1.1513  1.1854
  103OSM    H5G10495   2.403   5.190   8.899  0.3192 -1.2956  0.3942
  103OSM    C6F10496   2.580   5.118   8.811  0.1864  0.2830  0.5609
  103OSM    H6F10497   2.671   5.077   8.860  1.2016  1.6691 -0.1502
  103OSM    H6G10498   2.622   5.182   8.731  2.1355 -1.6938 -0.0358
  103OSM    C7F10499   2.492   5.005   8.748  0.7831 -0.3138 -0.4050
  103OSM    H7F10500   2.404   5.052   8.699  0.0562 -0.3031  0.9039
  103OSM    H7G10501   2.452   4.943   8.831  0.3281 -0.1276 -0.4851
  103OSM    C8F10502   2.571   4.915   8.651  0.2784 -0.0000  0.4394
  103OSM    H8F10503   2.674   4.895   8.688  0.8221 -0.7858 -1.3931
  103OSM    H8G10504   2.577   4.979   8.560  0.2063  0.6697  0.9090
  103OSM    C9F10505   2.512   4.784   8.608 -0.0420  0.2487  0.2372
  103OSM    H9F10506   2.467   4.728   8.691  2.1567  1.3833  2.2664
  103OSM   C10F10507   2.487   4.740   8.484 -0.4738  0.5273  0.7921
  103OSM   H10F10508   2.446   4.638   8.476 -0.1840  0.5329 -1.2421
  103OSM   C11F10509   2.513   4.819   8.356  0.3697  0.5002  0.2257
  103OSM   H11F10510   2.558   4.919   8.369  0.9269  0.2073  0.5833
  103OSM   H11G10511   2.411   4.825   8.312  0.3639 -1.6009 -0.1030
  103OSM   C12F10512   2.613   4.758   8.262  0.3883 -1.0965 -0.2677
  103OSM   H12F10513   2.583   4.653   8.243  1.4013 -1.1633 -1.5818
  103OSM   H12G10514   2.710   4.754   8.316  0.6113 -0.8175 -0.6417
  103OSM   C13F10515   2.631   4.846   8.137  0.0079  0.2024 -0.8122
  103OSM   H13F10516   2.530   4.861   8.093 -1.0919 -2.1704  0.7694
  103OSM   H13G10517   2.660   4.949   8.167  0.0926 -0.2310  0.6772
  103OSM   C14F10518   2.733   4.788   8.038  0.2359 -0.1915 -0.7583
  103OSM   H14F10519   2.827   4.772   8.095 -0.1410 -1.2227 -0.4139
  103OSM   H14G10520   2.749   4.863   7.958  1.0067 -1.1584 -1.5126
  103OSM   C15F10521   2.692   4.658   7.969 -0.4490 -0.0530 -0.0109
  103OSM   H15F10522   2.683   4.581   8.048 -0.6115  2.1045  2.1267
  103OSM   H15G10523   2.777   4.625   7.905  0.4889 -1.4641  1.9266
  103OSM   C16F10524   2.552   4.663   7.896 -0.6164  0.1995  0.8078
  103OSM   H16F10525   2.550   4.746   7.823  0.2327  0.8063  1.4549
  103OSM   H16G10526   2.467   4.682   7.965 -1.3343  0.3195 -0.0957
  103OSM   C17F10527   2.527   4.528   7.829 -0.2554  0.5305  0.3215
  103OSM   H17F10528   2.514   4.449   7.906  0.7261 -1.8898 -1.9175
  103OSM   H17G10529   2.619   4.508   7.769 -0.2836 -0.1914  0.5080
  103OSM   C18F10530   2.402   4.527   7.741  0.1259  0.3593 -0.7272
  103OSM   H18F10531   2.316   4.567   7.799 -1.2722  0.7184 -3.0150
  103OSM   H18G10532   2.395   4.419   7.714  0.3544  0.1360  0.0931
  103OSM   H18H10533   2.406   4.596   7.654 -3.0390  0.5631 -0.7699
  104OSM      N10534   1.624   4.315   9.918 -0.3059 -0.3848 -0.0502
  104OSM    C1510535   1.549   4.213   9.990  0.8092  0.2079  0.0328
  104OSM   H15A10536   1.537   4.241  10.093 -0.6064  0.1860 -0.1162
  104OSM   H15B10537   1.597   4.116   9.988  2.5371  1.0787 -2.0809
  104OSM   H15C10538   1.452   4.207   9.942  1.7536 -0.1347 -1.8584
  104OSM    C1410539   1.544   4.439   9.921 -0.1326  0.5905  0.4896
  104OSM   H14A10540   1.471   4.436   9.841 -0.0944 -3.9327  0.4790
  104OSM   H14B10541   1.605   4.527   9.910 -0.5196  1.0594  1.9389
  104OSM   H14C10542   1.476   4.453  10.004  0.7126 -0.0908  1.3041
  104OSM    C1310543   1.752   4.331   9.998 -0.0456  0.7650  0.3910
  104OSM   H13A10544   1.821   4.389   9.938 -2.2624  2.1863 -0.8440
  104OSM   H13B10545   1.799   4.234  10.009 -0.0546  0.6237 -0.7071
  104OSM   H13C10546   1.744   4.393  10.086 -2.6730  1.0555 -0.0094
  104OSM    C1210547   1.655   4.289   9.772  0.5495 -0.4216  0.5005
  104OSM   H12A10548   1.710   4.377   9.740 -1.3546  1.5026  2.3638
  104OSM   H12B10549   1.569   4.284   9.707 -0.9143  2.3373  2.1345
  104OSM    C1110550   1.750   4.168   9.740  0.7028  0.2966  0.2286
  104OSM   H11A10551   1.743   4.136   9.634 -1.7660  1.0329  0.1329
  104OSM   H11B10552   1.715   4.085   9.804 -0.6721 -0.0564 -0.9262
  104OSM      P10553   1.958   4.312   9.684 -0.2082  0.1880 -0.0333
  104OSM    O1310554   1.884   4.442   9.706  0.2749  0.2503  0.4490
  104OSM    O1410555   2.102   4.317   9.717  0.1248  0.1576 -0.4884
  104OSM    O1110556   1.934   4.249   9.540 -0.1681 -0.0788  0.2689
  104OSM    O1210557   1.881   4.211   9.776  0.3666 -0.0336  0.5707
  104OSM    C1S10558   1.998   4.314   9.429 -0.6797 -0.0406 -0.1262
  104OSM    H1S10559   2.097   4.361   9.446 -1.1188  0.9873 -0.3928
  104OSM    H1T10560   1.930   4.396   9.400 -1.3580 -0.9871 -1.2716
  104OSM     NF10561   2.079   4.291   9.205  0.0367  0.2806 -0.0031
  104OSM    HNF10562   2.027   4.330   9.129  0.3961 -0.7712 -0.7951
  104OSM    C2S10563   2.007   4.218   9.308 -0.5646 -0.3577  0.3873
  104OSM    H2S10564   2.070   4.136   9.349  1.8195  1.4941  0.5147
  104OSM    C3S10565   1.876   4.156   9.264  0.3070 -0.7000  0.2792
  104OSM    H3S10566   1.815   4.230   9.207 -1.8424 -1.8943  0.9527
  104OSM     O310567   1.802   4.098   9.369 -0.6054 -0.6887 -0.1953
  104OSM    HO310568   1.830   4.136   9.453 -2.6137 -0.2918  0.3227
  104OSM    C4S10569   1.907   4.043   9.169 -0.2559 -0.8830 -0.4710
  104OSM    H4S10570   1.967   3.965   9.219 -0.0738  0.2367  1.0843
  104OSM    C5S10571   1.879   4.030   9.037 -0.1515 -0.3317  0.1036
  104OSM    H5S10572   1.838   4.119   8.987  1.1605 -0.6265 -1.5910
  104OSM    C6S10573   1.916   3.915   8.952  0.5443  0.4160 -0.2790
  104OSM    H6S10574   1.841   3.912   8.871  0.9818 -1.5472 -0.6392
  104OSM    H6T10575   1.913   3.829   9.021 -1.3561  0.3858 -0.3863
  104OSM    C7S10576   2.052   3.934   8.881 -0.2275 -0.4500  0.7327
  104OSM    H7S10577   2.132   3.936   8.958  1.8762 -0.4090 -1.3653
  104OSM    H7T10578   2.069   4.033   8.833 -0.5439 -1.2190 -0.9940
  104OSM    C8S10579   2.090   3.829   8.777  0.4326  0.4573 -0.2218
  104OSM    H8S10580   2.037   3.733   8.790  0.1197  0.8738  1.8099
  104OSM    H8T10581   2.199   3.809   8.782  0.1099 -1.4597 -0.5448
  104OSM    C9S10582   2.046   3.882   8.645 -0.3128  0.1043  0.4938
  104OSM    H9S10583   2.117   3.963   8.618 -2.1350  1.7950  0.6770
  104OSM    H9T10584   1.944   3.926   8.641 -0.2729  0.0528 -2.0034
  104OSM   C10S10585   2.053   3.767   8.541  0.5639 -0.1633 -0.1524
  104OSM   H10S10586   1.986   3.683   8.571 -0.6960  0.8666 -0.0047
  104OSM   H10T10587   2.155   3.724   8.536 -0.7065 -3.0508 -2.4326
  104OSM   C11S10588   2.022   3.806   8.393  0.0879 -0.0512  0.4423
  104OSM   H11S10589   2.088   3.890   8.365 -1.2768  1.0475  0.4490
  104OSM   H11T10590   1.916   3.840   8.385  0.3130  0.7050  0.6372
  104OSM   C12S10591   2.040   3.676   8.325 -0.3009  0.9411  0.5649
  104OSM   H12S10592   1.958   3.612   8.366 -0.2533  1.1508  1.0000
  104OSM   H12T10593   2.132   3.618   8.349  1.4923  3.8308  0.8396
  104OSM   C13S10594   2.032   3.679   8.172  0.4500  0.9787 -0.5699
  104OSM   H13S10595   2.058   3.583   8.121  0.5424  1.0061 -0.5751
  104OSM   H13T10596   2.116   3.746   8.146  1.5650 -0.1916 -0.0530
  104OSM   C14S10597   1.894   3.728   8.113 -0.2980 -0.5266 -0.2113
  104OSM   H14S10598   1.861   3.825   8.156 -0.3374 -0.9665  0.7679
  104OSM   H14T10599   1.814   3.662   8.152 -0.5095 -0.9718 -1.3642
  104OSM   C15S10600   1.893   3.743   7.960  0.1825  0.1249 -0.5329
  104OSM   H15S10601   1.948   3.656   7.918  2.6885  1.6014 -0.4404
  104OSM   H15T10602   1.952   3.829   7.922  1.3228 -0.8865 -1.1131
  104OSM   C16S10603   1.751   3.750   7.910 -0.1224 -0.1347 -0.4836
  104OSM   H16S10604   1.708   3.846   7.946 -1.9623 -0.1612 -2.4962
  104OSM   H16T10605   1.683   3.673   7.951 -1.5992  2.1045  1.4118
  104OSM   C17S10606   1.734   3.751   7.760 -0.9267 -0.1051 -0.4367
  104OSM   H17S10607   1.624   3.762   7.750 -0.7606  1.0781 -0.9919
  104OSM   H17T10608   1.763   3.650   7.723 -1.8090  0.1476 -1.8382
  104OSM   C18S10609   1.797   3.857   7.681  0.5567 -0.4708  0.0346
  104OSM   H18S10610   1.766   3.957   7.719 -2.1660 -0.2670 -2.6021
  104OSM   H18T10611   1.763   3.859   7.575  0.0868  0.8594  0.2041
  104OSM   H18U10612   1.908   3.858   7.672  0.3050 -0.3945 -3.8333
  104OSM    C1F10613   2.211   4.320   9.215 -0.4691  0.1243 -0.4926
  104OSM     OF10614   2.279   4.267   9.301  0.3551 -0.3753 -0.1654
  104OSM    C2F10615   2.265   4.419   9.119  0.1442 -0.0831  0.9394
  104OSM    H2F10616   2.356   4.471   9.154  0.1731  2.1619 -2.2831
  104OSM    H2G10617   2.196   4.505   9.107  1.2532  0.4225 -2.0896
  104OSM    C3F10618   2.307   4.358   8.984  0.2119  0.1374 -0.5866
  104OSM    H3F10619   2.351   4.260   9.012 -0.0057 -0.1676 -1.2910
  104OSM    H3G10620   2.391   4.422   8.949 -0.3658  1.7239  0.8632
  104OSM    C4F10621   2.198   4.337   8.883  0.0694 -0.4817  0.4433
  104OSM    H4F10622   2.120   4.416   8.891  2.5315  2.0431  0.1309
  104OSM    H4G10623   2.159   4.236   8.907  4.0793 -1.9416  1.0747
  104OSM    C5F10624   2.250   4.333   8.730 -0.3230  0.4244  0.7972
  104OSM    H5F10625   2.323   4.250   8.736 -0.2451  0.2776 -1.5376
  104OSM    H5G10626   2.307   4.426   8.706  0.4023 -0.0643  0.5998
  104OSM    C6F10627   2.144   4.288   8.631 -0.6343  0.8467  0.6648
  104OSM    H6F10628   2.054   4.353   8.636 -1.9133 -0.9430  0.9640
  104OSM    H6G10629   2.114   4.182   8.644  0.1086  0.6337  0.6571
  104OSM    C7F10630   2.181   4.301   8.477  0.6225 -0.0001 -0.6306
  104OSM    H7F10631   2.213   4.407   8.465  2.7946 -0.6528 -0.8091
  104OSM    H7G10632   2.098   4.281   8.406  0.6828 -0.4385 -0.5762
  104OSM    C8F10633   2.299   4.206   8.442  0.6045 -0.0595  0.5081
  104OSM    H8F10634   2.278   4.105   8.484  0.6780 -0.6967 -0.9550
  104OSM    H8G10635   2.398   4.231   8.484  1.4312  1.2304 -2.1255
  104OSM    C9F10636   2.326   4.172   8.299 -0.0133  0.1986  0.3063
  104OSM    H9F10637   2.254   4.110   8.244  1.6033 -0.7180 -0.8255
  104OSM   C10F10638   2.437   4.203   8.232  0.3573 -0.0073  0.6892
  104OSM   H10F10639   2.442   4.169   8.128  1.4843  0.2309  0.6522
  104OSM   C11F10640   2.546   4.290   8.284 -0.2466  0.3483 -0.2261
  104OSM   H11F10641   2.594   4.257   8.379  0.3672  3.7050  0.7291
  104OSM   H11G10642   2.511   4.393   8.310  0.5416  1.0363 -1.8232
  104OSM   C12F10643   2.665   4.308   8.180  0.6713 -0.6941 -0.0465
  104OSM   H12F10644   2.743   4.372   8.228 -1.2795  0.8094  1.1750
  104OSM   H12G10645   2.638   4.355   8.084 -2.3893 -0.4880  0.8776
  104OSM   C13F10646   2.731   4.171   8.164  1.2705 -0.0299 -0.0416
  104OSM   H13F10647   2.652   4.119   8.105 -0.3578  2.5703 -0.2550
  104OSM   H13G10648   2.747   4.117   8.259  1.2857 -0.2768 -0.1856
  104OSM   C14F10649   2.867   4.180   8.078  0.2920  0.0951 -0.7632
  104OSM   H14F10650   2.928   4.088   8.078 -0.1413 -0.1965 -0.1353
  104OSM   H14G10651   2.935   4.245   8.137  0.8237 -0.2195 -1.0255
  104OSM   C15F10652   2.856   4.228   7.930  0.9297  0.4414 -0.6319
  104OSM   H15F10653   2.792   4.318   7.921  0.8984  0.5185  0.3150
  104OSM   H15G10654   2.802   4.144   7.879  1.5285  0.1379 -0.7670
  104OSM   C16F10655   2.989   4.238   7.855 -0.4763 -0.3995  0.2497
  104OSM   H16F10656   3.049   4.145   7.867 -1.0968 -0.7817  0.4789
  104OSM   H16G10657   3.029   4.327   7.906 -1.2591  0.3414 -0.3948
  104OSM   C17F10658   2.966   4.265   7.710 -0.1559  0.0550  0.2204
  104OSM   H17F10659   2.915   4.183   7.656  2.7289 -1.2069 -0.6575
  104OSM   H17G10660   3.062   4.267   7.655 -0.8841  0.1714 -1.0558
  104OSM   C18F10661   2.902   4.397   7.685  0.2769 -0.3379 -0.6056
  104OSM   H18F10662   2.805   4.402   7.740 -0.5436 -2.0790 -1.8368
  104OSM   H18G10663   2.885   4.412   7.576 -0.5638 -2.3990 -0.7893
  104OSM   H18H10664   2.972   4.475   7.723 -0.6275 -0.1146  0.6341
  105OSM      N10665   2.094   3.849   9.829 -0.1727  0.0788  0.4139
  105OSM    C1510666   2.124   3.772   9.951  1.1009 -0.3129 -1.3336
  105OSM   H15A10667   2.096   3.814  10.047 -1.2610 -0.8598 -1.7686
  105OSM   H15B10668   2.229   3.746   9.947  1.3335  0.7351 -1.9863
  105OSM   H15C10669   2.063   3.684   9.937 -0.8627  0.5224  1.5359
  105OSM    C1410670   2.191   3.959   9.819 -0.3246  0.3393  0.1754
  105OSM   H14A10671   2.192   4.014   9.726  1.0418  2.0198  1.1628
  105OSM   H14B10672   2.292   3.924   9.829 -0.0846  0.5415 -1.3099
  105OSM   H14C10673   2.157   4.029   9.894 -0.0743 -0.4705  1.0545
  105OSM    C1310674   2.117   3.753   9.724  0.4942 -0.0303 -0.7802
  105OSM   H13A10675   2.046   3.672   9.733  0.3646  0.3016  1.1909
  105OSM   H13B10676   2.218   3.716   9.720  0.8429  0.7261  0.8430
  105OSM   H13C10677   2.091   3.792   9.626 -0.1148  2.2585  0.2584
  105OSM    C1210678   1.952   3.908   9.823  0.2812 -0.4607 -0.2657
  105OSM   H12A10679   1.951   3.988   9.750  3.4322  0.0071  0.1626
  105OSM   H12B10680   1.934   3.956   9.918  1.4621  1.7220 -1.1092
  105OSM    C1110681   1.834   3.813   9.788  0.5035 -0.7165 -0.2253
  105OSM   H11A10682   1.853   3.773   9.687 -0.6192 -0.2358 -0.6363
  105OSM   H11B10683   1.740   3.873   9.785  0.5183 -0.5558  1.6214
  105OSM      P10684   1.811   3.560   9.845  0.0105 -0.2915  0.4147
  105OSM    O1310685   1.955   3.519   9.825  1.0546  0.3426  0.3770
  105OSM    O1410686   1.719   3.487   9.939  0.1812  0.2431 -0.3568
  105OSM    O1110687   1.730   3.560   9.709 -0.0461  0.6262  0.6493
  105OSM    O1210688   1.816   3.714   9.882  0.1820 -0.3689  0.2174
  105OSM    C1S10689   1.749   3.442   9.623  0.4529  0.5442  0.3481
  105OSM    H1S10690   1.714   3.351   9.675 -2.1666 -0.6362 -3.2431
  105OSM    H1T10691   1.856   3.418   9.605  0.1357 -0.9232  0.3888
  105OSM     NF10692   1.707   3.331   9.411 -0.0922  0.1651  0.1824
  105OSM    HNF10693   1.796   3.329   9.366  0.3603 -0.9591  1.1028
  105OSM    C2S10694   1.685   3.461   9.485 -0.7602  0.4191  0.5535
  105OSM    H2S10695   1.576   3.468   9.505 -1.2496  0.2885 -1.8886
  105OSM    C3S10696   1.735   3.590   9.421  0.2931 -0.0675  0.5264
  105OSM    H3S10697   1.843   3.587   9.395  0.8550  1.5670  2.5288
  105OSM     O310698   1.713   3.704   9.502  0.0872 -0.2861 -0.8100
  105OSM    HO310699   1.707   3.667   9.590 -0.9953 -1.0086 -1.1754
  105OSM    C4S10700   1.658   3.607   9.291 -1.2502  0.1271  0.6520
  105OSM    H4S10701   1.559   3.561   9.300 -0.7468 -1.8137 -2.9346
  105OSM    C5S10702   1.698   3.660   9.174  0.2007 -0.5711 -1.0417
  105OSM    H5S10703   1.804   3.689   9.173  0.0229  0.1009 -0.3118
  105OSM    C6S10704   1.616   3.670   9.046 -0.1238  0.0490  0.2553
  105OSM    H6S10705   1.591   3.779   9.042  0.7886  0.3346  1.9819
  105OSM    H6T10706   1.515   3.627   9.065 -0.7422  1.4235  0.1930
  105OSM    C7S10707   1.695   3.618   8.926 -0.4483 -0.1028 -0.1058
  105OSM    H7S10708   1.711   3.508   8.931 -1.1863 -0.1890  0.5213
  105OSM    H7T10709   1.798   3.658   8.933 -1.4464  2.7281 -0.9050
  105OSM    C8S10710   1.645   3.678   8.795  0.1195 -0.4757  0.2324
  105OSM    H8S10711   1.673   3.785   8.809 -2.8921  0.3962 -0.0513
  105OSM    H8T10712   1.534   3.685   8.796  0.2036  1.1205  0.3833
  105OSM    C9S10713   1.712   3.626   8.670  0.0320 -0.6740  0.1247
  105OSM    H9S10714   1.687   3.517   8.664 -2.5434 -0.1369  0.6851
  105OSM    H9T10715   1.822   3.640   8.678  0.0210  0.6075 -1.7425
  105OSM   C10S10716   1.677   3.694   8.537  0.0169  0.4769  0.1700
  105OSM   H10S10717   1.759   3.662   8.469 -0.1483 -1.2643  0.7640
  105OSM   H10T10718   1.676   3.805   8.538 -0.5240  0.5048 -1.2915
  105OSM   C11S10719   1.540   3.647   8.482  0.0025  0.6219 -0.0673
  105OSM   H11S10720   1.463   3.687   8.552  0.0462  0.4850  0.0585
  105OSM   H11T10721   1.528   3.537   8.477  0.8803  0.6034 -2.6071
  105OSM   C12S10722   1.518   3.696   8.328  0.3602 -0.0410 -0.5686
  105OSM   H12S10723   1.607   3.664   8.269 -0.0211  1.1130 -1.7850
  105OSM   H12T10724   1.492   3.804   8.328 -0.1169 -0.1399  0.7008
  105OSM   C13S10725   1.397   3.627   8.261 -0.2178  0.5245  0.5464
  105OSM   H13S10726   1.314   3.679   8.313  0.3970  1.9737  0.1025
  105OSM   H13T10727   1.399   3.526   8.307 -0.6589  1.2353  2.1398
  105OSM   C14S10728   1.383   3.634   8.108  0.4770 -0.0806  0.2199
  105OSM   H14S10729   1.289   3.581   8.079 -0.0616  1.4347 -0.8426
  105OSM   H14T10730   1.471   3.574   8.076 -0.5255 -1.0816 -0.7305
  105OSM   C15S10731   1.379   3.776   8.054  0.2690  0.3147 -0.6699
  105OSM   H15S10732   1.478   3.822   8.074  0.3909  0.1338 -0.8635
  105OSM   H15T10733   1.317   3.847   8.113 -0.3080 -0.5545 -0.2161
  105OSM   C16S10734   1.356   3.779   7.905 -0.1477  0.4079  1.0531
  105OSM   H16S10735   1.251   3.751   7.883 -0.4370  1.3121  1.2371
  105OSM   H16T10736   1.430   3.711   7.857 -0.3393  1.5869 -0.9996
  105OSM   C17S10737   1.397   3.911   7.836  0.5648  0.6999 -1.0432
  105OSM   H17S10738   1.499   3.933   7.874 -0.1075  1.5971  0.2848
  105OSM   H17T10739   1.322   3.984   7.874  0.9564  2.1204 -2.9364
  105OSM   C18S10740   1.395   3.916   7.685  0.2259 -0.0278 -0.7203
  105OSM   H18S10741   1.423   4.020   7.658  1.3457 -0.6115 -1.8340
  105OSM   H18T10742   1.296   3.902   7.635 -0.4926 -0.8097  0.8805
  105OSM   H18U10743   1.468   3.845   7.642  0.5921  1.4046 -2.5183
  105OSM    C1F10744   1.641   3.217   9.440 -0.2366  0.1367 -0.5778
  105OSM     OF10745   1.562   3.217   9.533  0.2294  0.4201 -0.3554
  105OSM    C2F10746   1.654   3.092   9.360  0.4777  0.5687 -0.1497
  105OSM    H2F10747   1.558   3.057   9.316 -0.7324  2.3666  1.0041
  105OSM    H2G10748   1.692   3.004   9.417 -0.6611 -0.0421 -0.3207
  105OSM    C3F10749   1.747   3.117   9.238 -0.0491 -0.0816 -0.0135
  105OSM    H3F10750   1.850   3.140   9.275  1.0274 -2.2400 -1.5045
  105OSM    H3G10751   1.700   3.190   9.169 -0.4725  0.1138  0.4825
  105OSM    C4F10752   1.744   2.983   9.163  0.0293  0.5711  0.4766
  105OSM    H4F10753   1.720   2.898   9.230  1.1469  0.5772  0.9023
  105OSM    H4G10754   1.845   2.966   9.119 -0.6712  0.0841 -0.9650
  105OSM    C5F10755   1.642   2.977   9.046 -0.3787  0.3456 -0.1457
  105OSM    H5F10756   1.673   3.068   8.990  1.3472  0.1577  0.4503
  105OSM    H5G10757   1.539   2.992   9.085 -0.1255  1.4449  0.1231
  105OSM    C6F10758   1.646   2.865   8.942  0.2160 -0.0222 -0.7039
  105OSM    H6F10759   1.754   2.844   8.922  0.4418 -0.7279  1.0767
  105OSM    H6G10760   1.601   2.913   8.853 -1.7990  1.2247  0.9616
  105OSM    C7F10761   1.567   2.738   8.988  0.5317 -0.3035 -0.4127
  105OSM    H7F10762   1.469   2.767   9.032  0.3020 -2.2294  0.4137
  105OSM    H7G10763   1.616   2.701   9.080  0.1331  3.0252  1.2280
  105OSM    C8F10764   1.553   2.638   8.877  0.3199  0.5185  0.6709
  105OSM    H8F10765   1.551   2.541   8.931  0.9841  0.9472  1.4650
  105OSM    H8G10766   1.644   2.630   8.813 -2.7116 -1.6410 -3.6419
  105OSM    C9F10767   1.429   2.663   8.801  0.1954 -0.1813 -0.0876
  105OSM    H9F10768   1.341   2.656   8.867  0.1732  2.4485  0.1860
  105OSM   C10F10769   1.408   2.697   8.670 -0.5309 -0.0145 -0.1973
  105OSM   H10F10770   1.308   2.732   8.643 -1.2305 -1.0098  1.0300
  105OSM   C11F10771   1.519   2.705   8.564  0.6923  0.5580 -0.2088
  105OSM   H11F10772   1.483   2.663   8.467 -1.8617  0.7233  0.6327
  105OSM   H11G10773   1.598   2.635   8.597  2.1270  1.3772 -1.8040
  105OSM   C12F10774   1.586   2.837   8.533 -0.2849  0.2165 -0.4795
  105OSM   H12F10775   1.656   2.831   8.447  1.8112 -0.0782  1.1987
  105OSM   H12G10776   1.648   2.865   8.621  0.4299 -2.3678 -0.0975
  105OSM   C13F10777   1.488   2.940   8.506 -0.1157  0.2140  0.0042
  105OSM   H13F10778   1.412   2.964   8.584  0.1754  0.0055  0.3517
  105OSM   H13G10779   1.439   2.921   8.408  0.6516  2.1533 -0.7822
  105OSM   C14F10780   1.569   3.071   8.497  0.0026 -0.3877 -0.1075
  105OSM   H14F10781   1.649   3.088   8.573  1.9828 -1.2035 -1.9370
  105OSM   H14G10782   1.497   3.154   8.488  0.5989  0.0935 -0.5145
  105OSM   C15F10783   1.643   3.091   8.359 -0.0578  0.2293  0.3968
  105OSM   H15F10784   1.577   3.058   8.275  0.0797 -0.4956  0.5721
  105OSM   H15G10785   1.731   3.023   8.370  0.1161  0.7686  2.4938
  105OSM   C16F10786   1.704   3.225   8.327 -0.3988 -0.0826  0.3497
  105OSM   H16F10787   1.757   3.252   8.421 -0.6474 -1.0326  0.7700
  105OSM   H16G10788   1.619   3.296   8.320  2.0736  3.0019  0.9494
  105OSM   C17F10789   1.789   3.222   8.203  0.0368 -0.5123 -0.0758
  105OSM   H17F10790   1.715   3.203   8.123  1.4095 -2.4853 -0.9341
  105OSM   H17G10791   1.856   3.133   8.202  2.6918  1.3803  2.1431
  105OSM   C18F10792   1.862   3.359   8.174 -0.1841  0.2722  1.0938
  105OSM   H18F10793   1.810   3.454   8.199  0.0444  0.3843  1.1478
  105OSM   H18G10794   1.874   3.375   8.065 -0.9822 -1.9080  0.6610
  105OSM   H18H10795   1.952   3.360   8.239  0.3117  0.1624  0.4174
  106OSM      N10796   3.173   2.248   9.841 -0.5114  0.4530 -0.0556
  106OSM    C1510797   3.108   2.372   9.795 -0.8215  0.3987 -0.7353
  106OSM   H15A10798   3.001   2.359   9.792 -0.8122 -0.1050  0.8228
  106OSM   H15B10799   3.122   2.395   9.690 -0.9503  0.6756 -0.6946
  106OSM   H15C10800   3.138   2.461   9.848  0.1410 -0.1833 -0.2917
  106OSM    C1410801   3.324   2.261   9.840 -0.7180  0.2228 -0.3949
  106OSM   H14A10802   3.368   2.269   9.742  3.3950  0.2915  1.3518
  106OSM   H14B10803   3.367   2.173   9.885 -0.4117 -0.2133 -1.5281
  106OSM   H14C10804   3.368   2.346   9.890  1.1754 -1.8716  1.5749
  106OSM    C1310805   3.121   2.225   9.983 -0.7831 -0.3446 -1.1244
  106OSM   H13A10806   3.018   2.192   9.973 -1.3709  1.2661 -0.6492
  106OSM   H13B10807   3.114   2.319  10.037 -0.2120 -1.4006  0.8386
  106OSM   H13C10808   3.171   2.150  10.041 -2.0616 -0.6632 -0.3966
  106OSM    C1210809   3.139   2.142   9.746 -0.7866 -0.4728 -0.0399
  106OSM   H12A10810   3.178   2.046   9.774  0.5225  0.6466  2.0571
  106OSM   H12B10811   3.188   2.159   9.651  0.1815 -0.2663  0.4912
  106OSM    C1110812   2.986   2.121   9.719  0.4267 -0.3239  0.4138
  106OSM   H11A10813   2.977   2.036   9.649  1.4600 -1.8273  2.0819
  106OSM   H11B10814   2.948   2.213   9.669  0.3436  0.3107  1.6433
  106OSM      P10815   2.871   1.958   9.900 -0.0092  0.3997  0.3585
  106OSM    O1310816   2.997   1.902   9.950 -0.6139  0.1168 -0.0548
  106OSM    O1410817   2.762   1.965   9.997  0.6893  0.1750 -0.0015
  106OSM    O1110818   2.826   1.869   9.772  0.3922  0.0890 -0.2563
  106OSM    O1210819   2.902   2.097   9.836 -0.5585  0.0440  0.8400
  106OSM    C1S10820   2.713   1.911   9.702 -0.0958  0.4829  0.0357
  106OSM    H1S10821   2.702   2.021   9.700 -0.2531  0.4573 -0.7814
  106OSM    H1T10822   2.622   1.873   9.754 -0.1192 -0.3600 -0.6042
  106OSM     NF10823   2.572   1.860   9.514  0.5846 -0.0224  0.1688
  106OSM    HNF10824   2.507   1.784   9.518  0.1637  0.2891 -0.5905
  106OSM    C2S10825   2.704   1.840   9.560 -0.1104 -0.3215 -0.5415
  106OSM    H2S10826   2.767   1.897   9.488  1.6361 -1.8524 -0.2424
  106OSM    C3S10827   2.754   1.689   9.563  0.2923 -0.0814 -0.9928
  106OSM    H3S10828   2.704   1.629   9.641  0.8969 -0.2900 -0.7575
  106OSM     O310829   2.891   1.694   9.600 -0.0581 -0.2631  0.0563
  106OSM    HO310830   2.888   1.765   9.665 -1.3938 -0.4921  0.2685
  106OSM    C4S10831   2.741   1.622   9.431  0.5156  0.4896  0.1356
  106OSM    H4S10832   2.649   1.563   9.417  0.9301 -0.6334  1.9316
  106OSM    C5S10833   2.827   1.606   9.322  0.3456  0.1873 -0.1007
  106OSM    H5S10834   2.925   1.654   9.325 -0.2913  1.6725 -2.2261
  106OSM    C6S10835   2.812   1.532   9.194  0.7535 -0.3114  0.9059
  106OSM    H6S10836   2.724   1.465   9.200 -0.1412  0.6104 -1.3637
  106OSM    H6T10837   2.898   1.474   9.155  0.6334  2.1901 -3.4244
  106OSM    C7S10838   2.776   1.619   9.070  0.2860 -0.5846 -0.1855
  106OSM    H7S10839   2.846   1.705   9.059 -0.8519  0.3040 -0.6613
  106OSM    H7T10840   2.670   1.649   9.086  0.4611 -0.2415  0.3504
  106OSM    C8S10841   2.762   1.540   8.945 -0.4369  0.3452 -0.1685
  106OSM    H8S10842   2.680   1.465   8.956  1.4312 -2.1784 -2.6246
  106OSM    H8T10843   2.851   1.483   8.914 -0.2381  0.0322  0.9552
  106OSM    C9S10844   2.721   1.634   8.825 -0.0508 -0.5139  0.1211
  106OSM    H9S10845   2.812   1.696   8.812 -0.6804  0.3982  0.0054
  106OSM    H9T10846   2.643   1.706   8.859 -0.7602 -1.9446  1.6106
  106OSM   C10S10847   2.672   1.567   8.709 -0.6974 -0.6624  0.0563
  106OSM   H10S10848   2.669   1.641   8.626  0.7338  0.5785  1.0691
  106OSM   H10T10849   2.576   1.517   8.732  0.1861 -1.1836  2.8073
  106OSM   C11S10850   2.768   1.461   8.653 -0.0006 -0.5965  0.5646
  106OSM   H11S10851   2.759   1.364   8.708  0.5687 -0.7059  0.4760
  106OSM   H11T10852   2.863   1.518   8.666  0.1878 -0.3213 -1.7719
  106OSM   C12S10853   2.739   1.428   8.505  0.5968  0.0543 -0.0040
  106OSM   H12S10854   2.742   1.523   8.447  2.3428  0.1969  0.2942
  106OSM   H12T10855   2.641   1.376   8.506  1.2903 -1.3283 -1.1972
  106OSM   C13S10856   2.841   1.348   8.417  0.0088 -0.6179  0.0620
  106OSM   H13S10857   2.860   1.248   8.463  1.7514 -1.4393 -2.3065
  106OSM   H13T10858   2.938   1.397   8.396 -0.8990  1.0634 -0.2509
  106OSM   C14S10859   2.784   1.311   8.278  0.1067  0.3746  0.9657
  106OSM   H14S10860   2.788   1.401   8.213  0.4181  0.0969  0.6010
  106OSM   H14T10861   2.681   1.269   8.273  0.2733  0.1235 -0.3259
  106OSM   C15S10862   2.872   1.203   8.225 -0.4110 -0.4420  1.0358
  106OSM   H15S10863   2.878   1.109   8.284  1.3459 -0.2135  1.2353
  106OSM   H15T10864   2.977   1.234   8.241  0.5761 -0.8591 -3.7548
  106OSM   C16S10865   2.834   1.148   8.084  0.0245 -0.5471 -0.0556
  106OSM   H16S10866   2.744   1.082   8.077  0.7071 -1.4464 -0.4249
  106OSM   H16T10867   2.914   1.076   8.056  0.2436 -0.8362  1.2794
  106OSM   C17S10868   2.833   1.249   7.975  0.3033 -0.8588  0.4159
  106OSM   H17S10869   2.931   1.302   7.984  0.0628 -0.5861  1.3833
  106OSM   H17T10870   2.758   1.327   7.999  2.0317  0.6490  1.0675
  106OSM   C18S10871   2.830   1.198   7.832 -0.2201 -0.2914  0.7043
  106OSM   H18S10872   2.729   1.165   7.799  1.7422 -2.6577 -3.2141
  106OSM   H18T10873   2.903   1.117   7.811 -0.6228 -0.5653  0.3415
  106OSM   H18U10874   2.863   1.282   7.767  2.5136 -0.1272  2.2162
  106OSM    C1F10875   2.519   1.985   9.481  0.3265 -0.1971 -0.3001
  106OSM     OF10876   2.581   2.093   9.480  0.1217 -0.0824  0.1680
  106OSM    C2F10877   2.377   1.982   9.436 -0.2539 -0.0575 -0.0953
  106OSM    H2F10878   2.330   2.050   9.511  0.9613  0.6587  0.0288
  106OSM    H2G10879   2.334   1.880   9.452  0.0141 -0.2822 -0.8049
  106OSM    C3F10880   2.344   2.038   9.300  0.4959 -0.4795 -0.2376
  106OSM    H3F10881   2.386   1.962   9.230 -0.8476 -0.1802 -1.3739
  106OSM    H3G10882   2.404   2.130   9.288  2.5858 -1.5482  1.5475
  106OSM    C4F10883   2.188   2.046   9.281 -0.4318  0.1501  0.3464
  106OSM    H4F10884   2.145   2.100   9.368 -2.0511 -0.5511 -0.0021
  106OSM    H4G10885   2.154   1.941   9.293  1.9237 -0.7349 -0.3928
  106OSM    C5F10886   2.153   2.106   9.144  1.0049 -0.4889 -0.1072
  106OSM    H5F10887   2.157   2.215   9.165  0.1353 -0.8520  2.1179
  106OSM    H5G10888   2.049   2.079   9.115  0.5654 -0.0156  1.0125
  106OSM    C6F10889   2.240   2.053   9.030  0.5480  0.9056  0.1904
  106OSM    H6F10890   2.244   1.942   9.033  1.1056  0.9565  1.7049
  106OSM    H6G10891   2.345   2.090   9.033  0.7511  0.4603 -0.9390
  106OSM    C7F10892   2.185   2.082   8.892 -0.4107 -0.5224 -0.5067
  106OSM    H7F10893   2.138   2.183   8.885 -1.1317 -0.6517  2.2528
  106OSM    H7G10894   2.104   2.009   8.870 -0.9362 -0.4122  1.0166
  106OSM    C8F10895   2.305   2.074   8.796 -0.8903  0.4992  0.1810
  106OSM    H8F10896   2.390   2.137   8.828  1.5069 -1.8604 -1.3097
  106OSM    H8G10897   2.287   2.099   8.689 -2.7187 -0.1233  0.3303
  106OSM    C9F10898   2.342   1.926   8.784  0.7186 -0.4483 -0.6042
  106OSM    H9F10899   2.275   1.850   8.827 -0.1505  0.0949 -0.9869
  106OSM   C10F10900   2.450   1.873   8.727  0.0200 -0.2397 -0.3374
  106OSM   H10F10901   2.464   1.764   8.733  0.9947 -0.1077 -0.1310
  106OSM   C11F10902   2.563   1.944   8.659 -0.0277 -0.2859 -0.9144
  106OSM   H11F10903   2.665   1.902   8.674  0.8084  1.6573 -1.0644
  106OSM   H11G10904   2.570   2.044   8.707  0.8040 -0.4441 -0.6878
  106OSM   C12F10905   2.536   1.936   8.505  0.1044 -0.1148  0.2090
  106OSM   H12F10906   2.588   2.012   8.444 -0.5783  0.0632 -0.1557
  106OSM   H12G10907   2.431   1.971   8.491 -0.2903  0.1622  3.3325
  106OSM   C13F10908   2.557   1.799   8.438  0.2965  0.1828  0.4450
  106OSM   H13F10909   2.488   1.727   8.489 -0.3415  1.4946  1.4489
  106OSM   H13G10910   2.661   1.761   8.444  0.0023 -0.6877  0.2041
  106OSM   C14F10911   2.511   1.794   8.298 -0.2476  0.5114  0.1027
  106OSM   H14F10912   2.549   1.882   8.242  2.1608 -0.9575 -0.6427
  106OSM   H14G10913   2.400   1.787   8.292 -0.0773 -2.0259 -1.0693
  106OSM   C15F10914   2.575   1.674   8.220 -0.6864 -0.0394  0.3224
  106OSM   H15F10915   2.550   1.576   8.267  0.6602 -0.3827  0.3473
  106OSM   H15G10916   2.684   1.682   8.242 -0.5567 -0.3317 -0.2102
  106OSM   C16F10917   2.552   1.661   8.074  0.8124 -0.0927  0.5124
  106OSM   H16F10918   2.542   1.757   8.020  0.5036 -0.0684  0.6121
  106OSM   H16G10919   2.462   1.601   8.049  0.4836 -0.0649  1.6028
  106OSM   C17F10920   2.655   1.593   7.989  0.0238 -0.2232  0.8876
  106OSM   H17F10921   2.708   1.523   8.057  2.1265  1.9789  1.5668
  106OSM   H17G10922   2.731   1.665   7.952 -0.4039 -0.0867  0.2678
  106OSM   C18F10923   2.608   1.507   7.867  0.4185  0.6433  0.0189
  106OSM   H18F10924   2.553   1.574   7.798  0.0128 -0.4372 -0.7119
  106OSM   H18G10925   2.543   1.430   7.915 -1.3393  3.0834  1.6820
  106OSM   H18H10926   2.695   1.456   7.821 -0.7314  0.3222 -1.8237
  107OSM      N10927   3.548   5.989   9.756  0.4684 -0.5467 -0.7749
  107OSM    C1510928   3.491   6.018   9.616  0.0599 -0.3822 -0.3308
  107OSM   H15A10929   3.532   6.112   9.580 -1.9637  0.8049  0.4056
  107OSM   H15B10930   3.388   6.049   9.623  0.2841  0.0778  1.0282
  107OSM   H15C10931   3.513   5.940   9.544 -0.4100 -1.3430  0.5582
  107OSM    C1410932   3.548   6.114   9.839  0.3921 -0.2419  0.4500
  107OSM   H14A10933   3.598   6.196   9.791  0.4007 -0.3526  0.2678
  107OSM   H14B10934   3.587   6.110   9.940  0.1069  1.1281  0.6218
  107OSM   H14C10935   3.445   6.143   9.854  0.8200  0.9563  1.1135
  107OSM    C1310936   3.467   5.885   9.834 -0.0016 -0.3487  0.5235
  107OSM   H13A10937   3.531   5.832   9.903  0.4488 -1.3605 -0.6393
  107OSM   H13B10938   3.415   5.824   9.761 -0.4215 -0.6335  1.0509
  107OSM   H13C10939   3.385   5.932   9.885 -1.9858 -1.9503 -1.1062
  107OSM    C1210940   3.689   5.939   9.746  0.6704 -0.4238  0.4107
  107OSM   H12A10941   3.752   6.003   9.686 -0.4385 -0.0656 -0.3959
  107OSM   H12B10942   3.679   5.842   9.699  2.5002  0.7951 -2.6821
  107OSM    C1110943   3.768   5.920   9.872  0.0936 -0.2495  0.6898
  107OSM   H11A10944   3.763   6.006   9.941 -2.3069 -0.8881  1.3495
  107OSM   H11B10945   3.876   5.910   9.845  0.1913  0.0509  0.9711
  107OSM      P10946   3.782   5.664   9.955 -0.2237 -0.3689  0.1761
  107OSM    O1310947   3.924   5.668  10.002 -0.7072 -0.0587 -0.2992
  107OSM    O1410948   3.684   5.566  10.017  0.0782  0.2942  0.3038
  107OSM    O1110949   3.802   5.624   9.809  0.3125  0.2820 -0.0788
  107OSM    O1210950   3.719   5.812   9.955 -0.1653  0.1286  0.1728
  107OSM    C1S10951   3.685   5.594   9.729  0.2709  0.0738  0.1938
  107OSM    H1S10952   3.605   5.670   9.741  0.2072  0.1632 -0.7778
  107OSM    H1T10953   3.631   5.501   9.755 -2.3927  1.8290  1.2656
  107OSM     NF10954   3.604   5.549   9.491 -0.8207  0.2139  0.2687
  107OSM    HNF10955   3.583   5.452   9.478 -2.0673  0.5000  0.0115
  107OSM    C2S10956   3.720   5.575   9.577  0.1147  0.4324  0.4145
  107OSM    H2S10957   3.762   5.673   9.545  0.1130 -0.8518 -3.8360
  107OSM    C3S10958   3.819   5.459   9.563 -0.5434  0.3621  0.0002
  107OSM    H3S10959   3.764   5.364   9.579 -1.8024  1.1295  0.2834
  107OSM     O310960   3.927   5.464   9.657  0.0581 -0.0135 -0.0355
  107OSM    HO310961   3.901   5.529   9.723 -0.9710 -0.5793  0.1324
  107OSM    C4S10962   3.869   5.450   9.420  0.1221  0.3819 -0.3608
  107OSM    H4S10963   3.812   5.384   9.353  0.1525 -0.4280  0.4050
  107OSM    C5S10964   3.983   5.501   9.365  0.1361  0.4328 -0.0920
  107OSM    H5S10965   4.047   5.552   9.438  0.0442  0.2561  0.1110
  107OSM    C6S10966   4.037   5.489   9.221 -0.0796 -0.2694  0.1533
  107OSM    H6S10967   4.136   5.440   9.232 -1.3177 -2.6137  1.2456
  107OSM    H6T10968   4.059   5.591   9.182  3.1003 -2.4553 -4.1240
  107OSM    C7S10969   3.958   5.411   9.119  0.3728 -0.0640  0.0887
  107OSM    H7S10970   3.925   5.317   9.167 -0.0639 -1.0097 -2.0221
  107OSM    H7T10971   4.024   5.383   9.034 -1.3353 -0.8251 -1.0167
  107OSM    C8S10972   3.842   5.495   9.067 -1.1504  0.9090 -0.3170
  107OSM    H8S10973   3.887   5.592   9.040  0.9259 -0.6228 -2.6138
  107OSM    H8T10974   3.770   5.508   9.150  3.3934 -0.1820  3.9983
  107OSM    C9S10975   3.786   5.433   8.935  0.2391  0.9309  0.1948
  107OSM    H9S10976   3.857   5.434   8.850 -0.9999 -0.2308 -0.8823
  107OSM    H9T10977   3.703   5.496   8.897 -0.4026  0.0901  0.1969
  107OSM   C10S10978   3.738   5.286   8.954  0.0005 -0.2367 -0.3582
  107OSM   H10S10979   3.701   5.271   9.058 -0.6611  1.3243 -0.3538
  107OSM   H10T10980   3.834   5.231   8.944  0.3929  0.5931 -1.2059
  107OSM   C11S10981   3.633   5.241   8.851 -0.5052  0.5573  0.2455
  107OSM   H11S10982   3.543   5.307   8.850  0.6807  2.2256  0.8868
  107OSM   H11T10983   3.599   5.138   8.874 -0.9385  0.1074 -2.2267
  107OSM   C12S10984   3.678   5.239   8.701 -0.7480 -0.5769  0.2509
  107OSM   H12S10985   3.778   5.193   8.685  0.4689  1.3919  2.0083
  107OSM   H12T10986   3.684   5.348   8.684 -1.1219 -0.6209 -0.1740
  107OSM   C13S10987   3.582   5.169   8.605  0.2848 -0.1956 -0.8131
  107OSM   H13S10988   3.483   5.219   8.597  0.0199 -0.6895 -0.6650
  107OSM   H13T10989   3.574   5.065   8.643  2.5447 -0.8624 -2.0878
  107OSM   C14S10990   3.640   5.159   8.465  0.3770 -0.8882  0.3018
  107OSM   H14S10991   3.715   5.078   8.455 -1.0613 -2.0133 -1.6245
  107OSM   H14T10992   3.697   5.252   8.443 -1.8650  0.3780 -0.3625
  107OSM   C15S10993   3.537   5.136   8.353  0.3147 -0.1161  0.7533
  107OSM   H15S10994   3.444   5.191   8.380 -0.5830 -2.5202  2.6658
  107OSM   H15T10995   3.521   5.027   8.345  0.5224 -0.1236  0.4254
  107OSM   C16S10996   3.575   5.174   8.212  0.0821  0.0321  0.1377
  107OSM   H16S10997   3.649   5.096   8.182 -0.5825 -0.1059 -1.1581
  107OSM   H16T10998   3.613   5.279   8.208 -0.9450  0.4623  1.3490
  107OSM   C17S10999   3.456   5.164   8.113 -0.6941  0.9288 -0.1133
  107OSM   H17S11000   3.389   5.254   8.117 -2.1298 -0.2127  3.0102
  107OSM   H17T11001   3.386   5.079   8.131  0.3058 -0.2806 -1.8611
  107OSM   C18S11002   3.505   5.139   7.967 -0.2823 -0.4504 -0.2076
  107OSM   H18S11003   3.579   5.057   7.959  0.5243  0.4681 -2.2578
  107OSM   H18T11004   3.549   5.235   7.935  0.3464 -0.5999  0.1983
  107OSM   H18U11005   3.420   5.118   7.898  0.4833 -0.9012 -1.0237
  107OSM    C1F11006   3.531   5.640   9.437  0.4002 -0.1227 -0.0913
  107OSM     OF11007   3.555   5.759   9.459 -0.1835  0.1497  0.0591
  107OSM    C2F11008   3.420   5.604   9.353 -0.2211  0.3768 -0.5992
  107OSM    H2F11009   3.326   5.633   9.406  0.3799  1.9698 -0.3730
  107OSM    H2G11010   3.415   5.495   9.332 -0.2344  0.3440 -0.4217
  107OSM    C3F11011   3.427   5.662   9.209  0.0881 -0.0617  0.6001
  107OSM    H3F11012   3.528   5.641   9.168  1.0576 -0.0918  2.8885
  107OSM    H3G11013   3.413   5.771   9.224 -0.3617  0.0324 -0.4510
  107OSM    C4F11014   3.326   5.617   9.102 -0.1856 -0.0290 -0.5982
  107OSM    H4F11015   3.232   5.661   9.142  0.9873 -0.0335  2.2412
  107OSM    H4G11016   3.327   5.506   9.103 -2.8794 -0.0736  1.9888
  107OSM    C5F11017   3.359   5.671   8.960  0.0508  0.6456 -0.5086
  107OSM    H5F11018   3.468   5.654   8.951  0.0599  1.2952 -1.7829
  107OSM    H5G11019   3.337   5.780   8.958  1.1080  0.8569 -0.5032
  107OSM    C6F11020   3.284   5.603   8.843  0.5513 -0.2024 -0.8156
  107OSM    H6F11021   3.175   5.610   8.867  1.1941 -2.8933  3.3691
  107OSM    H6G11022   3.306   5.495   8.841  0.8294 -0.1487 -0.6443
  107OSM    C7F11023   3.332   5.651   8.710  0.0786  0.0824  0.1962
  107OSM    H7F11024   3.443   5.652   8.708  0.0890  0.2162  0.7575
  107OSM    H7G11025   3.297   5.753   8.682  0.8776  0.1416 -0.6041
  107OSM    C8F11026   3.300   5.561   8.595  0.1045  0.7487 -0.4391
  107OSM    H8F11027   3.337   5.457   8.608 -0.2267  0.7569  0.5907
  107OSM    H8G11028   3.357   5.606   8.511 -0.7169  2.4367 -0.1072
  107OSM    C9F11029   3.151   5.543   8.567 -0.2940 -0.2046 -0.0902
  107OSM    H9F11030   3.103   5.490   8.651  0.1808  1.0487  0.9883
  107OSM   C10F11031   3.071   5.582   8.467 -0.1704  0.3797 -0.3825
  107OSM   H10F11032   2.963   5.561   8.470 -0.7888  3.4213 -0.5927
  107OSM   C11F11033   3.125   5.650   8.341 -1.0137 -0.1474 -0.8657
  107OSM   H11F11034   3.236   5.643   8.341 -1.0216 -0.3649 -0.2725
  107OSM   H11G11035   3.117   5.760   8.339  2.8818  0.2940  1.9737
  107OSM   C12F11036   3.073   5.607   8.208 -0.0480  0.2232 -0.0839
  107OSM   H12F11037   2.961   5.608   8.210 -0.0274  0.3038  1.3699
  107OSM   H12G11038   3.107   5.504   8.185  2.5848  0.8926  0.6504
  107OSM   C13F11039   3.119   5.693   8.089  0.1415 -0.0293 -0.3146
  107OSM   H13F11040   3.226   5.718   8.106  0.6021 -0.9765 -1.7264
  107OSM   H13G11041   3.071   5.794   8.085  2.6729  1.2388  0.0653
  107OSM   C14F11042   3.105   5.624   7.955  0.1988 -0.0386  0.4186
  107OSM   H14F11043   3.165   5.531   7.959  1.8820  1.0355  0.3723
  107OSM   H14G11044   3.140   5.696   7.878 -0.7043 -1.2342 -1.1296
  107OSM   C15F11045   2.958   5.595   7.906  0.8020 -0.7063 -0.2353
  107OSM   H15F11046   2.894   5.682   7.930  0.3387 -1.6285  2.0214
  107OSM   H15G11047   2.922   5.514   7.974  0.8325 -1.2260 -0.8354
  107OSM   C16F11048   2.956   5.558   7.760  0.0442  0.6129  0.3052
  107OSM   H16F11049   3.025   5.474   7.740 -2.6789 -1.8482  0.8063
  107OSM   H16G11050   2.990   5.649   7.706 -0.9489 -1.1049 -3.3473
  107OSM   C17F11051   2.819   5.511   7.705 -0.1942  0.1148 -0.3298
  107OSM   H17F11052   2.794   5.418   7.760 -1.8112  0.5343 -0.3121
  107OSM   H17G11053   2.826   5.496   7.595  2.9472  1.4701 -0.3560
  107OSM   C18F11054   2.688   5.598   7.729  0.5533 -0.0480  0.1683
  107OSM   H18F11055   2.707   5.707   7.718 -0.5558  0.1236 -0.1166
  107OSM   H18G11056   2.625   5.573   7.816 -2.0448 -2.9197 -2.3993
  107OSM   H18H11057   2.631   5.583   7.635  1.4453 -2.4246 -0.0394
  108OSM      N11058   1.613   3.084  10.066 -0.1773  0.5641  0.5050
  108OSM    C1511059   1.723   3.163   9.999  0.5708 -0.3806 -0.3344
  108OSM   H15A11060   1.801   3.173  10.073  0.6029 -0.4523 -0.3594
  108OSM   H15B11061   1.702   3.266   9.976  1.6129  0.2819  1.5216
  108OSM   H15C11062   1.763   3.121   9.908 -1.1298  0.6294 -1.5871
  108OSM    C1411063   1.677   2.951  10.105 -0.2161  0.1400 -0.1623
  108OSM   H14A11064   1.726   2.957  10.201 -0.0163  0.5318 -0.2877
  108OSM   H14B11065   1.744   2.922  10.025  0.3731 -0.3672  0.5049
  108OSM   H14C11066   1.607   2.870  10.119  0.7517 -0.5473  0.7838
  108OSM    C1311067   1.558   3.155  10.181 -0.1651  0.3803 -0.0144
  108OSM   H13A11068   1.523   3.252  10.150 -1.6813 -0.1043  0.1372
  108OSM   H13B11069   1.638   3.170  10.253  1.4440  1.9585 -2.0849
  108OSM   H13C11070   1.479   3.101  10.231 -2.0605  1.6891 -1.5530
  108OSM    C1211071   1.500   3.065   9.964  0.3589 -0.2082 -1.0666
  108OSM   H12A11072   1.472   3.167   9.943  2.0181  0.2555 -1.1107
  108OSM   H12B11073   1.415   3.018  10.010 -0.6493 -0.0386 -2.7114
  108OSM    C1111074   1.535   2.992   9.836  0.3868 -0.4430 -0.2830
  108OSM   H11A11075   1.631   3.029   9.793 -0.3483  1.5466 -0.2821
  108OSM   H11B11076   1.465   3.024   9.756 -0.5947  0.9169  1.1006
  108OSM      P11077   1.644   2.747   9.820 -0.1524  0.1759 -0.1490
  108OSM    O1311078   1.770   2.799   9.859  0.2087 -0.3823  0.2430
  108OSM    O1411079   1.597   2.620   9.872  0.6351  0.0754 -0.3924
  108OSM    O1111080   1.626   2.754   9.660  0.2751  0.0118  0.6903
  108OSM    O1211081   1.531   2.853   9.866 -0.4913 -0.0483 -0.0933
  108OSM    C1S11082   1.488   2.761   9.618  0.2763 -0.2917 -0.4556
  108OSM    H1S11083   1.453   2.863   9.592 -2.3216 -0.6620  1.3627
  108OSM    H1T11084   1.412   2.717   9.687  2.5003  1.0424  2.9610
  108OSM     NF11085   1.327   2.713   9.444  0.3337 -0.4954  0.1184
  108OSM    HNF11086   1.252   2.654   9.470 -1.7631  0.7314 -2.9441
  108OSM    C2S11087   1.460   2.678   9.488 -0.1339 -0.1846 -0.4907
  108OSM    H2S11088   1.539   2.707   9.415  1.1918 -1.8953  0.2435
  108OSM    C3S11089   1.471   2.527   9.510 -0.5910 -0.1550  1.0652
  108OSM    H3S11090   1.397   2.491   9.585 -2.3866 -0.2697 -0.7072
  108OSM     O311091   1.592   2.496   9.576 -0.1445  0.8056 -0.1096
  108OSM    HO311092   1.626   2.580   9.607 -1.3318  0.8286  1.1882
  108OSM    C4S11093   1.471   2.439   9.383  0.0404  0.7986 -0.2147
  108OSM    H4S11094   1.560   2.437   9.319  0.4364  0.3402  0.3418
  108OSM    C5S11095   1.362   2.369   9.352 -0.0720 -0.1135 -0.6252
  108OSM    H5S11096   1.281   2.367   9.427  1.2526  1.0895  0.8630
  108OSM    C6S11097   1.360   2.276   9.238  0.3207  0.4413  0.1261
  108OSM    H6S11098   1.284   2.202   9.269 -0.4724  1.3741  0.4253
  108OSM    H6T11099   1.454   2.219   9.221  1.4298  3.2857 -4.3119
  108OSM    C7S11100   1.320   2.339   9.101 -0.0430 -0.0265 -0.2371
  108OSM    H7S11101   1.393   2.417   9.069 -1.4672  1.4818  0.0960
  108OSM    H7T11102   1.229   2.402   9.111 -0.3161 -0.7260  2.1202
  108OSM    C8S11103   1.308   2.238   8.983 -0.0189  0.2415  0.3394
  108OSM    H8S11104   1.269   2.297   8.897  0.9936  1.5858  0.7948
  108OSM    H8T11105   1.239   2.155   9.006 -1.9063  1.1706 -1.7136
  108OSM    C9S11106   1.442   2.168   8.959  0.3084  0.4002  0.2856
  108OSM    H9S11107   1.442   2.121   8.858  1.1564  1.4070 -0.1884
  108OSM    H9T11108   1.451   2.085   9.032  0.7564 -1.3384 -1.6627
  108OSM   C10S11109   1.559   2.258   8.940  0.0026 -0.7971  0.0528
  108OSM   H10S11110   1.580   2.338   9.015 -3.6952  0.9230 -0.6401
  108OSM   H10T11111   1.543   2.302   8.839 -1.0612 -2.8253 -0.6627
  108OSM   C11S11112   1.690   2.183   8.927 -0.4704 -0.0271  0.2918
  108OSM   H11S11113   1.679   2.131   8.830 -1.8834  0.7951  0.0045
  108OSM   H11T11114   1.699   2.110   9.011  3.2573 -1.3320 -1.1652
  108OSM   C12S11115   1.815   2.274   8.945  0.3619 -0.4493  0.0388
  108OSM   H12S11116   1.914   2.226   8.927  1.0905  1.5305 -1.4058
  108OSM   H12T11117   1.809   2.315   9.048 -0.5985 -1.0969  0.2477
  108OSM   C13S11118   1.805   2.389   8.841 -0.3397  0.5887 -0.6398
  108OSM   H13S11119   1.880   2.464   8.871 -0.9471  1.0830 -0.3351
  108OSM   H13T11120   1.715   2.453   8.850  0.2532  1.2167  0.9890
  108OSM   C14S11121   1.816   2.334   8.694 -0.0765 -0.0358  0.2794
  108OSM   H14S11122   1.724   2.277   8.669  0.6346  0.1204 -2.9111
  108OSM   H14T11123   1.904   2.268   8.685  1.3477  1.9206 -0.5000
  108OSM   C15S11124   1.829   2.445   8.590  0.4559 -0.0279  0.1293
  108OSM   H15S11125   1.803   2.546   8.630  1.1169  0.3414 -0.3624
  108OSM   H15T11126   1.758   2.426   8.507 -0.2690  0.9746  0.5073
  108OSM   C16S11127   1.967   2.449   8.519  0.4147  0.4890 -0.3212
  108OSM   H16S11128   2.047   2.453   8.596 -1.7006  0.8181  1.9195
  108OSM   H16T11129   1.973   2.545   8.463 -2.0486 -0.2410 -1.9341
  108OSM   C17S11130   1.988   2.321   8.435  0.5918 -0.1998  0.1772
  108OSM   H17S11131   1.958   2.340   8.330 -0.3063 -0.8618  0.3056
  108OSM   H17T11132   1.914   2.239   8.448  2.4209 -1.7466  1.1326
  108OSM   C18S11133   2.132   2.252   8.426  0.0503  0.3258 -0.5410
  108OSM   H18S11134   2.201   2.330   8.388 -0.5537  0.5911 -1.0958
  108OSM   H18T11135   2.132   2.167   8.354 -1.3999 -1.0110  0.9935
  108OSM   H18U11136   2.163   2.220   8.528 -3.5133 -1.0469  0.1739
  108OSM    C1F11137   1.288   2.821   9.373  0.0710 -0.4134 -0.2404
  108OSM     OF11138   1.360   2.913   9.339 -0.6341 -0.0741  0.5163
  108OSM    C2F11139   1.139   2.817   9.349 -0.2821  0.3123  0.3507
  108OSM    H2F11140   1.090   2.840   9.446  2.0611 -0.4588  1.7627
  108OSM    H2G11141   1.098   2.716   9.331  2.2625 -0.7015  0.0299
  108OSM    C3F11142   1.082   2.924   9.249  0.1201 -0.5330  0.2048
  108OSM    H3F11143   1.127   3.020   9.280  1.5351 -2.1213  3.2839
  108OSM    H3G11144   0.971   2.927   9.262 -0.1830  2.1323 -2.4733
  108OSM    C4F11145   1.122   2.897   9.109 -0.0744  0.2228 -0.4032
  108OSM    H4F11146   1.102   2.790   9.085 -1.0092  0.2220  0.3563
  108OSM    H4G11147   1.230   2.918   9.094  0.8414 -0.4357  4.4161
  108OSM    C5F11148   1.044   2.981   9.002  0.1597 -0.0707  0.5587
  108OSM    H5F11149   1.057   3.090   9.014 -2.4510  0.4478 -0.7175
  108OSM    H5G11150   0.934   2.962   9.010  0.0073  1.0956  1.2583
  108OSM    C6F11151   1.070   2.949   8.864  0.1227 -0.0904  0.9012
  108OSM    H6F11152   1.039   2.842   8.862  2.7606 -0.9018  1.0686
  108OSM    H6G11153   1.180   2.950   8.850  0.3193  0.4329  2.3459
  108OSM    C7F11154   0.990   3.043   8.775  0.3503 -0.4742  0.0772
  108OSM    H7F11155   0.997   3.151   8.802 -0.0622  0.2262 -2.4682
  108OSM    H7G11156   0.882   3.023   8.792  0.6233 -1.1535  1.0644
  108OSM    C8F11157   1.008   3.015   8.629 -0.4724  0.0372  0.2116
  108OSM    H8F11158   0.992   2.906   8.615 -0.9458 -0.3202  3.2047
  108OSM    H8G11159   1.116   3.038   8.614 -0.6671 -1.0014 -3.3978
  108OSM    C9F11160   0.913   3.090   8.546 -0.4973  0.6297 -0.1937
  108OSM    H9F11161   0.819   3.122   8.592 -0.1303  0.5272  0.6391
  108OSM   C10F11162   0.942   3.133   8.420  0.7986 -0.5122  0.8146
  108OSM   H10F11163   0.863   3.185   8.363 -0.8816 -0.2837  3.2558
  108OSM   C11F11164   1.065   3.123   8.346  0.3651 -0.5513  0.4811
  108OSM   H11F11165   1.056   3.043   8.270 -0.0126  0.2116 -0.2888
  108OSM   H11G11166   1.151   3.103   8.414  0.4259  1.3817  1.0166
  108OSM   C12F11167   1.092   3.257   8.277 -0.3380 -0.1518 -0.2574
  108OSM   H12F11168   1.088   3.342   8.349  2.5235 -0.8095  0.7425
  108OSM   H12G11169   1.008   3.275   8.207  0.9382  0.3461 -1.6754
  108OSM   C13F11170   1.222   3.270   8.194  0.9927  0.6932  0.3977
  108OSM   H13F11171   1.303   3.287   8.268  2.4701  1.8626 -1.4431
  108OSM   H13G11172   1.233   3.359   8.129 -1.1267  0.6772 -0.0263
  108OSM   C14F11173   1.252   3.144   8.119 -0.4232  0.5519  0.8779
  108OSM   H14F11174   1.171   3.099   8.058 -1.6272 -0.2494  3.0439
  108OSM   H14G11175   1.276   3.065   8.194 -1.1469 -2.1523 -1.6068
  108OSM   C15F11176   1.378   3.157   8.036 -0.0101  0.2411  0.6100
  108OSM   H15F11177   1.454   3.210   8.096  1.1405 -0.0043 -0.6097
  108OSM   H15G11178   1.361   3.208   7.938  0.3649 -2.9238 -1.1883
  108OSM   C16F11179   1.440   3.026   7.993 -0.2796  0.2573  0.4590
  108OSM   H16F11180   1.466   2.958   8.076  1.0900 -1.3143 -1.2161
  108OSM   H16G11181   1.539   3.060   7.955 -0.6615 -1.6306 -2.4232
  108OSM   C17F11182   1.373   2.943   7.883 -0.1645 -0.2418 -0.5560
  108OSM   H17F11183   1.331   3.018   7.813  1.8469  0.8684 -0.5893
  108OSM   H17G11184   1.279   2.894   7.918  0.2489  1.0336  2.4530
  108OSM   C18F11185   1.456   2.839   7.814 -0.3689  0.4830  0.3489
  108OSM   H18F11186   1.404   2.791   7.728 -0.6678  0.9253  0.2820
  108OSM   H18G11187   1.487   2.750   7.873  0.4377  1.4588  1.4141
  108OSM   H18H11188   1.539   2.888   7.759  0.0060 -0.6209 -0.0867
  109OSM      N11189   1.142   3.892  10.113 -0.4417 -0.0015  0.1727
  109OSM    C1511190   1.164   3.864   9.966  0.0026 -0.0840  0.4571
  109OSM   H15A11191   1.108   3.777   9.935 -0.1781  0.2076 -0.0470
  109OSM   H15B11192   1.270   3.844   9.957  0.2493  1.4333 -0.1585
  109OSM   H15C11193   1.132   3.952   9.912 -1.4992 -1.1035 -0.3586
  109OSM    C1411194   1.006   3.941  10.131 -0.2062 -0.6056 -0.1497
  109OSM   H14A11195   0.982   4.009  10.051  0.5777  0.0444  0.1667
  109OSM   H14B11196   0.999   3.993  10.225 -0.4456 -0.1507 -0.4191
  109OSM   H14C11197   0.928   3.867  10.132 -0.8247  0.0211 -0.9204
  109OSM    C1311198   1.166   3.767  10.196  0.1444  0.2729  0.2767
  109OSM   H13A11199   1.199   3.788  10.297  1.5689 -0.1359 -0.1002
  109OSM   H13B11200   1.249   3.711  10.157  0.7362  0.4805  1.2043
  109OSM   H13C11201   1.080   3.702  10.198  0.8665 -0.7506 -1.2157
  109OSM    C1211202   1.245   3.998  10.143  0.1172 -0.4687  0.2727
  109OSM   H12A11203   1.340   3.963  10.105  0.1361 -0.0717 -0.0483
  109OSM   H12B11204   1.257   4.020  10.249 -0.7405  0.2307  0.2327
  109OSM    C1111205   1.223   4.130  10.073 -0.0817 -0.1805 -0.5275
  109OSM   H11A11206   1.305   4.192  10.115 -0.0076  0.4330 -1.5614
  109OSM   H11B11207   1.129   4.172  10.115  1.0895 -0.3800  2.3924
  109OSM      P11208   1.130   4.203   9.849  0.6221  0.3442  0.3051
  109OSM    O1311209   1.011   4.112   9.850 -0.1807  0.0892  0.5608
  109OSM    O1411210   1.111   4.343   9.901 -0.1933 -0.7132  0.1592
  109OSM    O1111211   1.186   4.216   9.702 -0.7055 -0.2109 -0.7788
  109OSM    O1211212   1.241   4.135   9.931  0.3913 -0.2789 -0.9908
  109OSM    C1S11213   1.232   4.100   9.637 -0.0471  0.4102 -0.1158
  109OSM    H1S11214   1.147   4.029   9.636 -0.0018  0.2890  2.5720
  109OSM    H1T11215   1.320   4.061   9.692 -1.3484 -0.8718  1.0783
  109OSM     NF11216   1.320   4.002   9.431 -0.6718  0.2537 -0.2897
  109OSM    HNF11217   1.417   3.979   9.426 -1.1225 -1.7654 -0.2448
  109OSM    C2S11218   1.285   4.131   9.493 -0.5492 -0.2678  0.4134
  109OSM    H2S11219   1.205   4.180   9.434 -0.1954  1.0884  1.0360
  109OSM    C3S11220   1.414   4.230   9.509 -0.0535 -0.4719 -0.2109
  109OSM    H3S11221   1.491   4.167   9.559  2.5115  2.7140  0.0458
  109OSM     O311222   1.404   4.335   9.610 -0.3529 -0.4386 -0.7488
  109OSM    HO311223   1.325   4.316   9.659  0.7411  0.6607  1.5216
  109OSM    C4S11224   1.457   4.272   9.374  0.3592  0.2634 -0.5958
  109OSM    H4S11225   1.529   4.203   9.328  1.6090  1.4065 -0.4151
  109OSM    C5S11226   1.394   4.366   9.297  0.3706 -0.2843 -0.1953
  109OSM    H5S11227   1.309   4.427   9.329  0.1876 -0.2479 -0.7415
  109OSM    C6S11228   1.450   4.401   9.161  0.0829  0.0806 -0.2115
  109OSM    H6S11229   1.560   4.417   9.161  0.1188 -0.1687  0.1169
  109OSM    H6T11230   1.397   4.491   9.124 -2.9088 -1.6532 -0.2571
  109OSM    C7S11231   1.410   4.286   9.061 -0.1580 -0.7862 -0.2673
  109OSM    H7S11232   1.301   4.266   9.070 -0.0058 -1.4241  0.2894
  109OSM    H7T11233   1.460   4.194   9.097  0.7939 -0.9450 -1.9511
  109OSM    C8S11234   1.438   4.311   8.913 -0.0744 -0.5853 -0.0182
  109OSM    H8S11235   1.433   4.422   8.907  0.6831 -0.6917 -2.9289
  109OSM    H8T11236   1.357   4.262   8.856 -1.1991 -1.5226  2.3069
  109OSM    C9S11237   1.577   4.267   8.865 -0.1690 -0.0523 -0.3042
  109OSM    H9S11238   1.596   4.157   8.871 -1.8781 -0.3275  0.3528
  109OSM    H9T11239   1.661   4.303   8.929 -0.6656  1.5232 -0.5233
  109OSM   C10S11240   1.616   4.333   8.731 -0.0036 -0.8130  0.4989
  109OSM   H10S11241   1.613   4.444   8.737 -2.1145 -0.8457  0.1237
  109OSM   H10T11242   1.544   4.294   8.657 -0.5324 -1.6730  1.4682
  109OSM   C11S11243   1.749   4.274   8.684  0.0187 -0.9668  0.6821
  109OSM   H11S11244   1.761   4.164   8.675  2.3001 -0.6785 -0.1202
  109OSM   H11T11245   1.825   4.304   8.760  2.4654 -1.3929 -1.5069
  109OSM   C12S11246   1.793   4.319   8.540 -0.1744 -0.0790 -0.6570
  109OSM   H12S11247   1.858   4.243   8.492  0.0374  1.3723 -2.6873
  109OSM   H12T11248   1.847   4.416   8.531  3.0664 -1.8470 -0.9264
  109OSM   C13S11249   1.679   4.337   8.436 -0.1555  0.1821 -0.3074
  109OSM   H13S11250   1.664   4.446   8.418  1.6833  0.3555 -0.8985
  109OSM   H13T11251   1.583   4.285   8.452  0.1072 -0.6699 -1.4258
  109OSM   C14S11252   1.723   4.290   8.300  0.0508 -0.3856  0.3608
  109OSM   H14S11253   1.734   4.180   8.286 -0.7637 -0.4730  0.4010
  109OSM   H14T11254   1.820   4.338   8.273 -0.7461 -0.0874 -2.1233
  109OSM   C15S11255   1.638   4.338   8.186  0.0822 -0.0419 -0.1427
  109OSM   H15S11256   1.664   4.445   8.169 -0.2424 -0.2430 -2.0114
  109OSM   H15T11257   1.529   4.323   8.198  0.2561 -1.2541 -0.1003
  109OSM   C16S11258   1.677   4.264   8.058  0.9226 -0.6125  0.6531
  109OSM   H16S11259   1.675   4.154   8.078  2.2740 -0.6619  0.5501
  109OSM   H16T11260   1.778   4.301   8.032  0.9115 -1.1090 -0.1411
  109OSM   C17S11261   1.586   4.295   7.937 -0.5074  0.7859  0.2818
  109OSM   H17S11262   1.604   4.400   7.906  0.1351  0.8157  0.7422
  109OSM   H17T11263   1.480   4.280   7.966 -0.2909  1.3296  1.3501
  109OSM   C18S11264   1.623   4.212   7.807 -0.0922 -0.0373 -0.7380
  109OSM   H18S11265   1.538   4.202   7.735 -0.2884  1.5837 -0.7670
  109OSM   H18T11266   1.644   4.110   7.843  1.1237  0.3955 -0.2100
  109OSM   H18U11267   1.714   4.252   7.757  0.9449 -1.8215 -0.2981
  109OSM    C1F11268   1.218   3.936   9.383 -0.1704  0.6506 -0.1971
  109OSM     OF11269   1.107   3.989   9.376 -0.3401  0.1696 -0.4110
  109OSM    C2F11270   1.244   3.795   9.337 -0.3636 -0.3004 -0.5421
  109OSM    H2F11271   1.154   3.743   9.376 -0.9896 -0.2341 -1.9043
  109OSM    H2G11272   1.333   3.747   9.384 -0.7786 -0.1115  0.4621
  109OSM    C3F11273   1.250   3.777   9.188  0.1734 -0.1089  0.3634
  109OSM    H3F11274   1.274   3.669   9.172  0.6877  0.3098 -1.7959
  109OSM    H3G11275   1.328   3.835   9.135  0.6682 -0.7676  0.3618
  109OSM    C4F11276   1.117   3.805   9.113  0.2719  0.5683  0.1196
  109OSM    H4F11277   1.076   3.905   9.140 -3.2461 -0.3556 -1.5457
  109OSM    H4G11278   1.046   3.729   9.152 -0.6899  2.3774  1.9530
  109OSM    C5F11279   1.125   3.821   8.965  0.1932  0.0789  0.5271
  109OSM    H5F11280   1.028   3.841   8.915  1.4864  0.4472 -1.9106
  109OSM    H5G11281   1.156   3.720   8.931  0.4892  0.4556 -0.3278
  109OSM    C6F11282   1.225   3.930   8.912  0.4032  0.3493  0.1701
  109OSM    H6F11283   1.329   3.922   8.950  0.2122  2.4452  1.2001
  109OSM    H6G11284   1.197   4.028   8.957  2.1091  1.1859 -0.5321
  109OSM    C7F11285   1.234   3.929   8.759  0.2189 -0.6295 -0.6546
  109OSM    H7F11286   1.132   3.920   8.715 -1.0417  2.3026  1.4628
  109OSM    H7G11287   1.277   3.832   8.729  2.5156  0.0011  0.5310
  109OSM    C8F11288   1.311   4.044   8.701 -0.5190  0.0328  0.2164
  109OSM    H8F11289   1.403   4.066   8.759 -1.7539 -0.7768  2.5302
  109OSM    H8G11290   1.249   4.135   8.714  1.1241  1.1564  0.2866
  109OSM    C9F11291   1.361   4.020   8.558  0.9382 -0.0140  1.1914
  109OSM    H9F11292   1.449   3.956   8.545  0.4111 -0.6858  0.9050
  109OSM   C10F11293   1.296   4.076   8.457 -0.2384  0.4647  1.0936
  109OSM   H10F11294   1.346   4.067   8.360  0.0527 -3.6398  1.5109
  109OSM   C11F11295   1.178   4.171   8.462  0.2827  0.5825  0.3327
  109OSM   H11F11296   1.219   4.263   8.511 -0.0477  1.3182 -0.7463
  109OSM   H11G11297   1.091   4.131   8.519 -0.0282  0.7134 -0.0500
  109OSM   C12F11298   1.112   4.206   8.327  0.0192 -0.0795 -0.3741
  109OSM   H12F11299   1.022   4.268   8.349 -0.1599  0.0304 -1.3801
  109OSM   H12G11300   1.076   4.113   8.280 -1.3846 -0.5250  1.5170
  109OSM   C13F11301   1.194   4.291   8.222 -0.3170 -0.0787 -0.1929
  109OSM   H13F11302   1.291   4.239   8.205  0.3867  1.1776 -0.1622
  109OSM   H13G11303   1.216   4.392   8.263  0.8074 -0.4812  0.2316
  109OSM   C14F11304   1.128   4.304   8.083 -0.3814 -0.1261 -0.3584
  109OSM   H14F11305   1.188   4.369   8.015 -2.1910  0.5984 -1.3040
  109OSM   H14G11306   1.036   4.366   8.092  1.4300  2.7783 -1.2056
  109OSM   C15F11307   1.098   4.181   8.006  0.2175  0.2058 -0.3478
  109OSM   H15F11308   1.017   4.125   8.057  0.4355  0.6846  0.5420
  109OSM   H15G11309   1.194   4.125   8.006  1.1103  1.6921  0.0338
  109OSM   C16F11310   1.053   4.203   7.862  0.6139 -0.2946 -0.1023
  109OSM   H16F11311   1.118   4.269   7.801 -1.8964  3.5632  1.2091
  109OSM   H16G11312   0.954   4.253   7.862  1.7505  2.0075 -0.6375
  109OSM   C17F11313   1.059   4.069   7.784 -0.6444  1.0686 -0.1949
  109OSM   H17F11314   1.031   3.987   7.855 -1.1220 -0.0034 -1.5890
  109OSM   H17G11315   1.165   4.053   7.755 -0.3353  0.6899  1.0965
  109OSM   C18F11316   0.974   4.068   7.655 -0.1850 -0.1240 -0.0364
  109OSM   H18F11317   1.012   4.145   7.585  0.6168 -2.2977 -2.0526
  109OSM   H18G11318   0.872   4.100   7.684 -0.0368 -2.8473  3.8999
  109OSM   H18H11319   0.980   3.964   7.616  0.9731 -0.1042  0.0495
  110OSM      N11320   2.296   4.633   9.603  0.3117  0.4478 -0.2099
  110OSM    C1511321   2.444   4.681   9.603 -0.4012 -0.4004  0.6895
  110OSM   H15A11322   2.508   4.597   9.623 -1.2405 -2.2607 -3.8312
  110OSM   H15B11323   2.465   4.742   9.690 -1.3298  1.0565 -0.0705
  110OSM   H15C11324   2.465   4.735   9.511 -2.0871 -1.9896 -0.6637
  110OSM    C1411325   2.292   4.566   9.470  0.2948 -0.1896  0.2631
  110OSM   H14A11326   2.366   4.593   9.397 -1.6164  2.0422 -0.9327
  110OSM   H14B11327   2.194   4.569   9.425  1.2030 -0.0632 -1.7557
  110OSM   H14C11328   2.313   4.461   9.487 -0.2411 -0.4680 -0.7723
  110OSM    C1311329   2.278   4.545   9.719 -0.2033 -0.2652 -0.0263
  110OSM   H13A11330   2.187   4.491   9.698  0.9794 -1.8278 -1.2788
  110OSM   H13B11331   2.276   4.604   9.809 -4.9014  0.2873 -0.3889
  110OSM   H13C11332   2.347   4.461   9.719  0.9736  0.6877  1.6729
  110OSM    C1211333   2.193   4.746   9.605 -0.2565  0.4515  0.3315
  110OSM   H12A11334   2.100   4.722   9.556 -1.0926  0.8750  1.6878
  110OSM   H12B11335   2.231   4.815   9.531 -0.4403  0.5334  0.3151
  110OSM    C1111336   2.180   4.824   9.734 -0.0782  1.2431  0.4447
  110OSM   H11A11337   2.281   4.855   9.768  0.1598 -0.3519  1.2093
  110OSM   H11B11338   2.141   4.752   9.808 -0.4532  1.6516  0.6497
  110OSM      P11339   1.950   4.954   9.760 -0.2682 -0.1361  0.3896
  110OSM    O1311340   1.870   4.835   9.728 -0.3675  0.1615  0.3534
  110OSM    O1411341   1.967   4.975   9.909 -0.0123  0.2995 -0.1848
  110OSM    O1111342   1.890   5.073   9.681 -0.3366 -0.7138  0.0043
  110OSM    O1211343   2.095   4.933   9.705 -0.1463  0.6447 -0.2456
  110OSM    C1S11344   1.919   5.108   9.544  0.2169  0.4445  0.0695
  110OSM    H1S11345   2.026   5.133   9.531 -0.1563  2.1433  0.2530
  110OSM    H1T11346   1.859   5.197   9.520 -0.1462 -0.2147 -1.4930
  110OSM     NF11347   1.919   5.045   9.306  0.3862 -0.3393 -0.3158
  110OSM    HNF11348   1.869   5.122   9.267  0.4644 -0.1439 -0.0249
  110OSM    C2S11349   1.870   5.001   9.432  0.2504  0.3236 -0.4150
  110OSM    H2S11350   1.902   4.900   9.465 -4.7676 -1.8449 -1.6490
  110OSM    C3S11351   1.712   4.997   9.436  0.4650  0.5625  0.2727
  110OSM    H3S11352   1.662   5.096   9.431 -0.9053 -0.0204  1.7637
  110OSM     O311353   1.647   4.935   9.547 -0.8109 -0.3900 -0.4212
  110OSM    HO311354   1.723   4.911   9.600  0.2180 -1.6407 -2.3990
  110OSM    C4S11355   1.675   4.920   9.316  0.4063  0.0084 -0.8713
  110OSM    H4S11356   1.668   4.978   9.222 -0.3993  0.6949 -0.3939
  110OSM    C5S11357   1.655   4.785   9.304  0.1885  0.1381 -0.0097
  110OSM    H5S11358   1.669   4.716   9.388 -0.4033  1.5174  1.2601
  110OSM    C6S11359   1.623   4.699   9.180 -0.0024  1.1015  0.6180
  110OSM    H6S11360   1.512   4.686   9.187 -0.0056 -1.0622 -2.4814
  110OSM    H6T11361   1.670   4.598   9.176  1.0645  1.6009  0.5960
  110OSM    C7S11362   1.669   4.763   9.045  0.4110 -0.0657  1.1115
  110OSM    H7S11363   1.776   4.791   9.052  0.3541  1.0107 -1.6414
  110OSM    H7T11364   1.604   4.852   9.033  1.5406  0.4071 -1.7525
  110OSM    C8S11365   1.651   4.677   8.916 -0.3593  0.3141  0.0864
  110OSM    H8S11366   1.674   4.572   8.943  1.9920  0.7939 -0.0220
  110OSM    H8T11367   1.733   4.696   8.843 -0.2288 -0.6028 -0.0093
  110OSM    C9S11368   1.518   4.701   8.851 -0.2096 -1.0137 -0.5085
  110OSM    H9S11369   1.431   4.698   8.920  1.3480  0.3377  1.6146
  110OSM    H9T11370   1.484   4.624   8.779 -2.6655 -0.1605 -0.3129
  110OSM   C10S11371   1.522   4.828   8.771 -0.0520 -0.5625 -0.2230
  110OSM   H10S11372   1.613   4.829   8.707 -0.3717  0.0614 -0.6668
  110OSM   H10T11373   1.528   4.906   8.850 -2.8824 -1.1124  0.5883
  110OSM   C11S11374   1.399   4.866   8.688  0.0130  0.3003  0.1016
  110OSM   H11S11375   1.420   4.971   8.655 -0.2900  0.2470 -0.2728
  110OSM   H11T11376   1.320   4.872   8.765 -0.8246 -0.9389 -0.6431
  110OSM   C12S11377   1.365   4.783   8.568  0.5644 -0.1720  0.2255
  110OSM   H12S11378   1.282   4.824   8.507  0.7812 -1.1729 -0.7685
  110OSM   H12T11379   1.328   4.683   8.598 -0.2546  0.1124  0.1780
  110OSM   C13S11380   1.483   4.764   8.477  0.2199 -0.1261  0.2861
  110OSM   H13S11381   1.539   4.668   8.490 -3.3160 -1.9889  2.4353
  110OSM   H13T11382   1.544   4.856   8.487 -0.9781  0.6127  0.8047
  110OSM   C14S11383   1.452   4.770   8.325  0.5980 -0.0375  0.1788
  110OSM   H14S11384   1.549   4.759   8.273  0.2661 -1.4862 -0.1545
  110OSM   H14T11385   1.402   4.869   8.312 -0.3959 -0.6693 -1.0048
  110OSM   C15S11386   1.352   4.658   8.283  0.1482  0.2282 -0.5133
  110OSM   H15S11387   1.277   4.636   8.362  2.5011 -0.8016  1.5005
  110OSM   H15T11388   1.409   4.573   8.241 -0.3623  0.0119 -0.7843
  110OSM   C16S11389   1.261   4.689   8.161 -0.2135  0.1864 -0.1149
  110OSM   H16S11390   1.178   4.758   8.188 -0.5473 -0.8100  1.4755
  110OSM   H16T11391   1.203   4.602   8.123  0.4001 -0.0010 -0.6374
  110OSM   C17S11392   1.336   4.749   8.042 -0.6661  0.0388 -0.0042
  110OSM   H17S11393   1.410   4.673   8.009  0.1763 -0.1666  2.2774
  110OSM   H17T11394   1.396   4.836   8.077  2.2032 -1.2098 -1.6595
  110OSM   C18S11395   1.263   4.787   7.920 -0.0745 -0.6803  0.6433
  110OSM   H18S11396   1.327   4.846   7.851 -0.6077  1.7592  2.1796
  110OSM   H18T11397   1.161   4.826   7.941 -0.1026  0.2229 -1.0877
  110OSM   H18U11398   1.249   4.689   7.870 -2.8794 -0.9287  1.8234
  110OSM    C1F11399   2.037   5.010   9.268  0.3881 -0.2599 -0.8547
  110OSM     OF11400   2.105   4.934   9.336 -0.0258 -0.1549 -0.4282
  110OSM    C2F11401   2.089   5.070   9.144 -0.6842  0.3542  0.5791
  110OSM    H2F11402   2.177   5.131   9.174  0.4520 -1.6163  1.2768
  110OSM    H2G11403   2.014   5.129   9.087  1.6556  0.3655 -2.6006
  110OSM    C3F11404   2.153   4.959   9.057 -0.7486 -0.1963 -0.0585
  110OSM    H3F11405   2.240   4.927   9.119  0.0238  0.5457 -0.7569
  110OSM    H3G11406   2.214   5.005   8.976  0.9442  0.5202  1.5761
  110OSM    C4F11407   2.060   4.857   9.002  0.2272 -0.8783 -0.5940
  110OSM    H4F11408   1.979   4.908   8.945  1.4770  2.3398  0.4025
  110OSM    H4G11409   2.005   4.815   9.089  0.1439  1.1310  0.3714
  110OSM    C5F11410   2.134   4.758   8.911 -1.0822 -0.0677 -0.9925
  110OSM    H5F11411   2.066   4.671   8.907 -0.4054 -0.6958  0.6187
  110OSM    H5G11412   2.225   4.733   8.971 -3.1965 -0.5306  2.1254
  110OSM    C6F11413   2.173   4.802   8.771 -0.4732  0.2077 -0.2700
  110OSM    H6F11414   2.235   4.717   8.736 -0.7095 -0.8860  1.8971
  110OSM    H6G11415   2.232   4.896   8.773  0.5773 -0.4370 -0.5858
  110OSM    C7F11416   2.061   4.814   8.676 -0.1246 -0.9548 -0.0379
  110OSM    H7F11417   2.100   4.857   8.580  1.7012 -1.0342  0.6445
  110OSM    H7G11418   1.994   4.893   8.715  0.7945  0.5660 -1.4346
  110OSM    C8F11419   1.987   4.683   8.632  0.6364 -0.1585 -0.0692
  110OSM    H8F11420   1.946   4.633   8.722 -2.3161  2.3934  0.1174
  110OSM    H8G11421   2.069   4.619   8.593 -0.2898 -0.3811 -1.6579
  110OSM    C9F11422   1.884   4.708   8.530  0.1099  0.2488  0.0824
  110OSM    H9F11423   1.780   4.708   8.567  0.7986 -1.2275  2.0764
  110OSM   C10F11424   1.888   4.742   8.405  0.1301  0.4185 -0.1997
  110OSM   H10F11425   1.795   4.756   8.347  0.8833  2.7553 -0.9009
  110OSM   C11F11426   2.008   4.768   8.320  0.8695  0.0062 -0.6807
  110OSM   H11F11427   2.087   4.815   8.384 -1.4657  0.3936  2.0112
  110OSM   H11G11428   1.985   4.841   8.239 -2.3682 -0.1846  0.0089
  110OSM   C12F11429   2.050   4.632   8.261 -0.3268 -0.0773 -0.1870
  110OSM   H12F11430   1.974   4.585   8.195  0.6410  0.0367 -1.4116
  110OSM   H12G11431   2.089   4.556   8.332 -0.6129  0.7134  0.8130
  110OSM   C13F11432   2.175   4.643   8.161 -0.4078 -0.2478  0.0154
  110OSM   H13F11433   2.268   4.681   8.209 -0.1238 -2.2902  1.1339
  110OSM   H13G11434   2.155   4.705   8.071 -2.7518 -1.1911 -0.1295
  110OSM   C14F11435   2.203   4.503   8.092 -0.4659 -0.3469  0.4429
  110OSM   H14F11436   2.252   4.438   8.167 -2.4547  1.2797  3.2320
  110OSM   H14G11437   2.285   4.529   8.021  0.0510 -0.2700  1.0625
  110OSM   C15F11438   2.081   4.434   8.019  0.0782  0.2990  0.0906
  110OSM   H15F11439   2.025   4.509   7.960 -1.9565 -0.5409  0.9231
  110OSM   H15G11440   2.014   4.382   8.090 -0.0286 -0.3902 -0.5145
  110OSM   C16F11441   2.139   4.329   7.926  0.0500 -0.0203 -0.2995
  110OSM   H16F11442   2.218   4.273   7.980  1.2902 -0.0695 -2.1225
  110OSM   H16G11443   2.200   4.373   7.844  0.8334  1.1883  0.8923
  110OSM   C17F11444   2.037   4.237   7.860 -0.6927 -0.1917  0.6954
  110OSM   H17F11445   1.966   4.304   7.809  0.0686 -0.5084 -0.8070
  110OSM   H17G11446   1.974   4.176   7.929  0.5333 -1.7420  0.4759
  110OSM   C18F11447   2.086   4.149   7.748 -0.6854  0.1349  0.5819
  110OSM   H18F11448   2.001   4.114   7.685 -1.6237  0.5896  1.5661
  110OSM   H18G11449   2.127   4.058   7.797 -1.1476  0.2444  1.1735
  110OSM   H18H11450   2.156   4.203   7.682 -1.3435  0.8624  0.4734
  111OSM      N11451   4.120   1.281  10.112 -0.4920  0.3345  0.6091
  111OSM    C1511452   4.178   1.166  10.173  0.0511  0.2332  0.4111
  111OSM   H15A11453   4.137   1.169  10.273 -1.2406 -0.3977 -0.0933
  111OSM   H15B11454   4.285   1.173  10.188 -0.1820  2.9716  1.1031
  111OSM   H15C11455   4.167   1.069  10.128  2.9420 -0.4170  0.9905
  111OSM    C1411456   3.971   1.259  10.085  1.0900  0.4748 -0.3240
  111OSM   H14A11457   3.930   1.351  10.047  1.5221  1.4131  1.4229
  111OSM   H14B11458   3.925   1.230  10.179  1.9057  0.2761  0.0154
  111OSM   H14C11459   3.961   1.174  10.019 -2.8343  1.7324 -1.4702
  111OSM    C1311460   4.143   1.404  10.199 -0.8344  0.5407  0.0657
  111OSM   H13A11461   4.089   1.400  10.292  1.4363 -2.1828  1.3737
  111OSM   H13B11462   4.100   1.489  10.149 -0.6003  2.0536  2.3979
  111OSM   H13C11463   4.248   1.424  10.214 -0.5043 -3.1636  3.6555
  111OSM    C1211464   4.198   1.316   9.988  0.6279 -0.6868 -0.8363
  111OSM   H12A11465   4.292   1.358  10.018 -0.2134  0.0344  0.7870
  111OSM   H12B11466   4.155   1.395   9.928 -0.1992  0.4952  1.2736
  111OSM    C1111467   4.231   1.205   9.886 -0.1870 -0.1451 -0.1518
  111OSM   H11A11468   4.289   1.120   9.929  3.0951  2.4312  0.6716
  111OSM   H11B11469   4.309   1.253   9.824  0.2511  1.4700  1.6018
  111OSM      P11470   4.077   1.004   9.805 -0.2901  0.4164  0.0826
  111OSM    O1311471   4.200   0.915   9.809  0.0247  1.0493 -0.5420
  111OSM    O1411472   3.973   0.974   9.906 -0.4660  0.3649 -0.0257
  111OSM    O1111473   4.014   1.005   9.666 -0.0909 -0.0227  0.5512
  111OSM    O1211474   4.116   1.155   9.818  0.0318 -0.2751 -0.0990
  111OSM    C1S11475   3.899   1.086   9.630 -0.0906  0.2701 -0.0874
  111OSM    H1S11476   3.906   1.191   9.666  2.9874  0.3592 -0.7612
  111OSM    H1T11477   3.820   1.043   9.694  0.0981  1.1841  0.7769
  111OSM     NF11478   3.765   1.194   9.461 -0.0512  0.2325 -0.0436
  111OSM    HNF11479   3.672   1.171   9.436  0.2573 -1.6894  0.5144
  111OSM    C2S11480   3.864   1.088   9.483  0.1371  0.7188 -0.1116
  111OSM    H2S11481   3.956   1.109   9.424  0.4881  0.5962  0.3847
  111OSM    C3S11482   3.825   0.936   9.443 -0.0097 -0.5125 -0.0667
  111OSM    H3S11483   3.732   0.915   9.500 -0.4037 -0.7162 -0.7802
  111OSM     O311484   3.904   0.835   9.496 -0.5953  0.1356 -0.4446
  111OSM    HO311485   3.952   0.874   9.570 -0.4191 -0.1972 -0.3834
  111OSM    C4S11486   3.808   0.921   9.290 -0.7331 -0.3695  0.8466
  111OSM    H4S11487   3.720   0.970   9.245  0.7708  1.1768 -0.4648
  111OSM    C5S11488   3.898   0.863   9.200 -0.3303  0.3307  0.1113
  111OSM    H5S11489   3.982   0.808   9.243 -0.5718 -1.6292 -1.8142
  111OSM    C6S11490   3.867   0.848   9.054  0.7585 -0.4203 -0.0342
  111OSM    H6S11491   3.770   0.894   9.025  0.1649 -1.3514  0.4660
  111OSM    H6T11492   3.848   0.740   9.035 -1.9026  0.0187 -0.0897
  111OSM    C7S11493   3.972   0.919   8.970  0.8222  0.0398 -0.0299
  111OSM    H7S11494   4.075   0.877   8.967  1.3577  1.3630 -1.2702
  111OSM    H7T11495   3.980   1.021   9.014  0.1479  0.0611  0.0525
  111OSM    C8S11496   3.928   0.931   8.825  0.4704  0.5368 -0.2116
  111OSM    H8S11497   3.860   1.019   8.821 -1.1198 -0.6699 -0.2878
  111OSM    H8T11498   3.860   0.845   8.805  2.6518 -0.5198 -3.4052
  111OSM    C9S11499   4.043   0.922   8.721  0.1689  0.1832 -0.0612
  111OSM    H9S11500   4.110   0.844   8.764  0.0943  1.1196  1.8180
  111OSM    H9T11501   4.090   1.022   8.716  1.4721 -0.5099 -2.5739
  111OSM   C10S11502   3.996   0.891   8.584  0.2982 -0.6649 -0.2715
  111OSM   H10S11503   3.928   0.971   8.547  2.5126  1.1994 -0.4264
  111OSM   H10T11504   3.939   0.796   8.593 -2.9726  1.3180  0.5840
  111OSM   C11S11505   4.103   0.876   8.478 -0.1144  0.0609  0.3488
  111OSM   H11S11506   4.157   0.778   8.487  0.0328  0.1739  0.7073
  111OSM   H11T11507   4.162   0.969   8.491  0.8716 -0.4572 -0.2578
  111OSM   C12S11508   4.041   0.889   8.332  0.2836  0.0276 -0.1907
  111OSM   H12S11509   3.967   0.972   8.333 -2.5845 -2.3983  3.2036
  111OSM   H12T11510   3.982   0.798   8.309  0.8048 -0.4654  0.4073
  111OSM   C13S11511   4.139   0.895   8.224  0.1006  0.6927  0.2971
  111OSM   H13S11512   4.222   0.823   8.242 -0.0080 -0.3686 -3.1039
  111OSM   H13T11513   4.183   0.995   8.207 -0.8283  1.0672  0.0419
  111OSM   C14S11514   4.071   0.858   8.080 -0.8671  0.0227 -0.6026
  111OSM   H14S11515   3.999   0.936   8.048  0.4488  1.1130 -0.9537
  111OSM   H14T11516   4.007   0.767   8.084  0.2924 -0.7770  0.1044
  111OSM   C15S11517   4.185   0.834   7.978 -0.6674 -0.0448 -0.0422
  111OSM   H15S11518   4.239   0.751   8.028 -0.1142  1.6905  2.3571
  111OSM   H15T11519   4.251   0.922   7.960  0.0480 -0.4477  0.6102
  111OSM   C16S11520   4.131   0.776   7.843  0.5814  0.1111  0.5798
  111OSM   H16S11521   4.058   0.852   7.809 -0.4701 -0.5192  1.3961
  111OSM   H16T11522   4.081   0.682   7.873  0.4290  0.4527  1.3967
  111OSM   C17S11523   4.234   0.746   7.736 -0.7388 -0.6562  0.1766
  111OSM   H17S11524   4.303   0.661   7.760 -2.1873 -2.0349 -0.4441
  111OSM   H17T11525   4.300   0.835   7.739 -2.9713  1.0322  0.0450
  111OSM   C18S11526   4.178   0.727   7.590  0.2725  0.1108 -0.3715
  111OSM   H18S11527   4.108   0.641   7.594 -0.4770  0.7258 -0.2036
  111OSM   H18T11528   4.251   0.712   7.508  1.8327 -0.6339  1.1218
  111OSM   H18U11529   4.114   0.815   7.566  0.2813 -0.0153 -0.8491
  111OSM    C1F11530   3.802   1.318   9.482 -0.7254 -0.3641 -0.2492
  111OSM     OF11531   3.920   1.348   9.472  0.0478  0.2004  0.2140
  111OSM    C2F11532   3.701   1.420   9.524 -0.1067  0.0960 -0.7007
  111OSM    H2F11533   3.744   1.476   9.610  1.5784 -0.2965 -1.2792
  111OSM    H2G11534   3.607   1.373   9.560  0.9843 -1.6541 -0.0784
  111OSM    C3F11535   3.665   1.509   9.394  0.5035 -0.7344  0.4507
  111OSM    H3F11536   3.573   1.570   9.407 -0.1119 -1.8397  1.3790
  111OSM    H3G11537   3.647   1.442   9.308 -3.0515  0.2112  0.3960
  111OSM    C4F11538   3.778   1.606   9.352  0.1208  0.3210  0.8482
  111OSM    H4F11539   3.867   1.545   9.326  1.0968  1.2734  1.9378
  111OSM    H4G11540   3.808   1.672   9.436 -2.1999  0.8822  1.2846
  111OSM    C5F11541   3.733   1.703   9.240  0.2038 -0.1054 -0.5543
  111OSM    H5F11542   3.650   1.761   9.286  0.5401  0.5850 -0.8144
  111OSM    H5G11543   3.693   1.643   9.156 -1.7179 -0.1729  0.3738
  111OSM    C6F11544   3.828   1.809   9.189 -0.0955 -0.6835  0.2530
  111OSM    H6F11545   3.867   1.857   9.281  1.3338 -0.9349 -0.2094
  111OSM    H6G11546   3.772   1.890   9.136 -1.7291 -1.9662 -0.0344
  111OSM    C7F11547   3.955   1.765   9.116 -0.1476 -0.2418  0.4708
  111OSM    H7F11548   3.930   1.733   9.013  1.0181  1.8294 -0.4889
  111OSM    H7G11549   4.007   1.686   9.175  1.4991  0.2304 -0.3056
  111OSM    C8F11550   4.040   1.890   9.088  0.2285  0.0096  0.0935
  111OSM    H8F11551   4.019   1.960   9.171  0.4585  0.2947 -0.0870
  111OSM    H8G11552   3.993   1.942   9.002 -1.2349  3.0935  2.6362
  111OSM    C9F11553   4.190   1.868   9.071  0.1981  0.8363  0.2950
  111OSM    H9F11554   4.252   1.866   9.161 -0.8133  1.1162  1.0100
  111OSM   C10F11555   4.255   1.853   8.955 -0.4706 -0.6956  0.1649
  111OSM   H10F11556   4.360   1.821   8.961 -0.4189 -0.1707  2.4006
  111OSM   C11F11557   4.194   1.841   8.820 -0.4510 -0.3867  0.1190
  111OSM   H11F11558   4.242   1.912   8.750 -2.6861  1.2776  0.2124
  111OSM   H11G11559   4.087   1.871   8.816 -0.7306 -1.1125  1.7754
  111OSM   C12F11560   4.203   1.695   8.751 -0.1285  0.1993  0.9506
  111OSM   H12F11561   4.144   1.701   8.657  0.6205  0.0818  0.4709
  111OSM   H12G11562   4.164   1.610   8.811  2.1182 -1.0477  0.7069
  111OSM   C13F11563   4.345   1.642   8.698  0.2736  0.4449 -1.1432
  111OSM   H13F11564   4.410   1.663   8.786  3.3149  2.1293 -3.6929
  111OSM   H13G11565   4.386   1.704   8.616  0.0349  2.0553 -0.0698
  111OSM   C14F11566   4.343   1.492   8.674 -0.1608  0.3404  0.1632
  111OSM   H14F11567   4.291   1.431   8.750 -0.1921 -0.3905 -0.4413
  111OSM   H14G11568   4.450   1.466   8.690 -0.3586  0.4140  1.6193
  111OSM   C15F11569   4.300   1.453   8.530 -0.3997 -0.0900 -0.2061
  111OSM   H15F11570   4.347   1.526   8.460  0.7430  2.8248  3.4728
  111OSM   H15G11571   4.192   1.477   8.514 -0.1009  2.8926  1.9179
  111OSM   C16F11572   4.342   1.310   8.485 -0.5733 -0.9727  0.2841
  111OSM   H16F11573   4.311   1.244   8.569 -0.0762  2.7044  3.5022
  111OSM   H16G11574   4.453   1.311   8.486 -0.5112  3.1640 -1.1718
  111OSM   C17F11575   4.283   1.265   8.348  0.4214 -0.7776  0.0703
  111OSM   H17F11576   4.175   1.247   8.364  0.5314 -0.5916  1.1008
  111OSM   H17G11577   4.322   1.162   8.333 -2.1590 -1.7219 -0.3259
  111OSM   C18F11578   4.294   1.345   8.224  0.1247  0.7460 -0.2910
  111OSM   H18F11579   4.400   1.355   8.192  0.0389  1.5761 -0.3254
  111OSM   H18G11580   4.261   1.449   8.245 -1.1028  0.5081 -0.9743
  111OSM   H18H11581   4.234   1.292   8.147  1.1619  4.5172 -3.8586
  112OSM      N11582   3.065   5.801  10.002 -0.4661 -0.4088 -0.2722
  112OSM    C1511583   3.185   5.713   9.987  0.3394  0.2942  0.3787
  112OSM   H15A11584   3.268   5.729  10.053  0.6924  2.5282 -0.5658
  112OSM   H15B11585   3.223   5.711   9.886  1.3167  2.3129  0.6773
  112OSM   H15C11586   3.157   5.611  10.008 -0.2531 -0.1908 -2.5185
  112OSM    C1411587   3.022   5.785  10.138  0.0884 -0.7479 -0.0201
  112OSM   H14A11588   2.991   5.683  10.159 -1.5208 -0.4905 -1.0544
  112OSM   H14B11589   2.936   5.844  10.167  0.2046 -0.0734 -1.0495
  112OSM   H14C11590   3.096   5.811  10.212 -0.4158 -0.0254  0.2372
  112OSM    C1311591   3.106   5.948   9.972  0.4486  0.7205 -0.2457
  112OSM   H13A11592   3.211   5.963   9.992  0.5217 -0.1066  0.0152
  112OSM   H13B11593   3.030   6.013  10.014  0.3747 -0.5122  1.5788
  112OSM   H13C11594   3.103   5.963   9.865 -1.7608 -0.8831 -0.4395
  112OSM    C1211595   2.956   5.767   9.902  0.2745 -0.4718 -0.3425
  112OSM   H12A11596   3.002   5.755   9.804 -1.2627 -3.3965 -0.7374
  112OSM   H12B11597   2.886   5.849   9.905  0.2507 -0.5334  0.9130
  112OSM    C1111598   2.880   5.630   9.908 -0.0236  0.4237 -0.0415
  112OSM   H11A11599   2.784   5.637   9.853  1.2285  1.5347 -2.1314
  112OSM   H11B11600   2.849   5.617  10.014  0.7956  0.4954  0.2025
  112OSM      P11601   2.979   5.480   9.723 -0.2209 -0.2606 -0.3671
  112OSM    O1311602   3.030   5.595   9.648 -0.2219  0.0917  0.4598
  112OSM    O1411603   3.045   5.353   9.717 -0.0875  0.0034 -0.1459
  112OSM    O1111604   2.829   5.439   9.669 -0.1964  0.2366 -0.2038
  112OSM    O1211605   2.961   5.520   9.877  0.3219  1.0411  0.0543
  112OSM    C1S11606   2.760   5.532   9.587 -0.1129 -0.5804  0.7895
  112OSM    H1S11607   2.818   5.533   9.492 -0.3907  0.7514  0.6339
  112OSM    H1T11608   2.753   5.634   9.629  1.8363 -0.5085  0.9642
  112OSM     NF11609   2.543   5.582   9.467  0.7361 -0.0559 -0.2384
  112OSM    HNF11610   2.482   5.657   9.492  0.5779 -0.6031  1.0980
  112OSM    C2S11611   2.603   5.506   9.572 -0.3968 -0.4409  0.6531
  112OSM    H2S11612   2.595   5.401   9.537 -1.0327 -0.3105  0.4108
  112OSM    C3S11613   2.531   5.518   9.707 -0.3702 -0.1183  0.1914
  112OSM    H3S11614   2.523   5.623   9.740 -4.5377  0.1216 -1.3034
  112OSM     O311615   2.606   5.438   9.803 -0.3351  0.1138  0.6433
  112OSM    HO311616   2.691   5.422   9.761  0.9454  0.5174  3.0225
  112OSM    C4S11617   2.396   5.461   9.696  0.4117 -0.0019  0.7875
  112OSM    H4S11618   2.387   5.358   9.660 -1.2679  0.3437  0.1785
  112OSM    C5S11619   2.278   5.529   9.712 -0.2569  0.0208  0.1421
  112OSM    H5S11620   2.289   5.636   9.732  0.9631  0.1815 -1.2844
  112OSM    C6S11621   2.141   5.470   9.696 -0.1719 -0.1490  0.2188
  112OSM    H6S11622   2.075   5.511   9.776 -0.1088 -0.8984  0.6663
  112OSM    H6T11623   2.151   5.361   9.713  0.9252 -0.4881 -2.4613
  112OSM    C7S11624   2.076   5.502   9.563  0.1216 -0.0961 -1.0919
  112OSM    H7S11625   2.044   5.608   9.564 -1.7076 -0.6418 -1.2090
  112OSM    H7T11626   1.986   5.438   9.554 -1.9015  2.4745  0.1298
  112OSM    C8S11627   2.163   5.482   9.436 -0.0170 -0.2110 -0.0586
  112OSM    H8S11628   2.224   5.389   9.439  0.2904  0.0514  2.4651
  112OSM    H8T11629   2.232   5.567   9.419  1.4191 -1.1314  1.1264
  112OSM    C9S11630   2.067   5.464   9.317  0.0346  0.1725 -0.3586
  112OSM    H9S11631   1.999   5.552   9.307 -1.3089 -0.4827  2.4162
  112OSM    H9T11632   1.994   5.381   9.324  0.9429 -0.9069 -3.0544
  112OSM   C10S11633   2.148   5.455   9.184  0.2734 -0.1456 -0.6951
  112OSM   H10S11634   2.146   5.348   9.153  1.8675 -0.2207 -0.5693
  112OSM   H10T11635   2.248   5.502   9.193 -0.1080  0.2272  2.1269
  112OSM   C11S11636   2.082   5.535   9.065  0.4642 -0.6702 -0.3817
  112OSM   H11S11637   2.092   5.644   9.081 -0.9988 -0.5337 -0.3598
  112OSM   H11T11638   1.974   5.517   9.050  0.2348 -0.2423  0.7086
  112OSM   C12S11639   2.156   5.504   8.941  0.4724 -0.3014 -0.2798
  112OSM   H12S11640   2.258   5.469   8.967  0.1682 -0.5914  0.5411
  112OSM   H12T11641   2.153   5.598   8.883 -1.7141 -0.2920 -0.1770
  112OSM   C13S11642   2.088   5.402   8.852  0.3599 -0.1749 -0.3435
  112OSM   H13S11643   1.987   5.425   8.811 -0.3414  0.3986  1.6618
  112OSM   H13T11644   2.082   5.307   8.910  4.0186 -0.2835 -0.0387
  112OSM   C14S11645   2.181   5.364   8.730 -0.0720  0.2935 -0.1815
  112OSM   H14S11646   2.267   5.306   8.768 -0.1949  0.6480  0.6590
  112OSM   H14T11647   2.202   5.459   8.677  1.6901 -0.1823 -0.3668
  112OSM   C15S11648   2.104   5.262   8.640 -0.2474 -0.4772 -0.2475
  112OSM   H15S11649   2.008   5.309   8.608  0.8674  1.5994 -0.6229
  112OSM   H15T11650   2.082   5.164   8.687 -1.8673 -0.9766 -1.9700
  112OSM   C16S11651   2.184   5.224   8.512  0.3929  0.1059  0.0442
  112OSM   H16S11652   2.275   5.171   8.548  1.4809  1.4023 -0.7650
  112OSM   H16T11653   2.210   5.312   8.450 -3.1380 -0.0648 -1.8264
  112OSM   C17S11654   2.097   5.140   8.416 -0.0504 -0.3629  0.8670
  112OSM   H17S11655   2.005   5.196   8.388  0.2855 -0.0013  0.4804
  112OSM   H17T11656   2.065   5.045   8.463 -1.0274 -1.0203 -1.0822
  112OSM   C18S11657   2.172   5.104   8.284 -0.4016 -0.5506 -0.3228
  112OSM   H18S11658   2.104   5.059   8.209  1.9207 -0.2166 -2.6691
  112OSM   H18T11659   2.251   5.029   8.308  0.5810  0.4389 -0.4089
  112OSM   H18U11660   2.209   5.199   8.242  0.3697 -1.5692 -1.9883
  112OSM    C1F11661   2.579   5.561   9.340  0.2851 -0.6425  0.6183
  112OSM     OF11662   2.655   5.468   9.308  0.5709 -0.1764 -0.4459
  112OSM    C2F11663   2.539   5.662   9.232  0.2990  0.2015  0.7194
  112OSM    H2F11664   2.615   5.743   9.230  2.0866 -1.4177 -3.3318
  112OSM    H2G11665   2.441   5.705   9.260  0.9271  1.1352  1.5027
  112OSM    C3F11666   2.525   5.600   9.092 -0.2942  0.0500 -0.0212
  112OSM    H3F11667   2.457   5.512   9.101 -0.0545  0.0422  1.7887
  112OSM    H3G11668   2.621   5.569   9.046 -0.8493 -0.1685 -1.0432
  112OSM    C4F11669   2.444   5.693   8.999  0.0886  0.0357  0.3691
  112OSM    H4F11670   2.340   5.706   9.035  0.5459  1.3584  1.2466
  112OSM    H4G11671   2.451   5.639   8.902 -1.4185  2.7695 -1.3066
  112OSM    C5F11672   2.516   5.829   8.997 -0.4837 -0.6505 -0.4475
  112OSM    H5F11673   2.622   5.810   8.970 -0.3268 -1.0346  0.4196
  112OSM    H5G11674   2.520   5.877   9.097 -4.7473 -0.8224 -0.0980
  112OSM    C6F11675   2.448   5.925   8.895 -0.3913  0.2971 -0.0387
  112OSM    H6F11676   2.531   5.990   8.861  1.7105 -2.5166 -0.4317
  112OSM    H6G11677   2.384   5.997   8.951 -0.0948  0.5007  0.0393
  112OSM    C7F11678   2.357   5.866   8.792 -0.0403 -0.4154  0.1113
  112OSM    H7F11679   2.273   5.814   8.844  0.1080  0.8311  1.6206
  112OSM    H7G11680   2.409   5.785   8.738  1.1827  1.1018 -1.0248
  112OSM    C8F11681   2.287   5.964   8.699 -0.1443  1.3414 -0.2281
  112OSM    H8F11682   2.363   6.021   8.641  1.1885  1.3678  1.4878
  112OSM    H8G11683   2.232   6.047   8.748 -0.7466 -0.0606  1.5138
  112OSM    C9F11684   2.185   5.889   8.611  0.0070 -0.3322 -0.1499
  112OSM    H9F11685   2.117   5.818   8.659  0.9467  0.2694  2.1125
  112OSM   C10F11686   2.175   5.904   8.484  0.2295 -0.0978  1.1246
  112OSM   H10F11687   2.117   5.830   8.426  0.8618 -1.4009  2.1189
  112OSM   C11F11688   2.263   5.994   8.397 -0.3737 -0.1734  0.8307
  112OSM   H11F11689   2.360   6.023   8.444  1.8292 -1.7709 -2.5450
  112OSM   H11G11690   2.218   6.093   8.376 -1.5945 -0.9998 -0.4887
  112OSM   C12F11691   2.299   5.920   8.267 -0.0443  0.5442  0.4660
  112OSM   H12F11692   2.361   5.990   8.207 -3.0463  3.4405  0.6059
  112OSM   H12G11693   2.214   5.918   8.196  1.6489  0.2654 -1.6335
  112OSM   C13F11694   2.366   5.781   8.272  0.4590 -0.4340 -0.0370
  112OSM   H13F11695   2.301   5.712   8.330  0.7155 -1.4110 -0.8961
  112OSM   H13G11696   2.455   5.787   8.338  0.7238 -1.3453 -0.3118
  112OSM   C14F11697   2.415   5.725   8.135  0.3566  0.1686  0.3862
  112OSM   H14F11698   2.456   5.625   8.161  1.9310  1.4264  2.9003
  112OSM   H14G11699   2.489   5.790   8.082  2.3976 -1.8774  0.6568
  112OSM   C15F11700   2.301   5.707   8.029 -0.2830  0.0223 -0.4879
  112OSM   H15F11701   2.342   5.668   7.933 -0.9510  2.1300 -1.6733
  112OSM   H15G11702   2.249   5.802   8.006  0.4342  0.5086 -0.0860
  112OSM   C16F11703   2.189   5.607   8.077  0.0174  0.4322  0.1234
  112OSM   H16F11704   2.136   5.651   8.163 -1.4064 -1.1243  0.0757
  112OSM   H16G11705   2.246   5.519   8.114 -0.2642  0.0151 -0.4318
  112OSM   C17F11706   2.095   5.563   7.967  0.6614  0.9564 -0.6878
  112OSM   H17F11707   2.047   5.661   7.947 -1.3508  1.0596  4.0807
  112OSM   H17G11708   2.020   5.496   8.015  0.8768  2.6580  2.0683
  112OSM   C18F11709   2.153   5.483   7.846 -0.3875  0.3316  0.9977
  112OSM   H18F11710   2.211   5.548   7.778 -2.5590 -0.1611 -1.3902
  112OSM   H18G11711   2.072   5.441   7.783 -0.2855  0.7866  0.5638
  112OSM   H18H11712   2.210   5.395   7.882 -0.7014 -0.4755 -0.4444
  113OSM      N11713   1.798   2.303   9.886  0.2106  0.5560  0.1646
  113OSM    C1511714   1.899   2.195   9.839  0.1329 -0.3844  0.4758
  113OSM   H15A11715   1.853   2.097   9.839 -0.9150  0.0397 -2.4566
  113OSM   H15B11716   1.985   2.198   9.904  2.2364  4.0101 -2.2265
  113OSM   H15C11717   1.925   2.216   9.736 -3.0076 -1.0017 -0.5107
  113OSM    C1411718   1.761   2.261  10.030 -0.0801  0.2447  0.4137
  113OSM   H14A11719   1.677   2.193  10.020 -0.8833  1.3045 -0.3145
  113OSM   H14B11720   1.726   2.349  10.083  1.5805  1.5824 -0.6454
  113OSM   H14C11721   1.846   2.231  10.089 -0.4400 -3.0736 -0.6806
  113OSM    C1311722   1.869   2.426   9.897 -0.4911  0.5951 -0.3602
  113OSM   H13A11723   1.947   2.418   9.971 -0.5341 -0.7831 -0.4473
  113OSM   H13B11724   1.807   2.510   9.923  1.3764  2.0976 -0.6610
  113OSM   H13C11725   1.925   2.453   9.808  1.1512 -0.8832  0.1993
  113OSM    C1211726   1.688   2.307   9.786 -0.1621 -0.9549 -0.0063
  113OSM   H12A11727   1.736   2.310   9.689 -3.4341 -1.1723 -1.6763
  113OSM   H12B11728   1.641   2.404   9.799 -0.5978 -1.2174  0.3802
  113OSM    C1111729   1.587   2.182   9.769 -0.2771  0.2235 -0.1772
  113OSM   H11A11730   1.633   2.083   9.787 -0.1951 -0.1956 -2.4432
  113OSM   H11B11731   1.567   2.176   9.659  0.6894  1.1439 -0.4136
  113OSM      P11732   1.353   2.086   9.862 -0.0732  0.1365 -0.4944
  113OSM    O1311733   1.423   1.971   9.921 -0.1053  0.0721 -0.0620
  113OSM    O1411734   1.240   2.144   9.934 -0.3490 -0.0441  0.5050
  113OSM    O1111735   1.301   2.056   9.714 -0.3079  0.1094 -0.3716
  113OSM    O1211736   1.469   2.197   9.848 -0.7618 -1.0315 -0.4300
  113OSM    C1S11737   1.225   1.927   9.693 -0.0377  0.1449 -0.2733
  113OSM    H1S11738   1.131   1.929   9.752  0.5529 -1.0435  0.7376
  113OSM    H1T11739   1.282   1.836   9.721  0.9298  0.3176 -1.6217
  113OSM     NF11740   1.083   1.803   9.540  0.1591  0.1487  0.2001
  113OSM    HNF11741   1.119   1.711   9.525  0.7801  0.5473 -0.7883
  113OSM    C2S11742   1.182   1.909   9.548 -0.0153 -0.4640  0.4387
  113OSM    H2S11743   1.148   2.001   9.496 -1.0149 -1.7328 -1.1754
  113OSM    C3S11744   1.312   1.874   9.471 -0.0977 -0.4741  1.1636
  113OSM    H3S11745   1.350   1.780   9.517  0.5656 -0.0635  1.4730
  113OSM     O311746   1.419   1.971   9.474  0.1882 -0.3708 -0.2807
  113OSM    HO311747   1.412   2.017   9.558 -2.1091 -0.3666 -0.4626
  113OSM    C4S11748   1.280   1.849   9.328  0.5720 -0.3458 -0.8614
  113OSM    H4S11749   1.265   1.939   9.267 -3.8155 -0.9713 -0.8597
  113OSM    C5S11750   1.253   1.733   9.271  0.1643  0.3580  0.4649
  113OSM    H5S11751   1.241   1.644   9.335  0.4529 -0.7701 -1.0309
  113OSM    C6S11752   1.226   1.712   9.119  0.0845  0.1843 -0.5604
  113OSM    H6S11753   1.121   1.681   9.100 -0.4370  0.1770  2.1546
  113OSM    H6T11754   1.290   1.629   9.083 -1.5296 -2.0474  1.5791
  113OSM    C7S11755   1.241   1.839   9.029 -0.2076 -0.1917 -0.2482
  113OSM    H7S11756   1.344   1.880   9.026  0.2247 -1.3187 -2.7888
  113OSM    H7T11757   1.171   1.919   9.060  1.3701  0.8362  0.6450
  113OSM    C8S11758   1.211   1.814   8.882  0.6471  0.1761 -0.1926
  113OSM    H8S11759   1.111   1.769   8.862  1.2235 -1.2224  0.0271
  113OSM    H8T11760   1.289   1.746   8.841  2.2851  1.7765  0.2136
  113OSM    C9S11761   1.202   1.937   8.789  0.0701 -0.3636  0.0688
  113OSM    H9S11762   1.288   1.989   8.743 -0.1619 -0.5364 -0.5588
  113OSM    H9T11763   1.147   2.017   8.844 -3.2848 -1.6036 -1.3332
  113OSM   C10S11764   1.112   1.914   8.672  0.0264  0.6648 -0.7201
  113OSM   H10S11765   1.013   1.876   8.705  0.3331 -0.6932 -1.3091
  113OSM   H10T11766   1.153   1.833   8.607  0.3664 -0.3981  0.8029
  113OSM   C11S11767   1.100   2.036   8.576 -0.1423 -0.2988  0.1296
  113OSM   H11S11768   1.036   1.987   8.499  0.8702 -0.2418 -0.7624
  113OSM   H11T11769   1.202   2.057   8.537 -0.8342  3.7909  0.3340
  113OSM   C12S11770   1.031   2.162   8.636  0.0097  0.1605  0.3543
  113OSM   H12S11771   1.117   2.197   8.698 -0.3359 -2.3413  2.3509
  113OSM   H12T11772   0.943   2.145   8.701  0.1438  3.2557  1.4003
  113OSM   C13S11773   0.998   2.269   8.538  0.8652  0.3492  0.2020
  113OSM   H13S11774   0.887   2.269   8.534  0.9158  1.5817 -2.1487
  113OSM   H13T11775   1.030   2.241   8.435  0.7609 -1.5822  0.6875
  113OSM   C14S11776   1.073   2.400   8.551  0.0295 -0.0189 -1.0611
  113OSM   H14S11777   1.181   2.376   8.561  0.1516  0.1861 -1.7940
  113OSM   H14T11778   1.032   2.457   8.637 -0.3313  1.5325 -2.2408
  113OSM   C15S11779   1.056   2.490   8.428  0.3684  0.4387 -0.6826
  113OSM   H15S11780   0.951   2.517   8.404  0.6287  0.6463 -1.5837
  113OSM   H15T11781   1.091   2.432   8.340 -0.0896  0.4080 -0.8427
  113OSM   C16S11782   1.150   2.618   8.429  0.2703 -0.8350 -0.7528
  113OSM   H16S11783   1.247   2.589   8.384  3.3336 -1.3514  5.6020
  113OSM   H16T11784   1.168   2.625   8.538 -1.0716 -1.6484 -0.4672
  113OSM   C17S11785   1.093   2.739   8.362  0.2128  0.9094 -0.2962
  113OSM   H17S11786   1.138   2.831   8.405  2.2062 -1.3228  2.5870
  113OSM   H17T11787   0.984   2.760   8.369  0.4118  1.3916  1.5422
  113OSM   C18S11788   1.121   2.739   8.216 -0.5195  0.5352 -0.6278
  113OSM   H18S11789   1.049   2.664   8.174  0.7067 -0.2354 -1.3854
  113OSM   H18T11790   1.225   2.719   8.182  0.2582 -1.1030  2.5233
  113OSM   H18U11791   1.102   2.838   8.170 -0.4213  0.1929 -1.4204
  113OSM    C1F11792   0.959   1.816   9.585  0.1791 -0.3101 -0.1445
  113OSM     OF11793   0.920   1.911   9.652 -0.4329 -0.1719  0.1255
  113OSM    C2F11794   0.863   1.713   9.539  0.1885 -0.6403  0.2169
  113OSM    H2F11795   0.872   1.632   9.615  1.1176 -1.0106 -0.2747
  113OSM    H2G11796   0.893   1.666   9.443 -2.3844 -0.8895 -0.5031
  113OSM    C3F11797   0.717   1.763   9.526 -0.2797  0.4254  0.3840
  113OSM    H3F11798   0.726   1.859   9.471 -0.4439 -0.4334 -1.1834
  113OSM    H3G11799   0.684   1.772   9.632  1.3459 -2.8639  1.2307
  113OSM    C4F11800   0.612   1.677   9.454  0.9838 -0.2681  0.0933
  113OSM    H4F11801   0.610   1.573   9.495  1.2273 -0.0408  0.6858
  113OSM    H4G11802   0.638   1.660   9.347  2.9310 -0.6858  0.5960
  113OSM    C5F11803   0.473   1.731   9.468 -0.2375 -0.0987  0.7142
  113OSM    H5F11804   0.457   1.780   9.566 -1.2320  1.0021  0.0144
  113OSM    H5G11805   0.394   1.654   9.453 -0.1871 -0.1993  0.9502
  113OSM    C6F11806   0.446   1.844   9.370  0.6159  0.1061 -0.2107
  113OSM    H6F11807   0.433   1.816   9.263  1.1474  0.0776 -0.2699
  113OSM    H6G11808   0.533   1.912   9.374 -0.8728  2.0402 -0.1226
  113OSM    C7F11809   0.326   1.932   9.426  0.7535 -0.1386  0.5293
  113OSM    H7F11810   0.344   1.966   9.530 -3.2047  0.4288  1.0930
  113OSM    H7G11811   0.242   1.859   9.425 -0.4776  1.2038 -2.3772
  113OSM    C8F11812   0.296   2.058   9.333 -0.0521 -0.0611 -0.1250
  113OSM    H8F11813   0.197   2.102   9.359  1.4227  1.2324  3.6564
  113OSM    H8G11814   0.283   2.025   9.227  1.9422  0.2127 -0.4684
  113OSM    C9F11815   0.404   2.163   9.343 -0.1368 -0.0344  0.1063
  113OSM    H9F11816   0.455   2.175   9.440 -0.1716  0.7725  0.0246
  113OSM   C10F11817   0.447   2.241   9.242 -0.1197 -0.1160  0.7570
  113OSM   H10F11818   0.529   2.315   9.249 -1.5602  1.4945  0.9159
  113OSM   C11F11819   0.398   2.241   9.104 -0.2665  0.1257  0.4023
  113OSM   H11F11820   0.314   2.314   9.106 -1.1827 -0.8406 -1.1229
  113OSM   H11G11821   0.354   2.141   9.082 -3.1601  1.5758 -0.7506
  113OSM   C12F11822   0.501   2.267   8.992 -0.3678 -0.8929 -0.2725
  113OSM   H12F11823   0.580   2.189   8.986 -0.3463 -0.9392  0.5684
  113OSM   H12G11824   0.555   2.362   9.013  0.8269 -1.8098  0.9184
  113OSM   C13F11825   0.442   2.283   8.841  1.0472 -0.4134  0.0899
  113OSM   H13F11826   0.378   2.374   8.836  2.5151  0.6644  0.8951
  113OSM   H13G11827   0.373   2.196   8.830  0.6405  0.1047 -1.6024
  113OSM   C14F11828   0.544   2.273   8.732 -0.2921  1.4499  0.6673
  113OSM   H14F11829   0.610   2.185   8.746 -0.5505  0.9256 -1.3199
  113OSM   H14G11830   0.614   2.359   8.739  0.8263  0.4978  1.4172
  113OSM   C15F11831   0.471   2.267   8.593  0.0626 -0.2892  0.1684
  113OSM   H15F11832   0.417   2.363   8.583 -1.6471 -1.1877  0.6620
  113OSM   H15G11833   0.388   2.193   8.590  0.2999 -0.5418 -0.3126
  113OSM   C16F11834   0.576   2.245   8.486  0.3182  0.2651  0.6916
  113OSM   H16F11835   0.658   2.318   8.502  1.3748 -0.5763 -0.7218
  113OSM   H16G11836   0.534   2.262   8.385  0.2322  0.8751  0.8318
  113OSM   C17F11837   0.643   2.102   8.472 -0.4036  0.0646 -0.1311
  113OSM   H17F11838   0.672   2.055   8.568 -1.5304  0.5914  0.4873
  113OSM   H17G11839   0.739   2.114   8.419 -1.2765 -0.5493 -1.9056
  113OSM   C18F11840   0.565   2.007   8.379  1.1223  0.7981 -0.0577
  113OSM   H18F11841   0.551   2.062   8.284 -0.8709  1.3672  0.5455
  113OSM   H18G11842   0.471   1.973   8.428  1.2632  0.3991 -0.0603
  113OSM   H18H11843   0.625   1.913   8.370  0.2757  0.2050  0.4601
  114OSM      N11844   1.826   5.209  10.188 -0.5729 -0.2009  0.2715
  114OSM    C1511845   1.952   5.283  10.231 -0.3350  0.0688  0.5037
  114OSM   H15A11846   2.034   5.216  10.214  0.3017  0.9497  0.0785
  114OSM   H15B11847   1.946   5.305  10.337 -1.1462  0.7790  0.3138
  114OSM   H15C11848   1.965   5.384  10.197 -1.8257  0.9302  2.3617
  114OSM    C1411849   1.828   5.074  10.253 -0.0610 -0.3917  0.0392
  114OSM   H14A11850   1.854   5.094  10.356  4.5267  2.7258 -1.5395
  114OSM   H14B11851   1.892   4.998  10.212  0.6420 -0.0656  0.5177
  114OSM   H14C11852   1.736   5.021  10.239  0.8308 -2.4290  1.6600
  114OSM    C1311853   1.712   5.280  10.245  0.0890 -0.0785  0.4772
  114OSM   H13A11854   1.624   5.219  10.233 -0.4533  0.9403 -0.7986
  114OSM   H13B11855   1.705   5.375  10.193  1.1085 -0.2993 -0.0842
  114OSM   H13C11856   1.720   5.302  10.351 -3.9180 -2.3134  1.3231
  114OSM    C1211857   1.809   5.202  10.035  0.5414  0.8260  0.4168
  114OSM   H12A11858   1.715   5.152  10.021  1.1609 -0.1180 -0.4351
  114OSM   H12B11859   1.877   5.129   9.993  1.8884  0.5085  3.0183
  114OSM    C1111860   1.816   5.337   9.956 -0.2163 -1.0128 -0.3256
  114OSM   H11A11861   1.826   5.326   9.846 -0.1219 -0.2690 -0.3980
  114OSM   H11B11862   1.909   5.390   9.987 -0.6118  2.2167 -4.2288
  114OSM      P11863   1.609   5.482   9.884 -0.0411 -0.0541  0.0534
  114OSM    O1311864   1.475   5.454   9.941  0.2294 -0.3461 -0.1917
  114OSM    O1411865   1.655   5.622   9.878  0.5655  0.2960  0.0748
  114OSM    O1111866   1.628   5.413   9.740  0.4591  0.2290  0.1081
  114OSM    O1211867   1.700   5.409   9.990 -1.0781  0.2538  0.1324
  114OSM    C1S11868   1.581   5.277   9.713 -0.0932  0.1993  0.0050
  114OSM    H1S11869   1.576   5.218   9.807  3.4820  1.3328  0.9985
  114OSM    H1T11870   1.665   5.229   9.658  0.4542  1.8071 -0.5923
  114OSM     NF11871   1.405   5.147   9.600 -0.3260 -0.9136 -0.2451
  114OSM    HNF11872   1.446   5.085   9.535  0.1357  1.3986 -2.2395
  114OSM    C2S11873   1.454   5.282   9.617 -0.1064  0.5260  0.2047
  114OSM    H2S11874   1.375   5.341   9.669 -1.2660  1.2085 -2.2551
  114OSM    C3S11875   1.492   5.351   9.485  0.0559 -0.3786 -0.7430
  114OSM    H3S11876   1.515   5.274   9.408  3.5819  1.5928 -1.7740
  114OSM     O311877   1.604   5.438   9.487 -0.0621 -0.0859 -0.0557
  114OSM    HO311878   1.647   5.444   9.573  1.6620  0.5567 -0.9268
  114OSM    C4S11879   1.364   5.418   9.431 -0.1936 -0.0771  0.1551
  114OSM    H4S11880   1.295   5.354   9.373 -0.8290 -0.3655  1.2283
  114OSM    C5S11881   1.336   5.551   9.448 -1.0620  0.1824  0.0875
  114OSM    H5S11882   1.402   5.608   9.515 -0.4626 -0.8275  0.3624
  114OSM    C6S11883   1.224   5.631   9.404  0.6591 -0.5172  0.5769
  114OSM    H6S11884   1.263   5.735   9.399  1.8765 -0.9877  0.1295
  114OSM    H6T11885   1.144   5.634   9.482 -0.5381  0.6009 -0.6738
  114OSM    C7S11886   1.152   5.576   9.281  0.9433  0.0036  0.0078
  114OSM    H7S11887   1.055   5.627   9.263  0.4331 -0.3651  1.6410
  114OSM    H7T11888   1.127   5.469   9.294  1.6615  0.0193  1.7869
  114OSM    C8S11889   1.235   5.593   9.151  0.1435 -0.2680  0.2605
  114OSM    H8S11890   1.324   5.527   9.161 -1.1159 -1.6984  2.6239
  114OSM    H8T11891   1.272   5.693   9.122 -0.0049 -0.3740 -0.2890
  114OSM    C9S11892   1.170   5.527   9.021  0.3675 -0.1398  0.2289
  114OSM    H9S11893   1.068   5.572   9.014  0.0518 -0.7695  0.6740
  114OSM    H9T11894   1.140   5.420   9.026 -0.7214  0.0321 -1.9308
  114OSM   C10S11895   1.261   5.550   8.906  0.6304 -0.6337  0.1883
  114OSM   H10S11896   1.366   5.539   8.941  0.7400 -0.5889 -0.1324
  114OSM   H10T11897   1.251   5.652   8.866 -0.3326 -2.4254 -4.3963
  114OSM   C11S11898   1.230   5.460   8.789 -0.3773  0.2044  0.0920
  114OSM   H11S11899   1.141   5.505   8.740 -1.7922  0.3001  2.6513
  114OSM   H11T11900   1.200   5.361   8.828  0.9512 -0.7550 -1.2416
  114OSM   C12S11901   1.351   5.437   8.684  1.0903 -0.5385  0.0769
  114OSM   H12S11902   1.404   5.347   8.721 -0.1452  0.3502  4.2019
  114OSM   H12T11903   1.412   5.529   8.694  1.1677 -0.6026  0.1945
  114OSM   C13S11904   1.300   5.423   8.537 -0.0426 -0.0338 -0.5662
  114OSM   H13S11905   1.399   5.415   8.488 -0.2035  0.4232 -0.9791
  114OSM   H13T11906   1.238   5.506   8.494 -1.1813 -0.1327  0.8403
  114OSM   C14S11907   1.233   5.292   8.511  0.9390  0.2095 -0.6110
  114OSM   H14S11908   1.154   5.280   8.588 -0.0864  0.2392 -1.6362
  114OSM   H14T11909   1.305   5.210   8.531 -0.1865 -0.4176  0.9081
  114OSM   C15S11910   1.174   5.263   8.366  0.4530 -0.7686  0.0176
  114OSM   H15S11911   1.243   5.292   8.285  0.9947  0.6993  0.9832
  114OSM   H15T11912   1.079   5.317   8.348  0.3184 -0.3142  1.9284
  114OSM   C16S11913   1.132   5.116   8.360  0.1922 -0.2454  0.5858
  114OSM   H16S11914   1.051   5.082   8.428  0.2098 -0.9841  0.2414
  114OSM   H16T11915   1.219   5.053   8.386 -0.0277 -0.9199 -0.2805
  114OSM   C17S11916   1.081   5.071   8.221  0.1486  0.2616  0.2675
  114OSM   H17S11917   1.070   4.962   8.203 -2.3988  0.4545  0.5326
  114OSM   H17T11918   1.154   5.109   8.146  1.2760 -1.1635  0.6276
  114OSM   C18S11919   0.942   5.128   8.177 -0.8934  0.4139 -0.0109
  114OSM   H18S11920   0.930   5.103   8.070 -2.6779  0.0465  0.2672
  114OSM   H18T11921   0.948   5.238   8.188  1.0523  0.5012 -1.5869
  114OSM   H18U11922   0.854   5.084   8.229 -0.8520  0.1515 -0.1645
  114OSM    C1F11923   1.325   5.087   9.691 -0.3021  0.0908  0.0379
  114OSM     OF11924   1.293   5.138   9.795  0.0630 -0.3676  0.1010
  114OSM    C2F11925   1.281   4.938   9.666 -0.1520 -0.2934  0.8231
  114OSM    H2F11926   1.257   4.886   9.761  2.1026 -4.0533 -0.5738
  114OSM    H2G11927   1.367   4.889   9.616 -1.3555 -0.8663 -0.7459
  114OSM    C3F11928   1.146   4.928   9.581  0.2129  0.2706 -0.2224
  114OSM    H3F11929   1.062   4.966   9.643 -0.4960 -0.1080 -0.9526
  114OSM    H3G11930   1.118   4.820   9.581  1.9195 -0.1925  0.5209
  114OSM    C4F11931   1.157   4.986   9.433 -0.2714 -0.1635 -0.5865
  114OSM    H4F11932   1.176   5.093   9.453  0.8271 -0.1820 -1.4902
  114OSM    H4G11933   1.055   4.981   9.388 -0.1572 -1.3842 -0.7457
  114OSM    C5F11934   1.270   4.915   9.357 -0.1519 -0.4722 -0.6850
  114OSM    H5F11935   1.254   4.806   9.369  0.3774 -0.6290 -1.3895
  114OSM    H5G11936   1.370   4.945   9.394 -0.6766 -1.2428  1.4328
  114OSM    C6F11937   1.277   4.970   9.212 -0.0172  0.1870  0.4611
  114OSM    H6F11938   1.176   4.956   9.167 -0.5726 -0.1262  1.7830
  114OSM    H6G11939   1.344   4.900   9.157 -2.1113  0.6587 -2.8260
  114OSM    C7F11940   1.341   5.111   9.213  0.1992  0.1337 -0.2096
  114OSM    H7F11941   1.436   5.102   9.270 -0.6470  0.6512  1.2832
  114OSM    H7G11942   1.283   5.190   9.263  1.2470 -0.3442  1.8036
  114OSM    C8F11943   1.375   5.152   9.067  0.1935 -0.0805 -0.5947
  114OSM    H8F11944   1.275   5.164   9.020  0.2565  1.5764 -0.3380
  114OSM    H8G11945   1.424   5.063   9.022 -0.3503 -0.5520 -0.2474
  114OSM    C9F11946   1.447   5.280   9.041  0.2335 -0.4320  0.2943
  114OSM    H9F11947   1.408   5.375   9.080  1.1654  1.8895 -4.1410
  114OSM   C10F11948   1.579   5.290   9.002 -0.0721 -0.6810 -0.0320
  114OSM   H10F11949   1.621   5.392   8.997 -2.8077  0.4726 -0.3813
  114OSM   C11F11950   1.676   5.174   8.967  0.4889  0.3945  0.0897
  114OSM   H11F11951   1.624   5.076   8.962 -2.3367  1.6606  2.9628
  114OSM   H11G11952   1.741   5.146   9.053 -2.3124 -1.2565  1.7610
  114OSM   C12F11953   1.767   5.175   8.839  0.3887  0.2589  0.3620
  114OSM   H12F11954   1.824   5.080   8.834  0.6448  0.4591 -0.7187
  114OSM   H12G11955   1.832   5.265   8.836  1.4555 -0.5236 -0.7537
  114OSM   C13F11956   1.672   5.191   8.712 -1.0446 -0.0117 -0.6333
  114OSM   H13F11957   1.615   5.286   8.723  1.4788  1.4844  0.0347
  114OSM   H13G11958   1.595   5.111   8.711 -1.0881 -0.0084 -3.7209
  114OSM   C14F11959   1.737   5.174   8.577  0.3532 -0.8150  0.3472
  114OSM   H14F11960   1.798   5.081   8.571  1.4367 -0.0097 -1.5051
  114OSM   H14G11961   1.808   5.254   8.546 -1.3138  0.4246 -0.3675
  114OSM   C15F11962   1.636   5.147   8.466  0.2023  0.5554  0.4458
  114OSM   H15F11963   1.604   5.251   8.446 -1.0651  0.1464  0.2541
  114OSM   H15G11964   1.551   5.088   8.507  1.3192 -1.1078  0.4331
  114OSM   C16F11965   1.682   5.064   8.341  0.1944 -1.1238  0.5299
  114OSM   H16F11966   1.685   4.953   8.344 -2.4975 -1.4257 -3.7601
  114OSM   H16G11967   1.788   5.095   8.331  0.1108 -0.6671  1.0246
  114OSM   C17F11968   1.599   5.116   8.218  0.6710  0.6094  0.1484
  114OSM   H17F11969   1.602   5.224   8.191  0.4304  1.1578  2.2377
  114OSM   H17G11970   1.495   5.093   8.250  0.7332  0.0913 -0.0273
  114OSM   C18F11971   1.626   5.038   8.089 -0.2843  0.2216  0.5356
  114OSM   H18F11972   1.549   5.066   8.014  0.5025  0.4992 -0.1658
  114OSM   H18G11973   1.623   4.929   8.112 -0.9506 -0.4222 -2.3251
  114OSM   H18H11974   1.728   5.062   8.053 -0.6827  0.9094 -0.1356
  115OSM      N11975   6.797   3.074   9.853  0.0210 -0.4998 -0.1017
  115OSM    C1511976   6.904   3.014   9.779 -1.0546  0.1256 -0.6769
  115OSM   H15A11977   7.000   3.016   9.827 -1.0708  3.3128 -0.6892
  115OSM   H15B11978   6.930   3.064   9.687  0.9395  0.2581 -0.0423
  115OSM   H15C11979   6.888   2.912   9.746  0.8849 -0.8241  1.2574
  115OSM    C1411980   6.776   2.987   9.977  0.0215 -0.4210 -1.0209
  115OSM   H14A11981   6.867   2.976  10.034 -0.4634  2.2912  0.3461
  115OSM   H14B11982   6.735   2.889   9.957 -0.0369 -0.2349 -1.8266
  115OSM   H14C11983   6.700   3.033  10.038  0.4960  0.4849 -1.0943
  115OSM    C1311984   6.852   3.204   9.890  0.0497 -0.1910 -0.3900
  115OSM   H13A11985   6.784   3.259   9.953  1.1656  1.0991 -0.2956
  115OSM   H13B11986   6.855   3.271   9.805  2.6707 -0.0933 -0.2590
  115OSM   H13C11987   6.949   3.202   9.935  0.0491 -1.2557 -0.4181
  115OSM    C1211988   6.674   3.080   9.768  1.0058 -0.6103 -0.0383
  115OSM   H12A11989   6.657   2.976   9.744  1.0385 -0.4060 -0.9751
  115OSM   H12B11990   6.699   3.136   9.679 -1.5226 -0.8398 -0.9250
  115OSM    C1111991   6.552   3.137   9.838 -1.1804 -0.3618  0.5837
  115OSM   H11A11992   6.533   3.067   9.922 -1.3700 -0.6243  0.3229
  115OSM   H11B11993   6.459   3.132   9.777  0.5769  1.2325 -2.3707
  115OSM      P11994   6.557   3.404   9.806  0.0646 -0.2249 -0.1597
  115OSM    O1311995   6.490   3.505   9.894 -0.1787  0.1663 -0.5580
  115OSM    O1411996   6.695   3.438   9.750  0.1106  0.2320 -0.0135
  115OSM    O1111997   6.459   3.360   9.694  0.2552 -0.1364 -0.9109
  115OSM    O1211998   6.570   3.268   9.894 -0.8983 -0.0644  0.0883
  115OSM    C1S11999   6.411   3.448   9.596 -0.5765  0.5961 -0.2243
  115OSM    H1S12000   6.393   3.549   9.637 -0.0492 -0.2886  2.2405
  115OSM    H1T12001   6.313   3.410   9.560 -0.8295  1.9547 -1.0054
  115OSM     NF12002   6.464   3.560   9.388 -0.7582 -0.1075 -1.0650
  115OSM    HNF12003   6.435   3.522   9.301 -1.5470 -0.1801 -0.7734
  115OSM    C2S12004   6.510   3.457   9.475 -0.3678 -0.4445  0.5522
  115OSM    H2S12005   6.606   3.495   9.517 -1.4091  0.7117  1.9067
  115OSM    C3S12006   6.530   3.311   9.415 -0.4438  0.4072  0.2436
  115OSM    H3S12007   6.431   3.282   9.373 -1.1336 -0.0357  2.1366
  115OSM     O312008   6.579   3.220   9.515 -0.3161  0.2505 -0.2647
  115OSM    HO312009   6.556   3.264   9.597  2.1036  0.3507  0.4094
  115OSM    C4S12010   6.634   3.312   9.306  0.2779 -1.1767 -0.0316
  115OSM    H4S12011   6.732   3.334   9.351 -0.2165 -0.4154  0.6803
  115OSM    C5S12012   6.619   3.307   9.173 -0.2699 -0.4214  0.5159
  115OSM    H5S12013   6.512   3.314   9.150 -0.9666 -0.7242  3.3763
  115OSM    C6S12014   6.713   3.326   9.052  0.1994 -0.1243  0.0404
  115OSM    H6S12015   6.714   3.222   9.015  2.7468  0.4930 -1.7615
  115OSM    H6T12016   6.814   3.343   9.096  0.5196  0.0264 -0.7511
  115OSM    C7S12017   6.667   3.422   8.943  0.2486 -0.2644  0.3592
  115OSM    H7S12018   6.682   3.527   8.975 -0.3292  0.1437 -0.6867
  115OSM    H7T12019   6.557   3.409   8.933  0.2568 -0.5354  0.6200
  115OSM    C8S12020   6.733   3.398   8.815  0.2200  0.1357  0.0885
  115OSM    H8S12021   6.706   3.298   8.777 -0.3548  0.3475 -0.0575
  115OSM    H8T12022   6.843   3.406   8.830  0.5617 -0.0710 -2.2164
  115OSM    C9S12023   6.688   3.499   8.714  0.3995  0.3561 -0.7350
  115OSM    H9S12024   6.714   3.605   8.735 -0.8303  0.2916  1.2257
  115OSM    H9T12025   6.578   3.496   8.722  0.3655 -0.1461 -1.3625
  115OSM   C10S12026   6.723   3.457   8.574 -0.4249 -0.3079 -0.4656
  115OSM   H10S12027   6.693   3.354   8.547  0.6946 -0.6584 -0.4116
  115OSM   H10T12028   6.834   3.469   8.576 -0.5346  1.6943 -2.7420
  115OSM   C11S12029   6.670   3.559   8.479  0.1499 -0.6549  1.1187
  115OSM   H11S12030   6.678   3.659   8.526 -0.2415  0.1911 -0.5885
  115OSM   H11T12031   6.560   3.554   8.466  0.2984 -2.1119  0.3036
  115OSM   C12S12032   6.737   3.557   8.335 -0.0384  0.5355 -0.3016
  115OSM   H12S12033   6.716   3.456   8.292  0.9814  0.9090 -1.7053
  115OSM   H12T12034   6.844   3.558   8.365 -0.7393  0.5933  2.4069
  115OSM   C13S12035   6.708   3.674   8.242 -0.6821  0.0779 -0.0446
  115OSM   H13S12036   6.604   3.669   8.204  0.0869 -3.3581 -1.8771
  115OSM   H13T12037   6.769   3.648   8.153  0.2162  1.5766  0.1206
  115OSM   C14S12038   6.748   3.806   8.304 -0.0195 -0.2495 -0.2714
  115OSM   H14S12039   6.852   3.808   8.342 -0.3035  0.4981  0.4855
  115OSM   H14T12040   6.692   3.829   8.397  1.3267  1.3872  0.1735
  115OSM   C15S12041   6.724   3.925   8.213  0.0324 -0.2302  0.1852
  115OSM   H15S12042   6.769   3.903   8.114  1.1887 -0.2528  0.7018
  115OSM   H15T12043   6.782   4.017   8.239 -1.8792  1.5153 -1.5439
  115OSM   C16S12044   6.577   3.964   8.188  0.2285 -0.1413 -0.1831
  115OSM   H16S12045   6.552   4.041   8.264 -1.7344 -0.1228 -0.8236
  115OSM   H16T12046   6.514   3.873   8.196  0.8767 -0.5701  0.0856
  115OSM   C17S12047   6.555   4.050   8.061  0.2117  0.1499  0.4669
  115OSM   H17S12048   6.448   4.078   8.069  0.8438  2.7715  0.1222
  115OSM   H17T12049   6.569   3.978   7.977  0.6087 -0.9871  1.4869
  115OSM   C18S12050   6.641   4.173   8.042  0.6270 -0.1851  0.3790
  115OSM   H18S12051   6.748   4.144   8.033  0.4340 -1.3808  1.8221
  115OSM   H18T12052   6.635   4.239   8.131 -3.0975 -0.2037  0.2030
  115OSM   H18U12053   6.606   4.230   7.953  0.3181  0.2711  0.7884
  115OSM    C1F12054   6.461   3.695   9.410  1.1133  0.4789  0.3002
  115OSM     OF12055   6.488   3.741   9.522 -0.1073 -0.1212 -0.2133
  115OSM    C2F12056   6.406   3.780   9.297  0.7804  0.2773  0.9685
  115OSM    H2F12057   6.406   3.882   9.341 -1.8202 -0.6669  3.3451
  115OSM    H2G12058   6.306   3.742   9.265  1.1471 -1.3089  1.6481
  115OSM    C3F12059   6.498   3.788   9.175  0.2887  0.2338  0.1164
  115OSM    H3F12060   6.517   3.684   9.141  0.1657  0.2646 -0.0458
  115OSM    H3G12061   6.592   3.837   9.208  1.2340 -3.1196  2.7099
  115OSM    C4F12062   6.444   3.875   9.061  0.2174  0.0924 -0.2183
  115OSM    H4F12063   6.464   3.982   9.081 -0.5804  0.1104  0.5121
  115OSM    H4G12064   6.332   3.874   9.063  0.2347 -1.1638  1.4289
  115OSM    C5F12065   6.490   3.836   8.922 -0.0111  0.0040 -0.7064
  115OSM    H5F12066   6.484   3.725   8.911  0.1158 -0.1378  0.6164
  115OSM    H5G12067   6.598   3.849   8.903 -0.0265  0.7359 -0.2991
  115OSM    C6F12068   6.408   3.890   8.803 -0.3087 -0.3157  0.9432
  115OSM    H6F12069   6.402   4.001   8.793 -1.7164 -0.3489  1.3682
  115OSM    H6G12070   6.305   3.858   8.826 -1.0705  1.1799 -0.2735
  115OSM    C7F12071   6.455   3.830   8.667  0.1757  1.1143 -0.2471
  115OSM    H7F12072   6.469   3.721   8.683 -1.4424  1.1425  1.5968
  115OSM    H7G12073   6.558   3.866   8.646  0.9128 -0.7351  0.1352
  115OSM    C8F12074   6.363   3.856   8.539  0.5691 -1.0101  0.4302
  115OSM    H8F12075   6.418   3.809   8.455  0.6170 -2.4194  1.2475
  115OSM    H8G12076   6.369   3.966   8.523  1.1142 -1.0575  0.3057
  115OSM    C9F12077   6.224   3.809   8.558 -0.8957  0.7944 -1.2704
  115OSM    H9F12078   6.167   3.848   8.644  1.9320 -1.8592  1.9508
  115OSM   C10F12079   6.165   3.727   8.477  0.0021  0.0759  0.4525
  115OSM   H10F12080   6.062   3.709   8.512 -0.2693 -0.2750 -0.5188
  115OSM   C11F12081   6.215   3.672   8.348 -0.1057 -0.1439 -0.7333
  115OSM   H11F12082   6.265   3.580   8.385  0.0375  1.3278  2.9359
  115OSM   H11G12083   6.293   3.736   8.302 -0.2230  0.5790  0.0754
  115OSM   C12F12084   6.108   3.611   8.263  0.9814 -0.1458 -0.2469
  115OSM   H12F12085   6.065   3.694   8.203  1.3846  0.5655  0.4402
  115OSM   H12G12086   6.019   3.581   8.322  0.1358  1.6987 -0.5442
  115OSM   C13F12087   6.158   3.491   8.187 -0.2831  0.1152 -0.6920
  115OSM   H13F12088   6.081   3.434   8.133  1.5498 -0.9143 -2.2849
  115OSM   H13G12089   6.198   3.419   8.261  1.5237  1.8271  0.0662
  115OSM   C14F12090   6.274   3.533   8.088  0.0421 -0.2243 -0.0379
  115OSM   H14F12091   6.324   3.444   8.045  0.7308  0.3439 -0.4352
  115OSM   H14G12092   6.362   3.578   8.138 -0.1584 -0.9718  0.9982
  115OSM   C15F12093   6.234   3.610   7.960  0.9562 -0.1432 -0.5803
  115OSM   H15F12094   6.187   3.706   7.991 -0.8832 -0.7397 -1.4446
  115OSM   H15G12095   6.158   3.547   7.909  0.8199  0.2541 -0.8752
  115OSM   C16F12096   6.354   3.642   7.872 -0.4368  0.2954 -0.5247
  115OSM   H16F12097   6.378   3.548   7.817 -0.3622  1.9251 -3.3577
  115OSM   H16G12098   6.437   3.680   7.935 -0.3608  1.0027 -1.0552
  115OSM   C17F12099   6.327   3.749   7.765  0.4596  0.4134  0.5241
  115OSM   H17F12100   6.307   3.849   7.809 -1.1868 -0.5586  2.0746
  115OSM   H17G12101   6.229   3.721   7.721  1.2917 -1.8316  0.0068
  115OSM   C18F12102   6.428   3.746   7.659 -0.4448 -0.1003 -0.5912
  115OSM   H18F12103   6.417   3.822   7.579 -0.7769  1.5440  0.9812
  115OSM   H18G12104   6.425   3.644   7.616 -1.3906  0.3486 -1.6076
  115OSM   H18H12105   6.529   3.761   7.704 -1.1039  4.4301 -0.3335
  116OSM      N12106   2.407   0.217  10.281  0.5430  0.0096 -0.2053
  116OSM    C1512107   2.545   0.195  10.341 -0.3609 -0.0904 -0.0152
  116OSM   H15A12108   2.616   0.259  10.290 -1.4162  0.0183 -1.3900
  116OSM   H15B12109   2.582   0.093  10.335 -0.3044 -0.0352 -0.6946
  116OSM   H15C12110   2.549   0.226  10.444 -1.0376  2.4887 -0.7460
  116OSM    C1412111   2.299   0.138  10.349  0.0512 -0.1478 -0.0334
  116OSM   H14A12112   2.200   0.172  10.320 -0.4142 -0.3711  1.2418
  116OSM   H14B12113   2.325   0.153  10.452 -0.2005 -1.8122  0.2916
  116OSM   H14C12114   2.307   0.032  10.330  3.4243  0.1813 -0.7474
  116OSM    C1312115   2.359   0.355  10.284 -0.1890 -0.3209 -0.7927
  116OSM   H13A12116   2.435   0.423  10.251 -0.2909  0.2969  0.2297
  116OSM   H13B12117   2.348   0.377  10.389 -0.4580 -0.2484 -0.8369
  116OSM   H13C12118   2.268   0.364  10.226 -0.9148 -0.4411  0.3198
  116OSM    C1212119   2.413   0.169  10.136  0.3132 -0.6977 -0.2781
  116OSM   H12A12120   2.318   0.171  10.086 -0.3407  0.3431  0.9902
  116OSM   H12B12121   2.432   0.064  10.123  2.6564 -0.5290  1.4098
  116OSM    C1112122   2.506   0.246  10.040 -0.1932 -0.3014 -0.0584
  116OSM   H11A12123   2.519   0.187   9.947 -0.9932 -0.5793  0.0017
  116OSM   H11B12124   2.609   0.251  10.084 -0.4889  1.5498  0.4921
  116OSM      P12125   2.330   0.382   9.912  0.1988 -0.1016 -0.1708
  116OSM    O1312126   2.240   0.267   9.926 -0.1718  0.1478 -0.4446
  116OSM    O1412127   2.270   0.516   9.938 -0.3944 -0.2391 -0.3879
  116OSM    O1112128   2.404   0.383   9.770 -0.8870  0.0559 -0.6280
  116OSM    O1212129   2.458   0.377  10.012 -0.1311  0.5731 -0.0246
  116OSM    C1S12130   2.521   0.461   9.746  0.0531 -0.3275  0.2207
  116OSM    H1S12131   2.602   0.433   9.816  2.1654  2.9291 -0.8144
  116OSM    H1T12132   2.499   0.570   9.757  2.0281  0.0693  0.4609
  116OSM     NF12133   2.713   0.505   9.609 -0.3926 -0.2392  0.9364
  116OSM    HNF12134   2.699   0.595   9.568 -2.0310 -1.4683 -1.3195
  116OSM    C2S12135   2.583   0.433   9.604  0.0806 -0.0654  0.0074
  116OSM    H2S12136   2.601   0.326   9.579 -0.7173  0.4916 -3.2141
  116OSM    C3S12137   2.482   0.484   9.500  0.5979 -0.0066  0.6181
  116OSM    H3S12138   2.456   0.588   9.529  1.1608  0.3459 -0.1172
  116OSM     O312139   2.357   0.421   9.504 -0.3156 -0.4224  0.2174
  116OSM    HO312140   2.350   0.377   9.589 -0.1182 -0.2312  0.3325
  116OSM    C4S12141   2.522   0.465   9.363  0.2620 -0.0006 -0.7252
  116OSM    H4S12142   2.519   0.360   9.330  0.9909  0.3371 -1.9053
  116OSM    C5S12143   2.547   0.557   9.270 -0.5347  0.3881 -0.0063
  116OSM    H5S12144   2.548   0.658   9.312  0.6859  0.3232  0.1565
  116OSM    C6S12145   2.590   0.526   9.126  0.2885 -0.2299 -0.1602
  116OSM    H6S12146   2.534   0.593   9.056  1.3442  0.2045 -0.5927
  116OSM    H6T12147   2.551   0.427   9.094 -2.9152  0.7130  0.5402
  116OSM    C7S12148   2.736   0.537   9.108 -1.0973 -0.2363  0.9534
  116OSM    H7S12149   2.783   0.465   9.179  2.1749  2.6316  1.8237
  116OSM    H7T12150   2.784   0.633   9.134  2.8956 -1.7415 -0.3391
  116OSM    C8S12151   2.767   0.502   8.960 -0.8356  0.2568 -0.5089
  116OSM    H8S12152   2.717   0.410   8.923  1.8721 -0.9709 -1.2788
  116OSM    H8T12153   2.872   0.466   8.955 -0.2174  1.6452  1.7166
  116OSM    C9S12154   2.758   0.611   8.857 -0.2361  0.2091 -0.3097
  116OSM    H9S12155   2.799   0.702   8.906 -2.6012  2.1917 -1.8980
  116OSM    H9T12156   2.649   0.626   8.844  0.1032  1.9528 -1.2511
  116OSM   C10S12157   2.821   0.587   8.723 -0.1674  0.1184  0.3134
  116OSM   H10S12158   2.900   0.510   8.717 -1.6684 -1.4761  0.7172
  116OSM   H10T12159   2.870   0.684   8.700 -0.1992  0.3126  1.0450
  116OSM   C11S12160   2.705   0.542   8.633 -0.7098  0.3753  0.2838
  116OSM   H11S12161   2.637   0.630   8.634 -3.1289 -1.4601  1.8026
  116OSM   H11T12162   2.654   0.463   8.692  0.7597 -0.2829  0.7174
  116OSM   C12S12163   2.740   0.491   8.492  1.1441  0.0067 -0.6062
  116OSM   H12S12164   2.647   0.446   8.451  0.4203  0.0992  0.9269
  116OSM   H12T12165   2.805   0.402   8.501  0.2242 -0.2577  4.4868
  116OSM   C13S12166   2.805   0.600   8.411  0.0665  0.2340  0.1417
  116OSM   H13S12167   2.915   0.616   8.422  0.3577 -2.3970  1.4709
  116OSM   H13T12168   2.757   0.697   8.436 -1.4354 -0.9255  1.8922
  116OSM   C14S12169   2.767   0.585   8.264  0.0558 -0.2977  0.1224
  116OSM   H14S12170   2.656   0.584   8.264  0.0345  1.3364  0.5804
  116OSM   H14T12171   2.822   0.498   8.222  0.8792  0.3557 -0.1804
  116OSM   C15S12172   2.826   0.703   8.180  1.1585 -0.2037 -0.1562
  116OSM   H15S12173   2.936   0.695   8.182  1.1762 -0.4702 -1.6140
  116OSM   H15T12174   2.785   0.800   8.214  1.3146 -0.0743 -0.3367
  116OSM   C16S12175   2.796   0.694   8.029 -0.1205  0.0248 -0.0873
  116OSM   H16S12176   2.700   0.744   8.003 -0.4085 -1.2758 -1.6041
  116OSM   H16T12177   2.806   0.589   7.994  2.2087  0.3945 -0.5611
  116OSM   C17S12178   2.908   0.774   7.955 -0.0965 -0.4124  0.7768
  116OSM   H17S12179   3.008   0.727   7.959 -0.0277 -0.2063  1.4609
  116OSM   H17T12180   2.921   0.871   8.006 -1.7795  0.6782 -0.7937
  116OSM   C18S12181   2.874   0.784   7.811  0.3270  0.2403 -0.6275
  116OSM   H18S12182   2.909   0.878   7.762  0.0791  1.4088  1.3996
  116OSM   H18T12183   2.763   0.784   7.804  0.1015 -3.7607  1.6099
  116OSM   H18U12184   2.893   0.699   7.741 -0.4283 -0.9677  0.6101
  116OSM    C1F12185   2.825   0.442   9.642  0.4759 -0.0600 -0.1945
  116OSM     OF12186   2.828   0.328   9.695  0.1230  0.3556  0.5802
  116OSM    C2F12187   2.952   0.510   9.615  0.0536  0.9202  0.2492
  116OSM    H2F12188   2.975   0.548   9.717  0.9378 -3.3789  1.7579
  116OSM    H2G12189   2.935   0.588   9.538  2.8507 -0.2113 -1.6072
  116OSM    C3F12190   3.067   0.420   9.573  0.3180  0.2734  0.4207
  116OSM    H3F12191   3.039   0.388   9.471  3.4332  3.8637 -1.7188
  116OSM    H3G12192   3.067   0.333   9.641 -0.8549  0.4249  0.6287
  116OSM    C4F12193   3.198   0.500   9.598  0.3242 -0.0214  0.6753
  116OSM    H4F12194   3.230   0.501   9.705 -0.3124  0.3448  0.8665
  116OSM    H4G12195   3.201   0.603   9.556  3.2157  0.0479  0.9736
  116OSM    C5F12196   3.312   0.433   9.525  0.4738  0.1282 -0.2397
  116OSM    H5F12197   3.283   0.328   9.503 -3.2321  0.8628  0.8297
  116OSM    H5G12198   3.405   0.437   9.584  1.0934  4.3467 -1.3504
  116OSM    C6F12199   3.339   0.489   9.387 -0.4057 -0.3774  0.1906
  116OSM    H6F12200   3.375   0.591   9.411  0.3671 -0.7531  0.6592
  116OSM    H6G12201   3.247   0.506   9.328 -0.9638  0.6147  1.3153
  116OSM    C7F12202   3.457   0.438   9.304 -0.8008 -0.3391 -0.7352
  116OSM    H7F12203   3.446   0.330   9.282  0.0571 -0.1186 -2.3218
  116OSM    H7G12204   3.551   0.446   9.364 -0.6542 -0.7950 -0.9038
  116OSM    C8F12205   3.471   0.505   9.163  0.3654  0.6812 -0.5149
  116OSM    H8F12206   3.368   0.504   9.121  0.2113  2.7827 -0.2448
  116OSM    H8G12207   3.528   0.428   9.107 -0.4314 -2.3957  2.6384
  116OSM    C9F12208   3.526   0.645   9.169 -0.8269 -0.2073  0.2331
  116OSM    H9F12209   3.587   0.676   9.255  0.7712  0.2447 -1.0323
  116OSM   C10F12210   3.515   0.732   9.066 -0.1693  0.1737 -0.3589
  116OSM   H10F12211   3.561   0.832   9.072  0.5892 -0.3159  2.3501
  116OSM   C11F12212   3.433   0.720   8.942  0.5236 -0.4878 -0.4180
  116OSM   H11F12213   3.403   0.823   8.916 -0.2687 -0.9509 -1.3877
  116OSM   H11G12214   3.345   0.655   8.964  1.0666 -0.6806  1.2521
  116OSM   C12F12215   3.515   0.658   8.823 -0.3877  0.1173  1.2694
  116OSM   H12F12216   3.538   0.553   8.854 -2.4458 -0.6282  0.3314
  116OSM   H12G12217   3.614   0.707   8.810  1.0937 -3.1466 -0.3651
  116OSM   C13F12218   3.440   0.643   8.692 -0.1151  0.7315  0.0085
  116OSM   H13F12219   3.417   0.747   8.658 -3.0482  0.5604  1.3295
  116OSM   H13G12220   3.343   0.597   8.719  0.9615 -1.9979 -0.5558
  116OSM   C14F12221   3.535   0.576   8.587  1.1962  0.4358  0.5339
  116OSM   H14F12222   3.563   0.472   8.614  2.8624  0.4830 -0.9911
  116OSM   H14G12223   3.626   0.639   8.584  1.0116  0.6112 -2.9508
  116OSM   C15F12224   3.470   0.572   8.450  0.1761  0.2570  0.2192
  116OSM   H15F12225   3.550   0.569   8.373 -0.1651 -1.9010 -0.0689
  116OSM   H15G12226   3.424   0.672   8.439  0.4851  0.2089 -1.5468
  116OSM   C16F12227   3.363   0.472   8.427 -0.1720  0.3404  0.1039
  116OSM   H16F12228   3.275   0.503   8.487 -0.4560  1.4317 -0.8395
  116OSM   H16G12229   3.383   0.369   8.461  2.2634  1.0221  0.8373
  116OSM   C17F12230   3.328   0.460   8.274 -0.4404 -0.8092  0.1856
  116OSM   H17F12231   3.420   0.425   8.222 -0.8579 -0.3225 -0.8900
  116OSM   H17G12232   3.312   0.559   8.225 -0.6613 -1.9170 -2.0349
  116OSM   C18F12233   3.218   0.364   8.244  0.4882 -0.3657  0.3911
  116OSM   H18F12234   3.191   0.369   8.136 -1.7030  0.5726  0.9558
  116OSM   H18G12235   3.119   0.389   8.289  0.7025  0.1429  0.5812
  116OSM   H18H12236   3.239   0.258   8.271 -0.7619 -0.2097  2.1083
  117OSM      N12237   2.337   0.897   9.812 -0.3062  0.5382 -0.1182
  117OSM    C1512238   2.278   1.025   9.785  1.1217  0.3812 -0.2595
  117OSM   H15A12239   2.338   1.099   9.735  0.3549  1.0218 -0.2538
  117OSM   H15B12240   2.236   1.074   9.872 -0.4522 -0.1752 -0.6911
  117OSM   H15C12241   2.191   1.007   9.723  1.5981  1.3449 -1.2242
  117OSM    C1412242   2.422   0.853   9.699 -0.2247  0.3069 -0.4307
  117OSM   H14A12243   2.492   0.931   9.671  1.8100 -1.6902 -1.0444
  117OSM   H14B12244   2.372   0.830   9.606  0.5940  1.6237 -1.2181
  117OSM   H14C12245   2.482   0.767   9.725  1.0860  2.0996  2.8156
  117OSM    C1312246   2.421   0.913   9.934 -0.0034  0.1418  0.8319
  117OSM   H13A12247   2.361   0.912  10.024  0.1336 -0.4705  0.9253
  117OSM   H13B12248   2.478   1.004   9.928  0.9351 -0.4481  0.5636
  117OSM   H13C12249   2.488   0.829   9.949  0.3465  0.9253  4.2243
  117OSM    C1212250   2.234   0.790   9.836  1.1033 -0.0098  0.9397
  117OSM   H12A12251   2.176   0.806   9.925 -0.0612 -1.8375  0.5427
  117OSM   H12B12252   2.284   0.696   9.856  0.7335 -0.7735 -1.5130
  117OSM    C1112253   2.134   0.754   9.731  0.5619 -0.5384 -0.4016
  117OSM   H11A12254   2.079   0.661   9.757  0.1991 -0.8410 -2.1694
  117OSM   H11B12255   2.182   0.749   9.630 -1.0448  2.2673 -1.3627
  117OSM      P12256   1.923   0.902   9.809  0.0956  0.1342 -0.0871
  117OSM    O1312257   1.863   0.773   9.848 -0.6814  1.0317 -0.0171
  117OSM    O1412258   1.972   0.996   9.907 -0.1793  0.0666 -0.3081
  117OSM    O1112259   1.823   0.982   9.716 -0.0276  0.3298 -0.0343
  117OSM    O1212260   2.039   0.864   9.713  0.3176  0.4072  0.5186
  117OSM    C1S12261   1.838   0.985   9.572 -0.0856 -0.5077 -0.3295
  117OSM    H1S12262   1.863   0.886   9.530 -0.1184 -1.2748  1.4381
  117OSM    H1T12263   1.932   1.043   9.561 -0.1623 -0.3849 -0.3475
  117OSM     NF12264   1.750   1.037   9.348  0.3384  0.1398  0.6697
  117OSM    HNF12265   1.757   1.126   9.304  1.0218 -0.3503 -0.2383
  117OSM    C2S12266   1.724   1.044   9.486  0.3666 -0.1615 -0.9095
  117OSM    H2S12267   1.637   0.975   9.489 -0.5880  1.0367 -0.4900
  117OSM    C3S12268   1.679   1.183   9.525  0.6267  0.5288 -0.2464
  117OSM    H3S12269   1.756   1.263   9.526 -0.4053  1.5639 -1.6744
  117OSM     O312270   1.617   1.192   9.652  0.4400 -0.2163 -0.3460
  117OSM    HO312271   1.594   1.103   9.683  0.2196 -0.2586 -0.6291
  117OSM    C4S12272   1.577   1.240   9.430  0.2066  0.8373 -0.0914
  117OSM    H4S12273   1.492   1.172   9.411  0.2866  0.8667 -0.5546
  117OSM    C5S12274   1.572   1.358   9.364  0.1908  0.0727 -0.0987
  117OSM    H5S12275   1.639   1.436   9.404 -2.2248  1.2483  1.8547
  117OSM    C6S12276   1.476   1.401   9.255 -0.0597 -0.3462  0.2182
  117OSM    H6S12277   1.523   1.482   9.195 -0.0135 -0.8281 -0.4013
  117OSM    H6T12278   1.386   1.452   9.296 -1.0900 -0.8541 -1.3663
  117OSM    C7S12279   1.439   1.285   9.161  0.4499 -0.0083  0.6439
  117OSM    H7S12280   1.372   1.210   9.207 -2.5889  1.8669 -0.6213
  117OSM    H7T12281   1.528   1.218   9.149  0.6685  0.4599 -0.4741
  117OSM    C8S12282   1.374   1.313   9.030  0.2398 -0.1603  0.2428
  117OSM    H8S12283   1.289   1.383   9.045 -0.1005 -0.8550  1.7114
  117OSM    H8T12284   1.329   1.219   8.994 -0.1584 -0.0078  0.3420
  117OSM    C9S12285   1.465   1.377   8.923  0.2928  0.3760  0.1854
  117OSM    H9S12286   1.550   1.308   8.908 -0.1583  0.3237 -2.4060
  117OSM    H9T12287   1.509   1.470   8.964  0.4891 -0.4750  1.9387
  117OSM   C10S12288   1.398   1.407   8.791  0.2236 -0.2759 -0.3858
  117OSM   H10S12289   1.302   1.460   8.813  0.4999 -0.9587  2.7267
  117OSM   H10T12290   1.365   1.316   8.737 -2.2341  1.1863 -1.4684
  117OSM   C11S12291   1.477   1.499   8.704 -0.2645 -0.6216  0.0122
  117OSM   H11S12292   1.568   1.452   8.662  1.7545  5.1320 -2.5592
  117OSM   H11T12293   1.515   1.585   8.764  0.7286 -1.6423  0.8650
  117OSM   C12S12294   1.402   1.552   8.580 -0.0686 -0.1613  1.0302
  117OSM   H12S12295   1.312   1.608   8.613 -0.6728 -0.3990 -0.1916
  117OSM   H12T12296   1.376   1.459   8.525  1.8901 -0.7531  1.0639
  117OSM   C13S12297   1.483   1.655   8.506  0.5270  0.3138 -0.6406
  117OSM   H13S12298   1.585   1.619   8.480  1.1240  2.0696 -0.8000
  117OSM   H13T12299   1.504   1.732   8.582 -0.5412 -0.6727  0.6723
  117OSM   C14S12300   1.416   1.705   8.375 -0.6958  0.3686 -0.3117
  117OSM   H14S12301   1.308   1.714   8.402 -0.9053 -1.6409 -0.4402
  117OSM   H14T12302   1.430   1.628   8.296 -0.1196  2.1412 -1.9628
  117OSM   C15S12303   1.481   1.831   8.313  0.3816  0.4446  0.3589
  117OSM   H15S12304   1.418   1.854   8.225  1.0331  1.1498  0.0642
  117OSM   H15T12305   1.578   1.800   8.268 -0.2693 -0.4089 -0.4664
  117OSM   C16S12306   1.489   1.961   8.399 -0.2196  0.2819 -0.0534
  117OSM   H16S12307   1.553   1.954   8.489  0.9254  1.4785 -0.7599
  117OSM   H16T12308   1.390   1.981   8.445 -1.6199 -0.2074 -2.7660
  117OSM   C17S12309   1.524   2.093   8.322 -0.2527 -0.6571  0.0691
  117OSM   H17S12310   1.519   2.176   8.396  1.2550  0.7516 -1.3768
  117OSM   H17T12311   1.456   2.121   8.239  0.0539 -1.2608 -0.3926
  117OSM   C18S12312   1.674   2.104   8.267  0.2658  0.2909 -0.0427
  117OSM   H18S12313   1.701   2.010   8.215  3.4900  1.7611 -1.1311
  117OSM   H18T12314   1.739   2.112   8.356  0.0135 -0.7464  0.2406
  117OSM   H18U12315   1.686   2.190   8.197  0.7474 -1.4629 -2.1855
  117OSM    C1F12316   1.779   0.925   9.283 -0.4727 -0.7638 -0.0096
  117OSM     OF12317   1.738   0.815   9.320 -0.2618 -0.1770 -0.1001
  117OSM    C2F12318   1.861   0.949   9.156 -0.6267 -0.0206 -0.4289
  117OSM    H2F12319   1.955   0.997   9.192 -0.8398 -1.2117  1.8293
  117OSM    H2G12320   1.801   1.018   9.093  2.2500  1.1165 -2.0267
  117OSM    C3F12321   1.894   0.814   9.082 -0.0094  0.2032  0.0270
  117OSM    H3F12322   1.949   0.744   9.150 -1.0853  1.0090  1.7656
  117OSM    H3G12323   1.966   0.856   9.009  0.2696  0.0262  0.1960
  117OSM    C4F12324   1.776   0.751   9.019  0.3065 -0.9842  0.5124
  117OSM    H4F12325   1.711   0.833   8.982 -0.9364 -1.9962  0.4137
  117OSM    H4G12326   1.718   0.698   9.097 -0.7719 -0.7306 -0.1153
  117OSM    C5F12327   1.819   0.655   8.907 -0.4192 -0.2989 -0.1696
  117OSM    H5F12328   1.855   0.562   8.956  0.4707  0.5769  0.8413
  117OSM    H5G12329   1.905   0.701   8.854 -1.0871  0.0438 -0.9698
  117OSM    C6F12330   1.711   0.621   8.805  0.2279 -0.5694  0.3186
  117OSM    H6F12331   1.610   0.621   8.851 -0.9944 -1.0888 -2.3329
  117OSM    H6G12332   1.733   0.524   8.756  0.7000  0.0918 -0.7875
  117OSM    C7F12333   1.699   0.735   8.693  0.8545 -0.2236 -0.3171
  117OSM    H7F12334   1.733   0.831   8.735 -0.4021 -0.6680  1.8184
  117OSM    H7G12335   1.590   0.740   8.670  0.6863  0.4507  0.5764
  117OSM    C8F12336   1.774   0.688   8.565 -0.2815 -0.6519 -0.7242
  117OSM    H8F12337   1.759   0.582   8.536 -1.7655 -1.9156  4.1428
  117OSM    H8G12338   1.875   0.668   8.607 -0.0692 -0.9979 -1.4010
  117OSM    C9F12339   1.773   0.782   8.451 -0.7125  0.2377  0.6298
  117OSM    H9F12340   1.868   0.832   8.425 -0.9784  1.2321  1.4936
  117OSM   C10F12341   1.662   0.803   8.371  0.1811 -0.0888 -0.0343
  117OSM   H10F12342   1.655   0.879   8.291 -0.7077 -0.1524 -0.0282
  117OSM   C11F12343   1.524   0.734   8.385 -0.1423 -0.0710 -0.0209
  117OSM   H11F12344   1.502   0.708   8.490  1.7338 -0.4340  0.3070
  117OSM   H11G12345   1.527   0.636   8.333 -2.2016 -0.4981  0.6156
  117OSM   C12F12346   1.409   0.813   8.321 -0.0210  0.0787  0.3938
  117OSM   H12F12347   1.307   0.768   8.316  0.2316 -0.3639 -1.4277
  117OSM   H12G12348   1.436   0.838   8.216  0.8486  2.7993  1.2137
  117OSM   C13F12349   1.397   0.964   8.380 -0.1358 -0.0995  0.3142
  117OSM   H13F12350   1.493   1.019   8.384 -0.6632  0.9743 -1.1249
  117OSM   H13G12351   1.362   0.958   8.485  3.2222  1.0352  1.5742
  117OSM   C14F12352   1.311   1.036   8.277 -0.0210  0.0194 -0.2559
  117OSM   H14F12353   1.229   0.968   8.247 -1.0289 -0.2976  3.0483
  117OSM   H14G12354   1.366   1.056   8.182  0.5620 -1.1964 -0.1887
  117OSM   C15F12355   1.251   1.174   8.327  0.5260 -0.4432  0.2225
  117OSM   H15F12356   1.338   1.227   8.371  1.2047 -0.1951 -1.3767
  117OSM   H15G12357   1.167   1.146   8.394  0.3398  0.3073  0.3048
  117OSM   C16F12358   1.192   1.252   8.207  0.2939 -0.4970 -0.8598
  117OSM   H16F12359   1.098   1.303   8.235  0.8727 -0.4332  1.0316
  117OSM   H16G12360   1.153   1.176   8.136 -1.3489 -0.2207 -0.2662
  117OSM   C17F12361   1.294   1.341   8.129  0.2268  0.0222  0.6056
  117OSM   H17F12362   1.382   1.281   8.098  1.0179  0.3182  2.2457
  117OSM   H17G12363   1.333   1.420   8.196  1.0687 -0.4608  0.6922
  117OSM   C18F12364   1.230   1.397   8.001  0.2636 -0.4788  0.4168
  117OSM   H18F12365   1.170   1.487   8.024  0.9643  0.4084 -1.1860
  117OSM   H18G12366   1.157   1.321   7.965  0.1961 -2.2260  4.0150
  117OSM   H18H12367   1.311   1.426   7.931 -0.8440  0.2555 -0.5840
  118OSM      N12368   0.880   2.524  10.078  0.0763  0.1687  0.0288
  118OSM    C1512369   0.922   2.656  10.021  0.0575  0.0016 -0.2428
  118OSM   H15A12370   0.844   2.704   9.963 -1.3244  0.1276  1.6704
  118OSM   H15B12371   0.993   2.627   9.944 -0.3277  2.1391 -1.4319
  118OSM   H15C12372   0.970   2.727  10.086  1.1553 -0.7179 -0.2529
  118OSM    C1412373   0.922   2.421   9.970  0.6179 -0.1330 -0.2681
  118OSM   H14A12374   0.870   2.330   9.996 -6.4265  3.9515  1.4688
  118OSM   H14B12375   1.028   2.408   9.961  0.7247  0.5611 -0.0787
  118OSM   H14C12376   0.896   2.461   9.873  1.1398  1.0924  0.0797
  118OSM    C1312377   0.950   2.505  10.207  0.1730  0.3687  0.5287
  118OSM   H13A12378   0.935   2.592  10.269 -1.8202  0.6730 -0.3489
  118OSM   H13B12379   1.057   2.509  10.192  0.0105  0.2739 -0.7841
  118OSM   H13C12380   0.920   2.408  10.243  0.4808 -0.1317 -0.5334
  118OSM    C1212381   0.730   2.526  10.101  0.3812  0.3928 -0.1666
  118OSM   H12A12382   0.669   2.557  10.017 -1.3450  0.7301  1.2017
  118OSM   H12B12383   0.715   2.604  10.174  2.3113  0.1094  0.5545
  118OSM    C1112384   0.686   2.401  10.183  0.7053 -0.0930 -0.0517
  118OSM   H11A12385   0.583   2.419  10.219  0.1727  0.4774 -1.8155
  118OSM   H11B12386   0.740   2.385  10.279 -0.7159  0.8257  0.9158
  118OSM      P12387   0.581   2.212  10.045  0.1886  0.0004  0.1991
  118OSM    O1312388   0.629   2.084   9.981  0.9691 -0.4514  0.7566
  118OSM    O1412389   0.478   2.211  10.142  0.2087 -0.2759 -0.4078
  118OSM    O1112390   0.527   2.314   9.931  0.2171 -0.1320  0.0178
  118OSM    O1212391   0.712   2.277  10.109  0.6360  0.3099 -0.4431
  118OSM    C1S12392   0.616   2.339   9.823 -0.3540  0.4398  0.7684
  118OSM    H1S12393   0.687   2.257   9.797  2.2387  2.7916  0.2419
  118OSM    H1T12394   0.675   2.430   9.848 -0.1527  0.8267 -1.0732
  118OSM     NF12395   0.618   2.399   9.587  0.0283 -0.9172 -0.7752
  118OSM    HNF12396   0.629   2.492   9.551  0.7711 -0.0121  1.6862
  118OSM    C2S12397   0.530   2.370   9.702  0.0515 -0.0399  0.1366
  118OSM    H2S12398   0.468   2.280   9.683  0.4139 -0.1575 -0.5017
  118OSM    C3S12399   0.437   2.489   9.728 -0.0619 -0.1518 -0.2893
  118OSM    H3S12400   0.505   2.569   9.764 -1.3355  0.0847  1.6868
  118OSM     O312401   0.342   2.469   9.835  0.4521  0.3793  0.4288
  118OSM    HO312402   0.378   2.395   9.884  2.2798  0.3757 -0.8556
  118OSM    C4S12403   0.361   2.526   9.601 -0.7212 -0.3947 -0.0412
  118OSM    H4S12404   0.397   2.616   9.550 -1.5037 -0.7507 -1.2581
  118OSM    C5S12405   0.281   2.445   9.534  0.3037  0.2920 -0.6748
  118OSM    H5S12406   0.250   2.348   9.576 -2.3067  1.9021  1.1969
  118OSM    C6S12407   0.214   2.464   9.404 -0.8738  0.0984 -0.0314
  118OSM    H6S12408   0.133   2.389   9.394 -1.8316  0.7938  2.1605
  118OSM    H6T12409   0.284   2.461   9.318 -1.0264  3.0902 -0.3146
  118OSM    C7S12410   0.134   2.603   9.398 -0.3504 -0.5362 -0.1781
  118OSM    H7S12411   0.208   2.684   9.415  0.8552 -1.4453 -0.9640
  118OSM    H7T12412   0.067   2.613   9.486 -0.2291  0.5395 -0.2026
  118OSM    C8S12413   0.054   2.624   9.265 -0.6252 -0.0977  0.1970
  118OSM    H8S12414  -0.003   2.719   9.272  0.3594  0.3706  2.0766
  118OSM    H8T12415  -0.020   2.543   9.244  2.1876 -2.2214 -1.8196
  118OSM    C9S12416   0.146   2.607   9.137  0.0266 -0.0071  0.3527
  118OSM    H9S12417   0.183   2.503   9.148 -2.0282 -0.5647  2.6611
  118OSM    H9T12418   0.220   2.690   9.135 -0.1738  0.2161  1.7226
  118OSM   C10S12419   0.067   2.620   9.006  0.2696 -0.0868 -0.0214
  118OSM   H10S12420   0.004   2.712   9.002  0.2654 -0.0443  0.9180
  118OSM   H10T12421  -0.006   2.537   8.990 -1.4368  2.1412 -5.0840
  118OSM   C11S12422   0.155   2.631   8.875 -0.4812 -0.1803 -0.8146
  118OSM   H11S12423   0.245   2.569   8.896 -1.0538 -1.4261 -1.9460
  118OSM   H11T12424   0.196   2.734   8.874 -2.1021  0.4696 -1.7983
  118OSM   C12S12425   0.079   2.574   8.753 -0.2264  0.1732 -0.1090
  118OSM   H12S12426   0.123   2.596   8.653 -0.7072 -0.6441 -0.5074
  118OSM   H12T12427  -0.028   2.604   8.757 -0.5760 -1.1718  1.3784
  118OSM   C13S12428   0.060   2.416   8.740 -0.3963 -0.4681 -0.5248
  118OSM   H13S12429  -0.015   2.381   8.814  1.3548 -1.0947  0.9767
  118OSM   H13T12430   0.160   2.373   8.762  0.5605  1.0311 -1.8962
  118OSM   C14S12431   0.040   2.364   8.599 -0.2355  0.0446  0.4416
  118OSM   H14S12432   0.111   2.408   8.525  1.6785 -0.2680  2.0500
  118OSM   H14T12433  -0.056   2.402   8.558  0.6301  0.4939 -1.2432
  118OSM   C15S12434   0.058   2.209   8.595  0.4335  0.0232 -0.1516
  118OSM   H15S12435  -0.019   2.168   8.665  0.9211 -0.8804 -0.1518
  118OSM   H15T12436   0.162   2.190   8.629  0.2532 -2.5578 -0.9406
  118OSM   C16S12437   0.035   2.148   8.457 -0.0410 -0.1790  0.0392
  118OSM   H16S12438   0.128   2.174   8.403  0.2660 -0.1332  0.5835
  118OSM   H16T12439  -0.052   2.203   8.415  2.1233  1.3890 -2.5389
  118OSM   C17S12440   0.017   1.998   8.459  0.2143 -0.2657  0.0041
  118OSM   H17S12441  -0.086   1.974   8.493  0.5295 -1.4950  0.1356
  118OSM   H17T12442   0.090   1.952   8.529  0.4617  1.4797  0.8997
  118OSM   C18S12443   0.038   1.934   8.324 -0.8997  0.0023  0.7387
  118OSM   H18S12444  -0.031   1.852   8.295  0.2934 -0.8635  0.2750
  118OSM   H18T12445   0.147   1.913   8.315 -1.2014 -1.1002 -0.5257
  118OSM   H18U12446   0.023   2.014   8.248  0.0481 -1.6786 -1.2576
  118OSM    C1F12447   0.698   2.297   9.537  0.0441 -0.2864  0.1319
  118OSM     OF12448   0.687   2.183   9.583  0.2207 -0.1623  0.3157
  118OSM    C2F12449   0.811   2.332   9.442  0.3502 -1.2622 -0.0945
  118OSM    H2F12450   0.863   2.410   9.502 -1.1128  0.6837 -1.2886
  118OSM    H2G12451   0.772   2.366   9.343  1.0210  0.1587  0.1261
  118OSM    C3F12452   0.908   2.219   9.406 -0.8631 -0.6821 -0.2400
  118OSM    H3F12453   0.943   2.158   9.492 -1.1277 -1.8660 -0.9658
  118OSM    H3G12454   0.996   2.267   9.358 -1.5596 -0.2266 -1.0590
  118OSM    C4F12455   0.840   2.112   9.320  0.4377  0.0853 -0.7124
  118OSM    H4F12456   0.767   2.156   9.249 -1.1574 -0.9078  0.2967
  118OSM    H4G12457   0.786   2.037   9.381  2.1385  0.7046  1.6435
  118OSM    C5F12458   0.935   2.028   9.222  0.0628 -0.3367  0.0025
  118OSM    H5F12459   1.009   1.982   9.291 -0.5179 -0.0444  0.8235
  118OSM    H5G12460   0.993   2.105   9.165  2.7651 -1.0496  1.6872
  118OSM    C6F12461   0.852   1.937   9.138 -0.2420  0.2345 -0.7069
  118OSM    H6F12462   0.778   1.879   9.196 -0.9519  2.0643  0.2511
  118OSM    H6G12463   0.926   1.864   9.098  0.4205  0.3706  0.2497
  118OSM    C7F12464   0.783   2.010   9.026  0.8062  0.0198 -0.0944
  118OSM    H7F12465   0.844   2.100   9.004  1.4352  0.0898  1.8423
  118OSM    H7G12466   0.692   2.050   9.076  1.7049  2.0312 -0.0158
  118OSM    C8F12467   0.761   1.913   8.910 -0.0839 -0.0168 -0.4053
  118OSM    H8F12468   0.856   1.877   8.865  1.0710 -0.1384  2.0393
  118OSM    H8G12469   0.732   1.973   8.821  1.3947  0.7635 -0.3777
  118OSM    C9F12470   0.668   1.796   8.933 -0.0887 -0.0270  0.9086
  118OSM    H9F12471   0.712   1.736   9.014  1.1633 -0.0563  0.2222
  118OSM   C10F12472   0.545   1.773   8.875 -0.1588  0.0206 -0.5671
  118OSM   H10F12473   0.493   1.677   8.892  1.1386 -0.8949 -1.5973
  118OSM   C11F12474   0.475   1.870   8.775  0.2430  0.8371  0.4386
  118OSM   H11F12475   0.531   1.861   8.679 -0.4742 -1.1533  0.1864
  118OSM   H11G12476   0.488   1.975   8.807  0.6639  0.5825  1.0975
  118OSM   C12F12477   0.321   1.854   8.756  0.5872 -0.8018 -0.6873
  118OSM   H12F12478   0.305   1.749   8.727  0.3902 -0.9074 -0.2045
  118OSM   H12G12479   0.280   1.922   8.678  0.6272 -0.6754 -0.6004
  118OSM   C13F12480   0.232   1.879   8.886  0.1008 -0.0791  0.0844
  118OSM   H13F12481   0.241   1.977   8.938  0.7024  0.2259 -0.5954
  118OSM   H13G12482   0.265   1.805   8.963  0.8403  0.9141  0.7285
  118OSM   C14F12483   0.083   1.861   8.854 -0.0839 -0.5011  0.5063
  118OSM   H14F12484   0.082   1.761   8.806  0.2086  0.8657 -2.4072
  118OSM   H14G12485   0.049   1.934   8.778  1.0635  0.2508  0.7122
  118OSM   C15F12486  -0.016   1.844   8.975 -0.3726 -0.7492 -0.2093
  118OSM   H15F12487  -0.002   1.750   9.033  1.8837  0.5053  1.3731
  118OSM   H15G12488  -0.122   1.847   8.941 -0.3820  0.9320 -0.0696
  118OSM   C16F12489   0.005   1.962   9.078 -0.0059  0.9482 -1.2150
  118OSM   H16F12490   0.111   1.966   9.112  0.1887  1.0053 -1.8158
  118OSM   H16G12491  -0.043   1.941   9.175 -0.5336  1.8806 -1.2712
  118OSM   C17F12492  -0.041   2.094   9.007 -0.3357 -0.8751 -0.1001
  118OSM   H17F12493  -0.140   2.080   8.959 -0.5582  0.3325 -0.0080
  118OSM   H17G12494   0.032   2.119   8.926 -0.0733  2.6031  1.1070
  118OSM   C18F12495  -0.031   2.214   9.108 -0.0738  0.4434  0.1672
  118OSM   H18F12496  -0.030   2.313   9.059  1.1899  0.0546 -0.6342
  118OSM   H18G12497   0.072   2.209   9.151  0.4498  2.2602 -0.8414
  118OSM   H18H12498  -0.107   2.202   9.188 -0.6336  0.1148 -0.4107
  119OSM      N12499   1.622   0.619   9.675  0.3528 -0.2919 -0.1651
  119OSM    C1512500   1.531   0.541   9.595 -0.0232 -0.2842  0.1562
  119OSM   H15A12501   1.434   0.550   9.643 -0.2063 -0.2977 -0.2072
  119OSM   H15B12502   1.563   0.439   9.589  1.6004  0.2275 -0.0374
  119OSM   H15C12503   1.531   0.585   9.496 -0.7225 -1.8569 -0.5504
  119OSM    C1412504   1.600   0.764   9.656 -0.0931  0.1835 -0.1028
  119OSM   H14A12505   1.500   0.796   9.682  0.0266  1.0416 -0.6620
  119OSM   H14B12506   1.622   0.795   9.555 -0.4237 -0.3665 -0.3467
  119OSM   H14C12507   1.677   0.816   9.710  0.7129  0.4148 -1.4352
  119OSM    C1312508   1.610   0.590   9.819  0.0918  0.6153  0.0084
  119OSM   H13A12509   1.511   0.610   9.859 -1.2897 -2.2149 -1.8634
  119OSM   H13B12510   1.686   0.652   9.864  1.8619 -1.4599 -0.0479
  119OSM   H13C12511   1.629   0.486   9.839  1.3898  1.4177  3.2534
  119OSM    C1212512   1.772   0.578   9.640 -0.0488 -0.1445 -0.2843
  119OSM   H12A12513   1.832   0.657   9.684 -1.1328  0.2028  0.5709
  119OSM   H12B12514   1.781   0.571   9.532 -1.3002 -1.1895 -0.3286
  119OSM    C1112515   1.826   0.452   9.700 -1.0036 -0.2126 -0.8181
  119OSM   H11A12516   1.840   0.464   9.809  1.8444 -2.8501 -0.8239
  119OSM   H11B12517   1.921   0.433   9.646 -0.4416  1.3297 -0.3849
  119OSM      P12518   1.782   0.197   9.667  0.2271 -0.6628 -0.0244
  119OSM    O1312519   1.892   0.174   9.757  0.2400  1.0378  0.3126
  119OSM    O1412520   1.680   0.093   9.684  0.3164  0.1314 -0.2774
  119OSM    O1112521   1.844   0.199   9.520 -0.8639  0.4428 -0.5096
  119OSM    O1212522   1.730   0.347   9.681  0.4557 -0.1983 -0.2170
  119OSM    C1S12523   1.989   0.191   9.507 -0.2333 -0.4019 -0.1733
  119OSM    H1S12524   2.022   0.085   9.519 -1.7513 -1.0345 -1.3284
  119OSM    H1T12525   2.046   0.251   9.580  0.9528 -1.8862  0.1509
  119OSM     NF12526   2.176   0.230   9.364  0.0870 -0.0457 -0.6535
  119OSM    HNF12527   2.226   0.314   9.383  2.1202 -1.2532 -0.5358
  119OSM    C2S12528   2.034   0.248   9.368 -0.2017 -0.8856  0.2341
  119OSM    H2S12529   1.979   0.200   9.284  1.5562 -1.5961 -0.5408
  119OSM    C3S12530   1.991   0.396   9.356  0.4901 -0.4536  0.4358
  119OSM    H3S12531   2.005   0.455   9.449  1.8253 -0.7238  0.4108
  119OSM     O312532   1.849   0.411   9.348  1.0810 -0.1654 -0.1243
  119OSM    HO312533   1.818   0.323   9.373  0.3976  0.8449  2.7532
  119OSM    C4S12534   2.046   0.460   9.235 -0.1164 -0.2932 -0.2713
  119OSM    H4S12535   1.999   0.413   9.147 -0.2921 -1.7423  0.5653
  119OSM    C5S12536   2.151   0.545   9.229  0.1098 -0.3688  0.1226
  119OSM    H5S12537   2.210   0.582   9.314 -0.6284  0.9053  0.1020
  119OSM    C6S12538   2.211   0.599   9.100 -0.3520 -0.0142 -0.6804
  119OSM    H6S12539   2.321   0.614   9.106 -0.4712  0.7722 -0.4405
  119OSM    H6T12540   2.168   0.699   9.078 -0.2731 -0.1668 -1.5443
  119OSM    C7S12541   2.205   0.502   8.983 -0.0425 -0.0093  0.1002
  119OSM    H7S12542   2.099   0.476   8.960 -0.2590  1.4118 -0.5427
  119OSM    H7T12543   2.265   0.412   9.009  0.5425  0.1470 -0.6909
  119OSM    C8S12544   2.282   0.561   8.861 -0.0967  0.8789 -0.0625
  119OSM    H8S12545   2.388   0.530   8.869 -0.8183 -1.5203  0.6593
  119OSM    H8T12546   2.282   0.672   8.873 -2.0133  0.9839 -0.7798
  119OSM    C9S12547   2.230   0.506   8.732  0.3270  0.4490 -0.0715
  119OSM    H9S12548   2.132   0.552   8.705 -0.8451 -0.8493  1.8095
  119OSM    H9T12549   2.202   0.399   8.744 -2.3505  1.0326 -0.6222
  119OSM   C10S12550   2.321   0.532   8.614 -0.4330 -0.8821  0.2510
  119OSM   H10S12551   2.424   0.497   8.640  1.2778  0.9578 -3.6558
  119OSM   H10T12552   2.325   0.642   8.602 -1.2834 -0.7339  1.2362
  119OSM   C11S12553   2.281   0.476   8.476  0.4271 -0.3358 -0.6565
  119OSM   H11S12554   2.291   0.366   8.481 -0.4505 -0.3512  1.1072
  119OSM   H11T12555   2.350   0.511   8.397 -0.3271  0.6244 -0.8967
  119OSM   C12S12556   2.131   0.496   8.442  0.1425  0.0487 -0.3571
  119OSM   H12S12557   2.114   0.604   8.426  0.2352  0.1193  0.0168
  119OSM   H12T12558   2.060   0.456   8.517  0.5796  0.8915  0.5149
  119OSM   C13S12559   2.097   0.425   8.304  0.2530  0.0701 -0.2479
  119OSM   H13S12560   2.117   0.315   8.307 -0.6612 -0.0882 -0.0016
  119OSM   H13T12561   2.169   0.478   8.238 -1.8156  3.0810 -0.1899
  119OSM   C14S12562   1.960   0.445   8.250  0.2940  0.8430  0.5881
  119OSM   H14S12563   1.940   0.553   8.263  0.8556  1.2126 -1.4300
  119OSM   H14T12564   1.893   0.378   8.308  2.8300 -0.6568  1.8748
  119OSM   C15S12565   1.965   0.402   8.098 -0.4517  0.7105 -0.4160
  119OSM   H15S12566   1.982   0.292   8.097  3.0684  1.1631  1.4695
  119OSM   H15T12567   2.030   0.470   8.038  0.1432 -2.8350 -3.9439
  119OSM   C16S12568   1.826   0.424   8.035  0.3959  0.2651  0.0271
  119OSM   H16S12569   1.742   0.376   8.089  0.2234  1.5276  0.9074
  119OSM   H16T12570   1.824   0.369   7.938 -2.3261 -0.4772  0.4564
  119OSM   C17S12571   1.803   0.573   7.994  0.6894  0.1389 -0.5422
  119OSM   H17S12572   1.824   0.640   8.080  1.0863  0.2961 -0.7610
  119OSM   H17T12573   1.695   0.582   7.972  0.3737 -0.1717  0.8812
  119OSM   C18S12574   1.894   0.616   7.876 -0.0485  0.3571  0.3378
  119OSM   H18S12575   2.003   0.622   7.895  0.4996  0.9677 -2.7225
  119OSM   H18T12576   1.864   0.720   7.850 -0.2499  0.3910  0.7021
  119OSM   H18U12577   1.866   0.553   7.789 -0.8097  0.9297  0.1576
  119OSM    C1F12578   2.235   0.113   9.357 -0.0661  0.2232  0.0430
  119OSM     OF12579   2.169   0.014   9.340  0.2494  0.0234  0.3091
  119OSM    C2F12580   2.382   0.097   9.363  0.7332  0.1248 -0.2030
  119OSM    H2F12581   2.408   0.008   9.424  0.7616  1.1945  1.3918
  119OSM    H2G12582   2.423   0.191   9.404  0.2176  0.2690 -0.0157
  119OSM    C3F12583   2.459   0.068   9.231  0.3429 -0.0222  0.0652
  119OSM    H3F12584   2.409   0.132   9.155  1.5976  0.0445 -0.7111
  119OSM    H3G12585   2.452  -0.037   9.196  2.2638 -0.4948  1.0071
  119OSM    C4F12586   2.610   0.115   9.224  0.0727  0.4436 -0.7748
  119OSM    H4F12587   2.655   0.075   9.317  0.2666  0.4865 -0.8496
  119OSM    H4G12588   2.619   0.226   9.225  1.1322  0.3754 -1.7577
  119OSM    C5F12589   2.697   0.074   9.101 -0.9259 -1.3676  0.6827
  119OSM    H5F12590   2.792   0.127   9.123 -3.1016  2.0930  2.4068
  119OSM    H5G12591   2.655   0.109   9.004  2.3600 -0.0704 -0.3248
  119OSM    C6F12592   2.714  -0.075   9.089  0.2786 -0.2698 -0.2275
  119OSM    H6F12593   2.617  -0.125   9.068  1.6242 -4.3346  2.6086
  119OSM    H6G12594   2.734  -0.112   9.192 -1.3851 -0.7336 -0.0527
  119OSM    C7F12595   2.821  -0.114   8.989  0.3720 -0.0330  0.7612
  119OSM    H7F12596   2.910  -0.048   9.000 -0.4658  1.3252 -0.4395
  119OSM    H7G12597   2.779  -0.084   8.890 -2.5916 -0.4695  1.8473
  119OSM    C8F12598   2.855  -0.268   8.988 -0.4958  0.1205 -0.2387
  119OSM    H8F12599   2.936  -0.284   9.061 -0.8809  3.8559  1.1320
  119OSM    H8G12600   2.901  -0.277   8.887 -0.3227  0.5162 -0.1968
  119OSM    C9F12601   2.763  -0.378   9.020  0.1899 -0.1604  0.0846
  119OSM    H9F12602   2.793  -0.447   9.101 -0.5446  0.5489  0.9836
  119OSM   C10F12603   2.647  -0.408   8.966 -0.1671  0.4020 -0.1700
  119OSM   H10F12604   2.597  -0.502   8.994 -1.1816  1.1441  0.5505
  119OSM   C11F12605   2.590  -0.329   8.853  0.2825  0.1542 -0.0191
  119OSM   H11F12606   2.662  -0.269   8.793  0.2942  1.2241  1.0531
  119OSM   H11G12607   2.527  -0.247   8.892  0.0928 -0.4999  1.0750
  119OSM   C12F12608   2.505  -0.423   8.770 -0.0651  0.0408 -0.0153
  119OSM   H12F12609   2.424  -0.479   8.821  0.0908 -0.8856 -0.7657
  119OSM   H12G12610   2.559  -0.506   8.721 -0.0044 -0.8282  1.5026
  119OSM   C13F12611   2.450  -0.346   8.651 -0.1366  0.4979 -0.5538
  119OSM   H13F12612   2.527  -0.270   8.625 -1.8448  2.6712  0.5844
  119OSM   H13G12613   2.362  -0.289   8.689 -3.2870 -3.5841 -1.2718
  119OSM   C14F12614   2.415  -0.423   8.523  0.0457  1.0184  0.3984
  119OSM   H14F12615   2.309  -0.454   8.510  0.3493  0.2628 -0.3151
  119OSM   H14G12616   2.488  -0.506   8.524 -0.2498  0.7602  0.8338
  119OSM   C15F12617   2.453  -0.346   8.386  0.5680 -0.0976 -0.0049
  119OSM   H15F12618   2.548  -0.290   8.402  0.6254  0.3375 -1.8163
  119OSM   H15G12619   2.364  -0.285   8.361 -0.9493 -2.6803 -1.0010
  119OSM   C16F12620   2.455  -0.448   8.268 -0.2540 -0.0180  0.0715
  119OSM   H16F12621   2.357  -0.497   8.281 -0.5636  1.4488  3.7459
  119OSM   H16G12622   2.537  -0.511   8.309 -0.7336  0.2359  1.4423
  119OSM   C17F12623   2.491  -0.385   8.138  0.0646 -0.4976 -0.5080
  119OSM   H17F12624   2.425  -0.300   8.111 -2.0031 -1.8748  0.1491
  119OSM   H17G12625   2.475  -0.464   8.062 -1.8909  1.3006 -2.0235
  119OSM   C18F12626   2.627  -0.316   8.134 -0.5865  0.0138 -0.4942
  119OSM   H18F12627   2.636  -0.256   8.041  0.4201  0.1982 -0.2855
  119OSM   H18G12628   2.707  -0.394   8.135  0.1985  0.8017  2.3223
  119OSM   H18H12629   2.641  -0.246   8.219  0.7134 -0.4929 -0.2694
  120OSM      N12630   1.021   5.590   9.898 -0.1088  0.2113  0.2340
  120OSM    C1512631   0.973   5.607   9.760 -0.2297  0.3822 -0.8373
  120OSM   H15A12632   0.876   5.653   9.760  0.4596  1.8545 -1.2788
  120OSM   H15B12633   0.971   5.515   9.704 -0.0848  0.2807 -0.6767
  120OSM   H15C12634   1.041   5.664   9.699 -0.8258  1.6541 -0.3150
  120OSM    C1412635   0.948   5.479   9.967  0.1183  0.4769  0.8080
  120OSM   H14A12636   0.991   5.460  10.065  0.2149  2.3386  1.1463
  120OSM   H14B12637   0.953   5.382   9.920 -2.0684  0.2554  0.9617
  120OSM   H14C12638   0.842   5.496   9.979  0.0505  1.7229 -1.3960
  120OSM    C1312639   1.170   5.564   9.899 -0.1695  0.5313 -0.2173
  120OSM   H13A12640   1.238   5.646   9.878  0.9003  1.0219  4.6846
  120OSM   H13B12641   1.197   5.480   9.837  0.9185  0.0854  0.8422
  120OSM   H13C12642   1.196   5.530   9.998 -4.0449 -0.0135  0.7091
  120OSM    C1212643   0.989   5.709   9.984 -0.0835  0.3673  0.5010
  120OSM   H12A12644   1.050   5.690  10.071  0.3415 -2.7723 -0.4301
  120OSM   H12B12645   0.884   5.710  10.006 -0.1441  0.0363  0.2389
  120OSM    C1112646   1.028   5.857   9.932  0.4843  0.2739 -0.2087
  120OSM   H11A12647   1.136   5.845   9.908  0.0899 -1.4710 -1.2197
  120OSM   H11B12648   1.033   5.921  10.022 -1.1355 -1.4987  1.2026
  120OSM      P12649   0.804   5.967   9.870 -0.5024 -0.1533 -0.1052
  120OSM    O1312650   0.723   5.854   9.897 -0.3745  0.0141  0.0066
  120OSM    O1412651   0.816   6.067   9.976 -0.5080  0.1343  0.0105
  120OSM    O1112652   0.740   6.050   9.744  0.7183  0.0249  0.2620
  120OSM    O1212653   0.944   5.916   9.825 -0.2040  0.2100 -0.4032
  120OSM    C1S12654   0.814   6.092   9.631  0.0198  0.2134  0.3931
  120OSM    H1S12655   0.917   6.054   9.644 -0.5518 -0.7221  2.4649
  120OSM    H1T12656   0.808   6.203   9.625 -0.9097  0.1318 -0.2633
  120OSM     NF12657   0.831   6.072   9.390 -0.1059  0.3262 -0.7562
  120OSM    HNF12658   0.815   6.149   9.329  1.1583  2.3405  1.3827
  120OSM    C2S12659   0.746   6.052   9.505  0.0715 -0.1645  0.4710
  120OSM    H2S12660   0.712   5.946   9.506 -1.4279  0.2740 -1.0570
  120OSM    C3S12661   0.609   6.117   9.491  0.2906 -0.4747  0.2369
  120OSM    H3S12662   0.621   6.226   9.470  0.4259 -0.7536 -1.1885
  120OSM     O312663   0.519   6.099   9.601 -0.2849 -0.1554  0.0036
  120OSM    HO312664   0.580   6.091   9.674 -0.1272  2.0021  0.1401
  120OSM    C4S12665   0.544   6.061   9.368  0.2965 -0.7557 -0.2599
  120OSM    H4S12666   0.510   5.957   9.380 -1.8316 -0.0070  0.2903
  120OSM    C5S12667   0.509   6.129   9.255  0.6428  0.0185  0.8818
  120OSM    H5S12668   0.534   6.236   9.260 -0.4595  0.2309  2.4718
  120OSM    C6S12669   0.442   6.077   9.129 -0.4221 -0.8664 -0.4291
  120OSM    H6S12670   0.445   6.156   9.051  1.8991 -3.0781 -2.6725
  120OSM    H6T12671   0.339   6.043   9.151 -1.4662  0.1546 -3.4896
  120OSM    C7S12672   0.508   5.949   9.075 -0.4838 -0.4254 -0.0152
  120OSM    H7S12673   0.474   5.862   9.136 -1.8649 -0.7466 -1.2018
  120OSM    H7T12674   0.618   5.955   9.086 -0.5025  0.0339 -0.0752
  120OSM    C8S12675   0.471   5.921   8.923  0.4433 -0.4348  0.6135
  120OSM    H8S12676   0.361   5.928   8.908  0.8465  1.1150 -1.8875
  120OSM    H8T12677   0.510   5.821   8.895  0.8439 -0.2736  0.5934
  120OSM    C9S12678   0.547   6.017   8.831 -0.5758  0.0756  0.1452
  120OSM    H9S12679   0.654   5.992   8.842 -1.0834 -2.7947 -1.0624
  120OSM    H9T12680   0.528   6.121   8.868  0.5873  0.1740  0.4654
  120OSM   C10S12681   0.494   6.010   8.681 -0.3448  0.1701 -0.5096
  120OSM   H10S12682   0.390   6.050   8.672 -0.0040  0.6297 -2.6304
  120OSM   H10T12683   0.489   5.903   8.653 -0.2357  0.4816 -1.7352
  120OSM   C11S12684   0.577   6.095   8.582 -0.8208 -0.4323  0.5456
  120OSM   H11S12685   0.564   6.205   8.586  0.7253 -0.1180 -2.0074
  120OSM   H11T12686   0.547   6.071   8.478 -1.8029  2.8139  0.0276
  120OSM   C12S12687   0.727   6.089   8.598  0.3849 -1.1102 -0.0001
  120OSM   H12S12688   0.751   5.985   8.565  0.9770 -0.6672 -0.9766
  120OSM   H12T12689   0.759   6.114   8.701  4.8934 -0.2483 -1.5080
  120OSM   C13S12690   0.801   6.186   8.495  0.3862 -0.3773  0.2630
  120OSM   H13S12691   0.905   6.190   8.532 -0.5324  2.8461  2.7312
  120OSM   H13T12692   0.761   6.287   8.520 -1.2663 -1.2479  1.2556
  120OSM   C14S12693   0.789   6.135   8.355 -0.4303 -0.3727 -0.4139
  120OSM   H14S12694   0.688   6.125   8.310 -0.2572  0.9112 -1.1427
  120OSM   H14T12695   0.819   6.029   8.363  1.2158 -0.0938 -2.3575
  120OSM   C15S12696   0.876   6.221   8.261  0.7270 -0.0624  0.7890
  120OSM   H15S12697   0.900   6.161   8.171 -3.2314 -0.5399 -0.0379
  120OSM   H15T12698   0.960   6.276   8.308  1.4829  0.6798 -1.3456
  120OSM   C16S12699   0.797   6.340   8.196  0.3538 -1.1244  0.1069
  120OSM   H16S12700   0.699   6.299   8.164 -0.6121  0.2769  1.1826
  120OSM   H16T12701   0.859   6.363   8.107 -0.4347  1.6157  0.2258
  120OSM   C17S12702   0.793   6.460   8.285  0.0454 -0.0398  0.3064
  120OSM   H17S12703   0.892   6.484   8.328 -0.1237 -2.6852  2.2883
  120OSM   H17T12704   0.735   6.450   8.379  1.4852 -0.0201  1.2096
  120OSM   C18S12705   0.732   6.586   8.215 -0.4229 -0.1965 -0.7546
  120OSM   H18S12706   0.700   6.657   8.295  1.7557 -1.6231  1.4492
  120OSM   H18T12707   0.636   6.565   8.162 -0.7811  1.5814 -0.8655
  120OSM   H18U12708   0.800   6.634   8.142  0.5309  0.6641  0.6620
  120OSM    C1F12709   0.939   5.996   9.378  0.2095 -0.5162  0.0540
  120OSM     OF12710   0.956   5.903   9.457  0.2739  0.0632  0.2290
  120OSM    C2F12711   1.039   6.031   9.270 -0.0179  0.7451 -0.6009
  120OSM    H2F12712   1.135   6.034   9.326 -0.2354 -0.6015 -0.1352
  120OSM    H2G12713   1.018   6.132   9.229  0.3061  0.4315 -1.5561
  120OSM    C3F12714   1.043   5.934   9.152  0.1459 -0.3154  0.4812
  120OSM    H3F12715   1.044   5.829   9.189  0.1075 -0.5624 -0.2164
  120OSM    H3G12716   1.141   5.941   9.101  0.0980 -1.4443  0.2149
  120OSM    C4F12717   0.926   5.955   9.058  0.6590 -0.1636  0.0605
  120OSM    H4F12718   0.924   6.063   9.032 -1.3508  0.1610  1.4681
  120OSM    H4G12719   0.837   5.939   9.123  0.6782 -0.0023  0.1257
  120OSM    C5F12720   0.930   5.858   8.938 -0.7049  0.1950  0.4660
  120OSM    H5F12721   0.837   5.869   8.880  0.4841 -0.6164 -1.6342
  120OSM    H5G12722   0.934   5.752   8.972 -0.2638  0.1857  0.3954
  120OSM    C6F12723   1.051   5.892   8.849  0.3099  0.4268  0.2168
  120OSM    H6F12724   1.150   5.882   8.898 -0.7626 -1.3474  2.0772
  120OSM    H6G12725   1.038   6.000   8.827 -0.3290  0.2551 -0.2663
  120OSM    C7F12726   1.042   5.810   8.717 -0.3274  0.6770  0.1944
  120OSM    H7F12727   0.948   5.825   8.659  0.8759  0.2145 -1.9117
  120OSM    H7G12728   1.056   5.706   8.754 -0.3396  1.0961  1.3986
  120OSM    C8F12729   1.160   5.833   8.617 -0.2044  0.3496 -0.1089
  120OSM    H8F12730   1.171   5.754   8.539  0.3108  0.7536 -0.4459
  120OSM    H8G12731   1.258   5.827   8.669 -1.1310  1.6614  1.8151
  120OSM    C9F12732   1.137   5.965   8.549 -0.4125 -0.4084  0.3984
  120OSM    H9F12733   1.151   6.054   8.613 -0.2853  1.5228 -2.2375
  120OSM   C10F12734   1.115   5.981   8.419 -0.2499 -0.2722 -0.3118
  120OSM   H10F12735   1.084   6.083   8.389  0.1113 -0.8761 -2.8211
  120OSM   C11F12736   1.100   5.875   8.320 -0.5632  0.4504 -0.1228
  120OSM   H11F12737   1.039   5.920   8.238 -1.0741  0.1756  0.1046
  120OSM   H11G12738   1.044   5.786   8.356  0.2701  0.2849  0.7908
  120OSM   C12F12739   1.228   5.812   8.264 -0.1391 -0.1343 -0.0842
  120OSM   H12F12740   1.273   5.746   8.341  0.2632  0.4055  0.1419
  120OSM   H12G12741   1.298   5.897   8.250  0.0198 -0.5321 -1.9548
  120OSM   C13F12742   1.213   5.743   8.140  0.1265 -0.1104  0.7351
  120OSM   H13F12743   1.302   5.708   8.083  0.3034 -0.9913  1.5515
  120OSM   H13G12744   1.162   5.806   8.064  0.8664  0.9135  1.0729
  120OSM   C14F12745   1.118   5.628   8.168 -0.5308  0.1851  0.1293
  120OSM   H14F12746   1.016   5.662   8.197  0.2345  1.8947  0.8330
  120OSM   H14G12747   1.163   5.566   8.249 -1.8628 -2.1731 -0.8627
  120OSM   C15F12748   1.110   5.530   8.048  0.5060  0.1064 -0.0478
  120OSM   H15F12749   1.054   5.441   8.085 -2.2340  1.3911 -0.9712
  120OSM   H15G12750   1.217   5.502   8.034  1.4462  1.6967  3.3873
  120OSM   C16F12751   1.037   5.597   7.930  0.3357 -0.6656  0.3531
  120OSM   H16F12752   1.111   5.662   7.879 -1.3409  0.3171 -0.8939
  120OSM   H16G12753   0.963   5.661   7.984  0.1016  0.2353 -1.0239
  120OSM   C17F12754   0.965   5.484   7.850 -0.5451 -0.6302 -0.6414
  120OSM   H17F12755   0.914   5.420   7.925  0.1853  1.5132  1.7539
  120OSM   H17G12756   1.050   5.422   7.812  1.0059  1.5093 -0.7888
  120OSM   C18F12757   0.866   5.531   7.744 -0.4185 -0.1879 -0.2389
  120OSM   H18F12758   0.783   5.590   7.790  3.2924  3.9903  1.4167
  120OSM   H18G12759   0.834   5.440   7.689 -0.4948  1.6268 -3.3240
  120OSM   H18H12760   0.924   5.601   7.681 -2.6802  1.4486 -0.5712
  121OSM      N12761   0.427   1.713   9.949 -0.7555 -0.0262 -0.2307
  121OSM    C1512762   0.450   1.808  10.065 -1.4977  0.3030 -0.0571
  121OSM   H15A12763   0.354   1.836  10.105 -1.6821  0.8576 -0.8834
  121OSM   H15B12764   0.500   1.898  10.033 -1.6649  0.3505 -0.1856
  121OSM   H15C12765   0.493   1.760  10.152  0.6435 -0.6700 -1.5987
  121OSM    C1412766   0.562   1.656   9.932  0.1322 -0.2146  0.2602
  121OSM   H14A12767   0.572   1.598   9.842 -0.7926  1.0974 -0.7146
  121OSM   H14B12768   0.580   1.598  10.022  0.8329 -0.3749  0.0189
  121OSM   H14C12769   0.646   1.724   9.937 -0.0461  0.0564 -0.3751
  121OSM    C1312770   0.336   1.602   9.989 -0.0048  0.5492  0.1626
  121OSM   H13A12771   0.348   1.556  10.086  1.7618  0.2695 -0.1822
  121OSM   H13B12772   0.359   1.515   9.930  1.9850  2.3794 -1.8537
  121OSM   H13C12773   0.232   1.632   9.980  0.5136  1.7501 -2.2610
  121OSM    C1212774   0.377   1.793   9.826  0.0817 -0.5807  0.5037
  121OSM   H12A12775   0.373   1.725   9.743  0.3453 -0.5684  0.4796
  121OSM   H12B12776   0.457   1.865   9.812  2.1319 -2.6255  1.4401
  121OSM    C1112777   0.238   1.871   9.832 -0.4399 -0.2073 -0.0976
  121OSM   H11A12778   0.228   1.921   9.733  0.7390  2.1014  0.8938
  121OSM   H11B12779   0.245   1.955   9.905  0.4946 -1.8689  1.7704
  121OSM      P12780   0.022   1.717   9.774 -0.3176 -0.2794  0.4554
  121OSM    O1312781   0.050   1.569   9.763  0.0047  0.2819 -0.0309
  121OSM    O1412782  -0.120   1.748   9.816 -0.6109  0.4824  0.0232
  121OSM    O1112783   0.041   1.768   9.620 -0.3116  0.4927  0.3511
  121OSM    O1212784   0.129   1.797   9.864 -0.8733 -0.1240  0.1981
  121OSM    C1S12785  -0.013   1.708   9.507 -0.4672  0.5454 -0.3402
  121OSM    H1S12786  -0.003   1.599   9.520  2.4817  1.0339  1.9927
  121OSM    H1T12787   0.048   1.738   9.419  0.9360  2.7564  1.3168
  121OSM     NF12788  -0.245   1.668   9.397 -0.0187  0.0516  0.1500
  121OSM    HNF12789  -0.314   1.723   9.351  0.3997  0.6371  0.2090
  121OSM    C2S12790  -0.158   1.751   9.489 -0.1210  0.5362 -0.4383
  121OSM    H2S12791  -0.214   1.747   9.585  0.1119  2.5631 -0.2093
  121OSM    C3S12792  -0.165   1.903   9.459 -0.0286  0.2733  0.1064
  121OSM    H3S12793  -0.104   1.923   9.368 -2.3733  1.0661 -1.3265
  121OSM     O312794  -0.096   1.983   9.552  0.4832  0.0611  0.2851
  121OSM    HO312795  -0.033   1.921   9.592  1.9969  2.3113  1.4898
  121OSM    C4S12796  -0.301   1.951   9.448  0.2547 -0.9079 -0.3872
  121OSM    H4S12797  -0.347   1.972   9.545  2.0388 -2.8213  0.9193
  121OSM    C5S12798  -0.360   1.992   9.336 -0.5269 -0.1816  0.0329
  121OSM    H5S12799  -0.298   1.994   9.245 -0.9336  2.9672 -0.2283
  121OSM    C6S12800  -0.498   2.050   9.328 -0.6759 -0.5226  0.2780
  121OSM    H6S12801  -0.488   2.159   9.306  1.0792 -0.9854 -1.3145
  121OSM    H6T12802  -0.552   2.042   9.425  0.8029 -3.0647  0.9369
  121OSM    C7S12803  -0.580   1.977   9.218  0.2764 -0.2399 -0.1630
  121OSM    H7S12804  -0.685   2.012   9.219 -0.1253 -1.4045 -0.7055
  121OSM    H7T12805  -0.594   1.868   9.230 -3.1138  0.1367 -0.1184
  121OSM    C8S12806  -0.526   2.004   9.076 -0.1537 -0.4416  0.4578
  121OSM    H8S12807  -0.417   1.983   9.071  0.1128  1.0968 -0.5476
  121OSM    H8T12808  -0.517   2.113   9.057 -0.1354 -0.2810  1.3793
  121OSM    C9S12809  -0.605   1.942   8.962 -0.2248 -0.8174 -0.4170
  121OSM    H9S12810  -0.710   1.978   8.969 -0.6960 -2.6523  2.5401
  121OSM    H9T12811  -0.602   1.831   8.976 -0.8265 -0.5152  2.2558
  121OSM   C10S12812  -0.552   1.984   8.822  0.5613 -0.4958 -0.3438
  121OSM   H10S12813  -0.441   1.972   8.826  0.6555  0.0055 -1.4829
  121OSM   H10T12814  -0.562   2.093   8.807  2.1617 -0.3751 -0.6877
  121OSM   C11S12815  -0.625   1.906   8.719 -1.3752  0.4686  0.3014
  121OSM   H11S12816  -0.734   1.916   8.731 -1.8910 -1.1912 -2.4883
  121OSM   H11T12817  -0.604   1.797   8.715  1.5766  0.9771 -0.0180
  121OSM   C12S12818  -0.579   1.930   8.568  0.0530  0.6003 -0.4463
  121OSM   H12S12819  -0.479   1.892   8.538  0.2855 -0.0902  1.1644
  121OSM   H12T12820  -0.573   2.041   8.564  0.0827  0.5499 -2.9465
  121OSM   C13S12821  -0.687   1.895   8.457  0.4795 -0.3482  0.0796
  121OSM   H13S12822  -0.776   1.949   8.495  0.0751  0.3698 -1.8617
  121OSM   H13T12823  -0.717   1.789   8.447 -2.7973  0.7145 -2.1027
  121OSM   C14S12824  -0.650   1.959   8.322 -0.3114  0.7271 -0.5884
  121OSM   H14S12825  -0.545   1.937   8.294 -0.2012  1.4005 -0.7162
  121OSM   H14T12826  -0.652   2.070   8.333  1.2115  0.7772 -0.6609
  121OSM   C15S12827  -0.737   1.920   8.200 -0.0169 -0.0095 -0.0687
  121OSM   H15S12828  -0.844   1.946   8.215  0.2272  0.3423  1.1115
  121OSM   H15T12829  -0.724   1.811   8.183  0.9788 -0.4612  3.2428
  121OSM   C16S12830  -0.684   1.997   8.075  0.0653  0.1092  0.4194
  121OSM   H16S12831  -0.698   2.104   8.099 -0.1187 -0.2847  2.1957
  121OSM   H16T12832  -0.748   1.985   7.985 -0.5330  3.1657  0.3942
  121OSM   C17S12833  -0.533   1.988   8.040  0.0265 -0.3697  1.5141
  121OSM   H17S12834  -0.483   1.893   8.069 -0.5736 -1.1546  0.0322
  121OSM   H17T12835  -0.483   2.078   8.082 -2.2100  1.0502  1.1971
  121OSM   C18S12836  -0.520   2.011   7.881 -0.0825 -0.5770 -0.3426
  121OSM   H18S12837  -0.597   1.944   7.837 -0.2835  0.0743 -0.9882
  121OSM   H18T12838  -0.423   1.975   7.841 -0.1347 -1.1266  0.0132
  121OSM   H18U12839  -0.547   2.117   7.861 -1.1352 -0.4575  1.5387
  121OSM    C1F12840  -0.259   1.539   9.402 -0.9913  0.0820 -0.4062
  121OSM     OF12841  -0.192   1.471   9.474  0.6745 -0.0311 -0.4566
  121OSM    C2F12842  -0.368   1.475   9.326 -0.2097  0.0169 -0.6901
  121OSM    H2F12843  -0.425   1.560   9.282 -1.9047 -0.5505  0.3635
  121OSM    H2G12844  -0.441   1.431   9.397 -2.0525  0.4623 -2.2488
  121OSM    C3F12845  -0.326   1.354   9.231 -0.0468 -0.1481  0.4768
  121OSM    H3F12846  -0.419   1.295   9.213 -0.3001  0.7258 -1.1293
  121OSM    H3G12847  -0.256   1.285   9.284  0.9651  0.7130  0.2591
  121OSM    C4F12848  -0.277   1.401   9.088 -0.9004 -0.3879 -0.1688
  121OSM    H4F12849  -0.244   1.314   9.027  1.7355 -1.1256  2.1916
  121OSM    H4G12850  -0.183   1.460   9.090 -0.0998 -1.5586 -2.0266
  121OSM    C5F12851  -0.394   1.464   9.013  0.0621  0.5549  0.1999
  121OSM    H5F12852  -0.428   1.557   9.064 -0.6026  1.5392 -1.9705
  121OSM    H5G12853  -0.486   1.402   9.019 -1.2468  2.5016  0.8811
  121OSM    C6F12854  -0.375   1.495   8.866  0.0597  0.2498  0.2429
  121OSM    H6F12855  -0.472   1.495   8.812  0.2880  0.2088 -0.1700
  121OSM    H6G12856  -0.311   1.422   8.811 -0.7028 -0.9165  0.9006
  121OSM    C7F12857  -0.308   1.633   8.840 -0.9400 -0.0255  0.7761
  121OSM    H7F12858  -0.224   1.642   8.913 -0.7757 -0.9886  0.7062
  121OSM    H7G12859  -0.379   1.718   8.852 -0.4061  0.4953  0.2565
  121OSM    C8F12860  -0.255   1.653   8.702 -1.1178 -0.0150  0.0793
  121OSM    H8F12861  -0.171   1.583   8.681 -0.3043  1.6221 -2.2588
  121OSM    H8G12862  -0.203   1.751   8.702 -0.8840 -0.1304  0.8281
  121OSM    C9F12863  -0.349   1.642   8.581 -0.0866  0.7378 -0.0958
  121OSM    H9F12864  -0.453   1.668   8.604 -0.2362 -0.1139  0.2039
  121OSM   C10F12865  -0.312   1.596   8.454 -0.1693 -0.3554 -0.4272
  121OSM   H10F12866  -0.391   1.593   8.378  1.3273 -0.3959 -2.0166
  121OSM   C11F12867  -0.176   1.544   8.422  0.8352 -0.2102  0.5965
  121OSM   H11F12868  -0.142   1.466   8.494  0.9788  0.8302  1.6726
  121OSM   H11G12869  -0.104   1.627   8.437 -0.7834  1.4351 -0.5372
  121OSM   C12F12870  -0.171   1.507   8.269  0.6229 -0.4430  0.7730
  121OSM   H12F12871  -0.204   1.404   8.247  2.1741 -0.7916  0.0249
  121OSM   H12G12872  -0.062   1.493   8.250  0.6995  2.2120 -1.0329
  121OSM   C13F12873  -0.225   1.614   8.175  0.0075 -0.3817 -0.3009
  121OSM   H13F12874  -0.194   1.715   8.211 -1.2695 -0.7050  1.8076
  121OSM   H13G12875  -0.335   1.621   8.186 -0.1057 -2.1815 -0.2092
  121OSM   C14F12876  -0.196   1.586   8.035  0.2095  0.8981  1.5933
  121OSM   H14F12877  -0.237   1.486   8.012 -0.2488  0.7010  3.2568
  121OSM   H14G12878  -0.086   1.570   8.032  0.1413  0.1847  2.7942
  121OSM   C15F12879  -0.238   1.696   7.936 -0.5537 -0.5498  0.1894
  121OSM   H15F12880  -0.166   1.780   7.945 -2.3717  1.0356  0.1465
  121OSM   H15G12881  -0.331   1.727   7.987  0.1694 -0.2543  1.3560
  121OSM   C16F12882  -0.249   1.648   7.783 -0.0209 -0.9831 -0.1923
  121OSM   H16F12883  -0.305   1.552   7.778 -0.2056 -0.9953  1.7848
  121OSM   H16G12884  -0.150   1.637   7.734 -0.1967  3.0058 -1.5630
  121OSM   C17F12885  -0.339   1.757   7.709 -1.0201 -0.1263 -0.4066
  121OSM   H17F12886  -0.268   1.843   7.707  0.4100 -1.2622  0.6870
  121OSM   H17G12887  -0.430   1.773   7.770 -1.6262 -0.7611 -1.1418
  121OSM   C18F12888  -0.384   1.709   7.562  0.1420  0.0637 -0.2008
  121OSM   H18F12889  -0.314   1.628   7.531  1.7699  1.2798  0.1946
  121OSM   H18G12890  -0.366   1.798   7.498 -0.5448 -0.6012 -1.3319
  121OSM   H18H12891  -0.487   1.670   7.559  0.8264 -1.8735  0.4780
  122OSM      N12892   6.492   0.352  10.122 -0.4626  0.0659 -0.0609
  122OSM    C1512893   6.463   0.413  10.252 -0.3222  0.0948 -0.3111
  122OSM   H15A12894   6.501   0.344  10.327  1.0355  1.8804  0.6894
  122OSM   H15B12895   6.360   0.439  10.270 -0.3527 -0.8204  0.9220
  122OSM   H15C12896   6.535   0.493  10.259 -1.3077  1.0449 -0.9803
  122OSM    C1412897   6.445   0.210  10.117 -0.4907 -0.0320 -0.3807
  122OSM   H14A12898   6.474   0.164  10.024  0.7793 -2.5098  1.1895
  122OSM   H14B12899   6.342   0.196  10.147 -0.2330  0.9592  0.9946
  122OSM   H14C12900   6.496   0.141  10.183  0.8729  1.5353  0.2424
  122OSM    C1312901   6.415   0.430  10.013 -0.7651  0.2694  0.4660
  122OSM   H13A12902   6.436   0.396   9.913 -1.9049 -2.3438  1.0679
  122OSM   H13B12903   6.441   0.534  10.021 -0.0882  0.2069 -0.8565
  122OSM   H13C12904   6.309   0.416  10.031 -0.5846  0.3046  1.6313
  122OSM    C1212905   6.642   0.365  10.090  0.6031 -0.3098 -0.0254
  122OSM   H12A12906   6.704   0.312  10.160  1.0505 -1.2482 -1.1290
  122OSM   H12B12907   6.659   0.472  10.095  2.5601 -0.6735  1.9388
  122OSM    C1112908   6.687   0.301   9.953  0.5000 -0.4965  0.0963
  122OSM   H11A12909   6.795   0.326   9.947  0.9151 -2.7342 -3.1600
  122OSM   H11B12910   6.653   0.356   9.862  2.8920 -0.7338 -0.9604
  122OSM      P12911   6.669   0.083   9.814 -0.4928 -0.0851  0.2249
  122OSM    O1312912   6.734  -0.045   9.845 -0.0820  0.1348 -0.3098
  122OSM    O1412913   6.536   0.095   9.752 -0.1620  0.2418 -0.0309
  122OSM    O1112914   6.769   0.164   9.730  0.3021  0.2586 -0.4642
  122OSM    O1212915   6.666   0.157   9.951  0.6152 -0.3366  0.0098
  122OSM    C1S12916   6.909   0.163   9.741 -0.9399 -0.1364 -0.3894
  122OSM    H1S12917   6.946   0.065   9.778  0.9512 -0.2051 -2.3248
  122OSM    H1T12918   6.947   0.237   9.815 -0.4010 -1.3489  0.5658
  122OSM     NF12919   7.082   0.139   9.570  0.4820 -0.0415  0.9190
  122OSM    HNF12920   7.162   0.198   9.578  1.4389 -1.4099  1.7469
  122OSM    C2S12921   6.961   0.205   9.599  0.1385  0.3218 -0.2266
  122OSM    H2S12922   6.886   0.160   9.531 -0.0256 -0.0574  0.2001
  122OSM    C3S12923   6.968   0.357   9.591 -0.2047 -0.3835  0.1640
  122OSM    H3S12924   7.044   0.395   9.662  1.5091 -0.0756 -1.7561
  122OSM     O312925   6.836   0.412   9.617 -0.1629 -0.1129 -0.2246
  122OSM    HO312926   6.781   0.341   9.650  0.1733 -1.6539 -2.7994
  122OSM    C4S12927   7.018   0.401   9.452 -0.4932 -0.3138 -0.4880
  122OSM    H4S12928   7.127   0.404   9.443 -0.5145  2.9435 -0.2006
  122OSM    C5S12929   6.946   0.450   9.347 -0.0773 -0.0546 -0.6578
  122OSM    H5S12930   6.839   0.471   9.360  0.2729  0.6755  1.1139
  122OSM    C6S12931   7.018   0.495   9.230  0.1236 -0.1839 -0.4133
  122OSM    H6S12932   7.127   0.473   9.231  0.0433 -0.5564  0.8077
  122OSM    H6T12933   7.019   0.606   9.225 -0.0151 -0.1946 -0.6669
  122OSM    C7S12934   6.954   0.446   9.100  0.0765  0.2526  0.6048
  122OSM    H7S12935   6.853   0.489   9.084 -0.3257 -0.8203  0.1744
  122OSM    H7T12936   6.936   0.337   9.089  0.2644  0.5665 -3.7526
  122OSM    C8S12937   7.023   0.497   8.980  0.4099 -0.3060 -0.3453
  122OSM    H8S12938   7.130   0.479   9.002  0.0300  1.4233  3.1639
  122OSM    H8T12939   7.021   0.608   8.981  0.8183 -0.3023  0.2153
  122OSM    C9S12940   6.976   0.425   8.854  0.0352  0.1158  0.3621
  122OSM    H9S12941   6.867   0.441   8.842  0.2328  1.1437 -0.1330
  122OSM    H9T12942   7.000   0.317   8.870  1.4000  0.6755  2.2915
  122OSM   C10S12943   7.048   0.459   8.718 -0.5618 -0.8796 -0.1044
  122OSM   H10S12944   7.157   0.440   8.728 -0.8356 -1.5947  1.7092
  122OSM   H10T12945   7.024   0.568   8.714 -0.0157 -0.8306 -2.6463
  122OSM   C11S12946   6.988   0.397   8.592  0.0512  0.3287  0.0839
  122OSM   H11S12947   6.885   0.429   8.567 -0.1150  0.3800  0.8207
  122OSM   H11T12948   6.991   0.285   8.593 -3.5152  0.1732 -0.8263
  122OSM   C12S12949   7.054   0.450   8.463  1.3293 -0.4673  0.0868
  122OSM   H12S12950   7.055   0.561   8.455  3.4071 -0.4738 -0.1999
  122OSM   H12T12951   7.000   0.416   8.372  0.5962  0.8089  0.0379
  122OSM   C13S12952   7.202   0.411   8.440 -0.0789 -0.6157 -0.3780
  122OSM   H13S12953   7.215   0.303   8.420 -0.1164 -1.0261  1.6894
  122OSM   H13T12954   7.244   0.425   8.541 -2.9055  2.3362  0.4678
  122OSM   C14S12955   7.276   0.493   8.329 -0.3710  0.5616 -0.2255
  122OSM   H14S12956   7.383   0.464   8.334 -0.2563  0.8533 -0.9643
  122OSM   H14T12957   7.268   0.601   8.354  1.1889  0.1086  2.3829
  122OSM   C15S12958   7.221   0.466   8.188 -0.3377  0.4313  0.0030
  122OSM   H15S12959   7.112   0.489   8.194 -0.6619 -1.7010  3.4002
  122OSM   H15T12960   7.234   0.359   8.163  0.1266  1.0777 -2.7332
  122OSM   C16S12961   7.291   0.554   8.080  0.2388 -0.2660 -0.1366
  122OSM   H16S12962   7.399   0.529   8.071  0.2762 -0.3887  0.6551
  122OSM   H16T12963   7.294   0.660   8.111 -1.6041  0.0452 -0.9665
  122OSM   C17S12964   7.223   0.534   7.940 -0.4933 -0.6059  0.4425
  122OSM   H17S12965   7.282   0.573   7.855 -0.0935 -0.6401  0.7003
  122OSM   H17T12966   7.124   0.584   7.936  0.2273  1.0691  2.4046
  122OSM   C18S12967   7.202   0.390   7.889  0.2365 -0.0784  0.4792
  122OSM   H18S12968   7.151   0.328   7.965  0.4392  0.4535  1.0597
  122OSM   H18T12969   7.302   0.353   7.858  0.0125  0.2320 -0.6326
  122OSM   H18U12970   7.145   0.398   7.794  0.6669 -0.0870  0.2199
  122OSM    C1F12971   7.100   0.005   9.563  0.0587 -0.0809  0.0328
  122OSM     OF12972   7.006  -0.070   9.573 -0.3670 -0.5280 -0.6032
  122OSM    C2F12973   7.250  -0.035   9.574 -0.1604 -0.0202  0.0642
  122OSM    H2F12974   7.268  -0.043   9.684  0.5986  1.2263  0.0438
  122OSM    H2G12975   7.316   0.050   9.545 -0.3156 -0.8049 -2.7096
  122OSM    C3F12976   7.283  -0.178   9.506  0.8096 -0.1617  0.5231
  122OSM    H3F12977   7.246  -0.169   9.402  3.1295  1.7819 -0.1721
  122OSM    H3G12978   7.242  -0.267   9.558  1.6018 -1.4656 -1.0311
  122OSM    C4F12979   7.433  -0.208   9.490 -0.2847 -0.4637  0.5447
  122OSM    H4F12980   7.436  -0.315   9.461 -0.9469 -0.2766 -0.2462
  122OSM    H4G12981   7.484  -0.183   9.585  1.7809  1.6385 -1.0454
  122OSM    C5F12982   7.496  -0.135   9.369 -0.6046  0.4513 -0.0109
  122OSM    H5F12983   7.525  -0.033   9.401  2.2354 -0.5843  0.8670
  122OSM    H5G12984   7.422  -0.140   9.286  1.1909 -1.9841 -1.5573
  122OSM    C6F12985   7.634  -0.186   9.331 -0.3132 -0.0551  0.1702
  122OSM    H6F12986   7.634  -0.290   9.292 -0.5140 -0.4231  1.1241
  122OSM    H6G12987   7.698  -0.174   9.421  0.0132 -1.0475  0.0831
  122OSM    C7F12988   7.700  -0.102   9.226  0.2056  0.0464 -0.2801
  122OSM    H7F12989   7.808  -0.101   9.251  0.4602  2.0204 -1.3198
  122OSM    H7G12990   7.674   0.006   9.234 -1.9003 -0.5519  1.2775
  122OSM    C8F12991   7.674  -0.165   9.086 -0.2846 -0.1971 -0.3331
  122OSM    H8F12992   7.564  -0.179   9.075 -0.3973  0.9413 -0.7921
  122OSM    H8G12993   7.731  -0.259   9.084  0.0525  0.0092 -0.5221
  122OSM    C9F12994   7.735  -0.069   8.983  0.2184 -0.2576  0.4121
  122OSM    H9F12995   7.714   0.039   8.987 -2.5143 -0.7314  0.0177
  122OSM   C10F12996   7.812  -0.108   8.877  0.3348  0.1290  0.0762
  122OSM   H10F12997   7.848  -0.016   8.827  0.6213  0.3903  0.7517
  122OSM   C11F12998   7.848  -0.244   8.831 -0.7959  0.0066  0.7903
  122OSM   H11F12999   7.796  -0.323   8.888 -0.8786 -1.3129 -1.0944
  122OSM   H11G13000   7.959  -0.254   8.837 -0.6451  0.6069 -0.7208
  122OSM   C12F13001   7.811  -0.253   8.680  0.4257 -0.4039 -0.9299
  122OSM   H12F13002   7.864  -0.345   8.647  1.1794 -0.5880  0.7249
  122OSM   H12G13003   7.846  -0.164   8.624 -1.0467  0.3687 -0.6340
  122OSM   C13F13004   7.664  -0.277   8.645 -0.2295 -0.2023 -0.0527
  122OSM   H13F13005   7.597  -0.194   8.675 -0.1337  0.6606 -2.1255
  122OSM   H13G13006   7.635  -0.370   8.698 -0.6102 -1.2860 -2.1125
  122OSM   C14F13007   7.637  -0.303   8.497  0.2564 -0.1773  0.0985
  122OSM   H14F13008   7.720  -0.368   8.462  1.5202  1.0911  0.6557
  122OSM   H14G13009   7.651  -0.204   8.448  1.8433 -0.5337 -0.2023
  122OSM   C15F13010   7.500  -0.339   8.439  0.7750  0.4424  0.0821
  122OSM   H15F13011   7.489  -0.308   8.333  2.6709  0.1066 -0.2330
  122OSM   H15G13012   7.413  -0.293   8.491  0.6335  1.9809 -1.4747
  122OSM   C16F13013   7.473  -0.490   8.430 -0.1788  0.0715 -0.2016
  122OSM   H16F13014   7.565  -0.553   8.427  1.5642  2.5304  0.0779
  122OSM   H16G13015   7.408  -0.517   8.344  0.7149 -0.7198 -0.6435
  122OSM   C17F13016   7.399  -0.542   8.554 -0.2754 -0.4810  0.4279
  122OSM   H17F13017   7.415  -0.478   8.644  1.6028 -2.0735  1.2582
  122OSM   H17G13018   7.448  -0.632   8.597  0.2171  0.8225  2.7088
  122OSM   C18F13019   7.247  -0.576   8.520  0.1665  0.3167 -0.4717
  122OSM   H18F13020   7.189  -0.495   8.471  0.2247  1.3532  1.1510
  122OSM   H18G13021   7.187  -0.597   8.611 -0.0196  2.0418 -0.1780
  122OSM   H18H13022   7.240  -0.664   8.452  1.3108  0.3267 -0.6080
  123OSM      N13023   3.366   4.672   5.626 -0.2985  0.1890 -0.4601
  123OSM    C1513024   3.459   4.596   5.702  0.3122  0.0106 -0.4331
  123OSM   H15A13025   3.547   4.657   5.720 -0.2190  0.8382 -0.6510
  123OSM   H15B13026   3.477   4.500   5.656 -2.8847 -1.3270  0.9295
  123OSM   H15C13027   3.410   4.571   5.795 -0.5777  1.7834 -0.4163
  123OSM    C1413028   3.351   4.801   5.696 -0.4773  0.3217  0.0097
  123OSM   H14A13029   3.311   4.788   5.796 -0.3080  1.7950  0.2795
  123OSM   H14B13030   3.290   4.874   5.646 -1.1379 -1.9734 -2.6698
  123OSM   H14C13031   3.446   4.849   5.712  0.6234 -1.7841 -0.0730
  123OSM    C1313032   3.419   4.697   5.485  0.8333  0.5642  0.0965
  123OSM   H13A13033   3.516   4.744   5.479  1.2223 -0.2763 -0.3260
  123OSM   H13B13034   3.354   4.768   5.437 -0.0490 -2.2189 -2.9213
  123OSM   H13C13035   3.418   4.606   5.428  0.4571  0.2398  0.6184
  123OSM    C1213036   3.234   4.598   5.617  0.0237 -0.4687  0.2061
  123OSM   H12A13037   3.156   4.669   5.592  0.3946  0.2640  1.1104
  123OSM   H12B13038   3.205   4.574   5.718  0.1563  1.7190  0.7814
  123OSM    C1113039   3.216   4.477   5.521 -0.2030 -0.2079 -0.3940
  123OSM   H11A13040   3.240   4.510   5.418 -1.4858  2.5188  0.1524
  123OSM   H11B13041   3.107   4.457   5.509 -0.3280 -1.4422  2.3588
  123OSM      P13042   3.239   4.286   5.681  0.0676 -0.7452  0.1405
  123OSM    O1313043   3.159   4.171   5.633  0.2977  0.1736  0.3464
  123OSM    O1413044   3.362   4.267   5.768  0.4071 -0.1203 -0.7732
  123OSM    O1113045   3.144   4.395   5.746 -0.1166  0.8527 -0.0908
  123OSM    O1213046   3.290   4.361   5.557 -0.3664  0.2319  0.1996
  123OSM    C1S13047   3.030   4.379   5.819 -0.2363  0.6972 -0.2352
  123OSM    H1S13048   2.967   4.309   5.760  0.7335  0.4816 -1.0240
  123OSM    H1T13049   2.986   4.481   5.817 -1.2631  0.2943  0.9915
  123OSM     NF13050   2.944   4.291   6.026 -0.1452 -0.2561 -0.5434
  123OSM    HNF13051   2.918   4.344   6.107  0.5123  0.6802 -0.9344
  123OSM    C2S13052   3.063   4.347   5.968 -0.1227  0.6170 -0.0782
  123OSM    H2S13053   3.135   4.263   5.963  0.4149  0.8275  3.1819
  123OSM    C3S13054   3.123   4.482   6.029  0.2593  0.2501 -0.9122
  123OSM    H3S13055   3.052   4.566   6.025 -1.0700 -0.6493  2.3324
  123OSM     O313056   3.249   4.525   5.968 -0.7485  0.1606  0.3474
  123OSM    HO313057   3.265   4.465   5.895  1.8133 -2.1054  2.6723
  123OSM    C4S13058   3.149   4.443   6.175  0.6240 -0.2107 -0.3470
  123OSM    H4S13059   3.219   4.359   6.188  0.7088 -0.0584  0.1701
  123OSM    C5S13060   3.094   4.487   6.287 -0.3170  0.1044  0.4207
  123OSM    H5S13061   3.031   4.577   6.283  1.8288  1.6325 -0.2013
  123OSM    C6S13062   3.124   4.439   6.426  0.1939  0.2028  0.9414
  123OSM    H6S13063   3.228   4.401   6.422  0.3674  0.5889  1.6600
  123OSM    H6T13064   3.048   4.367   6.463  0.1137  0.7662  1.8926
  123OSM    C7S13065   3.127   4.559   6.514 -0.1614 -0.4696  0.0450
  123OSM    H7S13066   3.025   4.604   6.511 -0.8884 -2.0006  0.7063
  123OSM    H7T13067   3.200   4.635   6.481 -1.2573 -0.4046 -2.3244
  123OSM    C8S13068   3.139   4.521   6.659 -0.0185  0.3673 -0.2780
  123OSM    H8S13069   3.067   4.447   6.700  1.6601 -0.2001  1.7423
  123OSM    H8T13070   3.118   4.619   6.706  1.3371 -0.8256  2.9139
  123OSM    C9S13071   3.273   4.475   6.701 -1.6299  0.0477  0.3530
  123OSM    H9S13072   3.351   4.542   6.660 -2.1925  1.1533  1.0598
  123OSM    H9T13073   3.290   4.373   6.661 -0.1849  0.7693 -0.9300
  123OSM   C10S13074   3.285   4.476   6.855  0.3529  0.6588 -0.3855
  123OSM   H10S13075   3.376   4.419   6.883  0.4743  0.0160 -2.0505
  123OSM   H10T13076   3.208   4.405   6.894 -1.3957  2.2179 -0.9529
  123OSM   C11S13077   3.289   4.612   6.922  0.2732  0.0254 -0.4046
  123OSM   H11S13078   3.184   4.646   6.911 -0.4489 -0.8818  3.2515
  123OSM   H11T13079   3.359   4.672   6.859 -0.6167  0.3531 -1.0836
  123OSM   C12S13080   3.326   4.595   7.067 -0.3109 -0.0351 -0.0584
  123OSM   H12S13081   3.357   4.693   7.109  0.5390  0.8814 -2.6995
  123OSM   H12T13082   3.415   4.531   7.078  0.8330  1.4992 -0.2196
  123OSM   C13S13083   3.201   4.558   7.148  0.0220  0.2122  0.1041
  123OSM   H13S13084   3.239   4.529   7.248  0.1400  1.5698  0.4650
  123OSM   H13T13085   3.152   4.467   7.109  1.7390 -0.1754 -1.2204
  123OSM   C14S13086   3.092   4.663   7.169 -0.4928 -0.0321  0.0633
  123OSM   H14S13087   3.041   4.689   7.075  0.9072 -0.9829 -0.9781
  123OSM   H14T13088   3.145   4.756   7.199  0.0327 -0.7413  1.4286
  123OSM   C15S13089   2.982   4.626   7.269 -0.1441 -0.0306  0.3291
  123OSM   H15S13090   2.925   4.536   7.236  0.0087 -0.1616  0.4228
  123OSM   H15T13091   2.902   4.703   7.260 -0.0335  0.3727  2.5023
  123OSM   C16S13092   3.025   4.612   7.418  0.6132  0.2976  0.6001
  123OSM   H16S13093   3.059   4.507   7.429 -1.7838 -0.6566 -0.6100
  123OSM   H16T13094   2.936   4.634   7.481  0.0728 -1.6303  0.5398
  123OSM   C17S13095   3.146   4.686   7.469  0.7057 -0.0294  0.3610
  123OSM   H17S13096   3.126   4.795   7.465  3.5568  0.5860  1.7679
  123OSM   H17T13097   3.232   4.658   7.403  0.1352 -1.5521  0.2609
  123OSM   C18S13098   3.196   4.660   7.614  0.2777  0.3740  0.4915
  123OSM   H18S13099   3.112   4.675   7.685 -0.2504 -0.8148  0.1319
  123OSM   H18T13100   3.279   4.727   7.644  0.4345  1.2582 -1.8480
  123OSM   H18U13101   3.233   4.556   7.623  0.4733  0.3695 -0.3079
  123OSM    C1F13102   2.894   4.167   6.000 -0.0435  0.3951 -0.1853
  123OSM     OF13103   2.949   4.098   5.916  0.4732  0.3945  0.0293
  123OSM    C2F13104   2.768   4.120   6.064  0.7326 -0.2860 -0.5285
  123OSM    H2F13105   2.774   4.009   6.066 -1.0000 -0.3770  1.0356
  123OSM    H2G13106   2.681   4.141   5.998  1.2810  1.6535 -0.6649
  123OSM    C3F13107   2.738   4.174   6.209  0.6561 -0.0516 -0.4523
  123OSM    H3F13108   2.647   4.128   6.250  0.3953  0.9629  0.1404
  123OSM    H3G13109   2.718   4.282   6.189 -0.4367 -0.1390  0.1453
  123OSM    C4F13110   2.842   4.161   6.316  0.3961  1.1644  0.6617
  123OSM    H4F13111   2.786   4.204   6.401  2.3031  0.4082  2.3328
  123OSM    H4G13112   2.925   4.230   6.291 -1.1410  2.4583 -0.9602
  123OSM    C5F13113   2.902   4.019   6.341 -0.2863 -0.3505  0.4636
  123OSM    H5F13114   2.947   3.991   6.244  2.2645 -0.2999  1.5939
  123OSM    H5G13115   2.823   3.948   6.374 -0.1021 -0.8477 -0.1521
  123OSM    C6F13116   3.014   4.019   6.446  0.2596 -0.0703  0.3446
  123OSM    H6F13117   3.076   4.103   6.408 -2.0195  0.9522 -1.2019
  123OSM    H6G13118   3.066   3.921   6.444  0.7683  0.2083 -0.9356
  123OSM    C7F13119   2.991   4.074   6.585  0.0490 -0.2919 -0.3016
  123OSM    H7F13120   2.910   4.018   6.635  1.1720 -0.2784  1.5781
  123OSM    H7G13121   2.961   4.181   6.581 -0.8936 -0.5373  0.0445
  123OSM    C8F13122   3.115   4.074   6.678  0.4377  0.0243 -0.2362
  123OSM    H8F13123   3.201   4.133   6.640  0.7359  0.4948  1.1123
  123OSM    H8G13124   3.145   3.967   6.680  0.8611  0.1430  0.0303
  123OSM    C9F13125   3.090   4.140   6.809 -0.4090 -0.3539 -0.4535
  123OSM    H9F13126   3.061   4.245   6.790  0.8633 -0.0631 -0.8482
  123OSM   C10F13127   3.100   4.086   6.926  0.1446 -0.8448 -0.3490
  123OSM   H10F13128   3.067   4.147   7.012 -1.1600 -2.9899  0.7134
  123OSM   C11F13129   3.149   3.952   6.966  0.0681  0.9731  0.5027
  123OSM   H11F13130   3.201   3.904   6.879 -1.9505 -0.1548 -0.1057
  123OSM   H11G13131   3.065   3.884   6.991  0.6106  0.8927  2.1336
  123OSM   C12F13132   3.224   3.955   7.101 -0.5167 -0.4575 -0.0409
  123OSM   H12F13133   3.151   3.988   7.177  0.5728 -0.5004  1.0363
  123OSM   H12G13134   3.315   4.019   7.092  0.6181 -1.8789  1.1067
  123OSM   C13F13135   3.280   3.823   7.165  0.5741 -0.0801  0.4965
  123OSM   H13F13136   3.342   3.767   7.091  2.3810 -0.2522  2.1144
  123OSM   H13G13137   3.200   3.746   7.172 -0.6486  1.2083  0.8121
  123OSM   C14F13138   3.363   3.843   7.292 -0.1031  0.1741 -0.2940
  123OSM   H14F13139   3.462   3.882   7.261 -0.0552 -1.6365 -2.5565
  123OSM   H14G13140   3.379   3.746   7.343  0.3746  0.5153  0.2168
  123OSM   C15F13141   3.300   3.936   7.399 -0.5733 -0.4257 -0.0585
  123OSM   H15F13142   3.194   3.904   7.411 -0.5454 -1.1349 -1.5670
  123OSM   H15G13143   3.303   4.040   7.362 -1.3820  0.2903  1.8398
  123OSM   C16F13144   3.369   3.933   7.537 -0.8031  0.5971 -0.0970
  123OSM   H16F13145   3.326   4.020   7.591 -1.6800  1.1306 -1.6492
  123OSM   H16G13146   3.475   3.962   7.525 -0.7102  0.2585 -0.1105
  123OSM   C17F13147   3.356   3.814   7.631 -0.2605  0.6576  0.4679
  123OSM   H17F13148   3.423   3.824   7.719  2.0494  0.1183 -1.1721
  123OSM   H17G13149   3.395   3.722   7.583  1.6920  2.0707 -0.7546
  123OSM   C18F13150   3.214   3.796   7.686  0.1680  0.1170 -1.1773
  123OSM   H18F13151   3.150   3.887   7.675  1.0173  0.6656 -1.6547
  123OSM   H18G13152   3.207   3.756   7.789  4.0811  1.4431 -0.3086
  123OSM   H18H13153   3.163   3.718   7.626 -0.5617 -0.8589  0.6869
  124OSM      N13154   5.233   2.458   5.278  0.1179 -0.1969 -0.1996
  124OSM    C1513155   5.282   2.520   5.151 -0.3544 -0.7171  0.4897
  124OSM   H15A13156   5.234   2.476   5.065 -0.0636 -0.3739  0.1532
  124OSM   H15B13157   5.386   2.495   5.135 -0.3302 -0.1301 -0.2707
  124OSM   H15C13158   5.255   2.624   5.142  1.1454 -0.4551 -1.0054
  124OSM    C1413159   5.304   2.518   5.393  0.8071 -0.1130 -0.2317
  124OSM   H14A13160   5.393   2.460   5.409  0.1998 -0.7958  0.6639
  124OSM   H14B13161   5.257   2.511   5.490  3.5227 -0.7598  1.0743
  124OSM   H14C13162   5.320   2.623   5.373  4.1610 -0.8116 -1.6889
  124OSM    C1313163   5.085   2.483   5.297 -0.0239 -0.0290 -0.1670
  124OSM   H13A13164   5.073   2.590   5.301  0.3286  0.0495 -1.1701
  124OSM   H13B13165   5.053   2.444   5.393  0.4402  1.2389  0.5170
  124OSM   H13C13166   5.024   2.433   5.224  0.2561 -0.6336  0.0103
  124OSM    C1213167   5.255   2.311   5.272 -0.0856  0.5152  0.4150
  124OSM   H12A13168   5.198   2.263   5.194 -1.6905  1.8469  0.7326
  124OSM   H12B13169   5.206   2.273   5.360  1.3062 -1.4905  0.3469
  124OSM    C1113170   5.398   2.256   5.273  0.2476  0.5613  0.4678
  124OSM   H11A13171   5.454   2.301   5.188  0.8766 -0.5172  0.3067
  124OSM   H11B13172   5.396   2.147   5.252  0.5680  0.2036  2.2048
  124OSM      P13173   5.425   2.194   5.530  0.0637 -0.4604 -0.3310
  124OSM    O1313174   5.278   2.185   5.537 -0.2817 -0.4699  0.0699
  124OSM    O1413175   5.502   2.068   5.545 -0.3891 -0.2438  0.0037
  124OSM    O1113176   5.462   2.293   5.643  0.4094 -0.1626  0.0655
  124OSM    O1213177   5.467   2.277   5.399 -0.2087 -0.0819  0.2568
  124OSM    C1S13178   5.570   2.386   5.620  0.2548 -0.4009 -0.2609
  124OSM    H1S13179   5.549   2.464   5.544 -0.6161  0.2136  0.6009
  124OSM    H1T13180   5.667   2.337   5.594  1.4125  0.3100  2.4980
  124OSM     NF13181   5.696   2.574   5.728  0.2678  1.3237 -0.7492
  124OSM    HNF13182   5.787   2.566   5.768  0.2991  0.8760 -0.9083
  124OSM    C2S13183   5.602   2.467   5.745 -0.8064  0.7012  0.1972
  124OSM    H2S13184   5.502   2.500   5.782  0.0491  1.6278  1.7305
  124OSM    C3S13185   5.651   2.356   5.849 -0.4924  0.9802 -0.5633
  124OSM    H3S13186   5.735   2.291   5.816 -0.0152  0.4323  1.6806
  124OSM     O313187   5.549   2.262   5.886 -0.0906  0.3287 -0.5725
  124OSM    HO313188   5.487   2.256   5.813  0.0339  1.7549 -0.8237
  124OSM    C4S13189   5.699   2.422   5.984  0.9113 -0.1478  0.2553
  124OSM    H4S13190   5.799   2.391   6.020  0.5908  1.4974  2.6539
  124OSM    C5S13191   5.631   2.501   6.068 -0.2094  0.3133  0.5297
  124OSM    H5S13192   5.525   2.529   6.064 -0.9135 -2.5769 -2.1848
  124OSM    C6S13193   5.687   2.552   6.199  0.0406 -0.1314  0.0033
  124OSM    H6S13194   5.695   2.662   6.188  0.6812 -0.1110  0.5680
  124OSM    H6T13195   5.793   2.518   6.203 -0.4887 -1.8664 -0.1370
  124OSM    C7S13196   5.606   2.523   6.324  0.2299 -0.2937 -0.4176
  124OSM    H7S13197   5.671   2.547   6.411  0.7567 -2.4297 -0.1999
  124OSM    H7T13198   5.576   2.416   6.333 -0.0148 -0.2426 -0.6095
  124OSM    C8S13199   5.475   2.608   6.353  0.4071  0.6410  0.3067
  124OSM    H8S13200   5.407   2.618   6.266 -0.2653  1.9102  0.9544
  124OSM    H8T13201   5.515   2.708   6.381 -0.5985  0.7327  1.4325
  124OSM    C9S13202   5.395   2.572   6.475 -0.3383  0.3604 -0.4062
  124OSM    H9S13203   5.455   2.561   6.568  0.9765 -1.1746 -1.4157
  124OSM    H9T13204   5.355   2.470   6.455 -1.0601  0.7796 -1.0905
  124OSM   C10S13205   5.286   2.677   6.501 -0.2892 -0.2269  0.0683
  124OSM   H10S13206   5.227   2.703   6.410  2.5547  0.9932 -1.4741
  124OSM   H10T13207   5.334   2.769   6.539 -0.7674  0.4053 -0.8481
  124OSM   C11S13208   5.186   2.618   6.593  0.0090 -0.8490 -0.3354
  124OSM   H11S13209   5.133   2.531   6.548 -2.8495 -0.6143  2.4016
  124OSM   H11T13210   5.120   2.703   6.616  0.2139 -0.4401 -1.2553
  124OSM   C12S13211   5.252   2.568   6.730  0.1284 -0.3166  0.9305
  124OSM   H12S13212   5.319   2.483   6.705  0.7190  0.1529  0.9298
  124OSM   H12T13213   5.171   2.536   6.800  0.6401 -0.0829  1.6280
  124OSM   C13S13214   5.313   2.683   6.809  0.0025  0.3240  0.5015
  124OSM   H13S13215   5.245   2.771   6.805  1.9904  1.8826  0.4079
  124OSM   H13T13216   5.408   2.715   6.761 -0.8644  1.5967 -0.4074
  124OSM   C14S13217   5.320   2.650   6.954 -0.1517  0.5521  0.2434
  124OSM   H14S13218   5.357   2.546   6.971  0.9701  0.6964 -1.1565
  124OSM   H14T13219   5.220   2.664   7.001  0.1594  0.6969  0.8661
  124OSM   C15S13220   5.405   2.740   7.040  0.4457 -0.2374  0.3767
  124OSM   H15S13221   5.420   2.690   7.138  0.9594 -0.7025  0.0617
  124OSM   H15T13222   5.362   2.838   7.068  1.0243 -0.1599  1.0045
  124OSM   C16S13223   5.546   2.776   6.980 -0.3996  1.1084  0.0228
  124OSM   H16S13224   5.542   2.866   6.915 -4.2264  0.6400 -0.5173
  124OSM   H16T13225   5.584   2.684   6.932  2.9267  0.6498  3.2773
  124OSM   C17S13226   5.649   2.816   7.085 -0.6043  0.8615 -0.2850
  124OSM   H17S13227   5.746   2.835   7.035 -0.3757  0.7482  0.1071
  124OSM   H17T13228   5.667   2.735   7.159 -0.5999  1.4354  0.3451
  124OSM   C18S13229   5.618   2.956   7.138 -0.4394  0.0397  0.7087
  124OSM   H18S13230   5.625   3.031   7.056  0.7341  0.8590  1.5439
  124OSM   H18T13231   5.704   2.977   7.204  0.1804  1.3464 -0.4841
  124OSM   H18U13232   5.525   2.962   7.199  0.1794 -0.5321  1.7130
  124OSM    C1F13233   5.664   2.687   5.662  0.4476 -0.4090  0.4880
  124OSM     OF13234   5.550   2.706   5.637  0.2857  0.0031 -0.2797
  124OSM    C2F13235   5.774   2.784   5.634  0.1765 -0.3520  0.2300
  124OSM    H2F13236   5.735   2.867   5.571  0.3438 -0.5337 -0.1178
  124OSM    H2G13237   5.849   2.739   5.566 -1.6683 -2.6070 -0.3793
  124OSM    C3F13238   5.847   2.855   5.756  0.0300 -0.6403  0.1205
  124OSM    H3F13239   5.927   2.921   5.716  0.1607 -0.4487  0.7097
  124OSM    H3G13240   5.889   2.779   5.826  3.6511  0.0572 -1.2078
  124OSM    C4F13241   5.744   2.947   5.827 -0.4348  0.1979  0.3441
  124OSM    H4F13242   5.685   2.983   5.741 -1.3860 -2.1670 -0.0265
  124OSM    H4G13243   5.797   3.042   5.851 -0.9495  0.3232  1.0083
  124OSM    C5F13244   5.677   2.896   5.956  0.3426 -0.7808  0.0645
  124OSM    H5F13245   5.720   2.937   6.049  1.0284 -0.5086 -0.3666
  124OSM    H5G13246   5.697   2.787   5.952 -1.4606 -1.1257 -0.0174
  124OSM    C6F13247   5.527   2.922   5.953  0.3510  0.1629 -0.1236
  124OSM    H6F13248   5.495   2.871   5.860 -0.5622 -0.3273  0.4490
  124OSM    H6G13249   5.513   3.032   5.954 -0.1026  0.1089 -0.7535
  124OSM    C7F13250   5.452   2.854   6.061  0.4015 -0.1344  0.3755
  124OSM    H7F13251   5.500   2.877   6.159  0.6595  1.1909 -0.0451
  124OSM    H7G13252   5.450   2.749   6.027 -2.2498 -0.0492  0.1461
  124OSM    C8F13253   5.301   2.902   6.071  0.2378 -0.3927 -0.2978
  124OSM    H8F13254   5.294   3.013   6.068 -1.8119 -0.4750  0.6767
  124OSM    H8G13255   5.263   2.866   6.169 -1.0213  1.0814 -0.2234
  124OSM    C9F13256   5.216   2.828   5.968 -0.3460 -0.1823 -0.5822
  124OSM    H9F13257   5.242   2.838   5.861  3.2872 -0.6673  0.2014
  124OSM   C10F13258   5.108   2.743   5.976  0.0469 -0.5549 -0.3652
  124OSM   H10F13259   5.066   2.691   5.890  1.9868  1.4177 -2.5961
  124OSM   C11F13260   5.054   2.697   6.108 -0.0880  0.2128 -0.2012
  124OSM   H11F13261   5.129   2.712   6.189  0.3948  1.4534 -0.8725
  124OSM   H11G13262   5.041   2.587   6.100  1.2290 -0.0352  0.8040
  124OSM   C12F13263   4.919   2.750   6.146  0.5869  0.2017 -0.1371
  124OSM   H12F13264   4.841   2.739   6.067  1.9764 -1.6791 -1.2981
  124OSM   H12G13265   4.922   2.858   6.170  0.0465  0.0067  0.8099
  124OSM   C13F13266   4.874   2.678   6.273  0.5047  0.7664 -0.1516
  124OSM   H13F13267   4.949   2.658   6.352 -0.0705  0.1468  0.2412
  124OSM   H13G13268   4.832   2.583   6.232  0.5539  0.5474  0.3035
  124OSM   C14F13269   4.759   2.745   6.335  0.7100  0.4290  0.5461
  124OSM   H14F13270   4.680   2.747   6.258  0.6965 -0.2562  0.5389
  124OSM   H14G13271   4.791   2.849   6.358  0.7796  0.2546  1.2529
  124OSM   C15F13272   4.707   2.684   6.469  0.7062  0.4861  0.8092
  124OSM   H15F13273   4.681   2.577   6.455 -1.8547  1.2008 -0.1935
  124OSM   H15G13274   4.611   2.737   6.486  0.8969  1.2512 -0.4488
  124OSM   C16F13275   4.800   2.699   6.588 -0.3852 -0.2229  0.6427
  124OSM   H16F13276   4.834   2.805   6.588  2.0263 -0.9593  1.8680
  124OSM   H16G13277   4.895   2.646   6.566  0.0924  1.8983 -2.8780
  124OSM   C17F13278   4.743   2.673   6.724  0.0157  0.3452 -0.5162
  124OSM   H17F13279   4.728   2.567   6.751 -1.5233  1.2978  2.5758
  124OSM   H17G13280   4.642   2.719   6.730 -0.5143 -0.9408  0.4678
  124OSM   C18F13281   4.830   2.736   6.828 -0.9154 -0.0108 -0.4909
  124OSM   H18F13282   4.901   2.813   6.790  0.6035 -0.5986  1.0466
  124OSM   H18G13283   4.898   2.663   6.879 -0.7738  0.3361 -0.1817
  124OSM   H18H13284   4.764   2.793   6.897  0.5700  0.1735  0.8337
  125OSM      N13285   5.217   3.512   5.676 -0.5098  0.0066 -0.1362
  125OSM    C1513286   5.327   3.564   5.591 -0.1559  0.6032  0.5755
  125OSM   H15A13287   5.307   3.670   5.590 -0.2385  0.5826 -0.5175
  125OSM   H15B13288   5.323   3.522   5.492 -0.7044  0.5226  0.6308
  125OSM   H15C13289   5.422   3.550   5.641 -0.5633 -1.0906  0.9273
  125OSM    C1413290   5.086   3.556   5.618  0.0266  0.1688  0.2753
  125OSM   H14A13291   5.004   3.496   5.656 -0.4267 -0.5676 -1.7733
  125OSM   H14B13292   5.100   3.567   5.511 -1.1107  1.4734  0.2410
  125OSM   H14C13293   5.076   3.659   5.648 -0.8210  0.9075 -2.4053
  125OSM    C1313294   5.228   3.365   5.688  0.0307 -0.0451  0.1841
  125OSM   H13A13295   5.328   3.323   5.684  0.2315  0.5722 -3.0073
  125OSM   H13B13296   5.186   3.333   5.594 -2.6536  1.1881  0.9174
  125OSM   H13C13297   5.179   3.316   5.770  3.2485 -0.7642  1.7564
  125OSM    C1213298   5.219   3.562   5.822 -0.0694  0.9383  0.3402
  125OSM   H12A13299   5.321   3.565   5.858 -0.3251  2.7679  0.9543
  125OSM   H12B13300   5.155   3.498   5.881  0.2203  2.4300  2.3380
  125OSM    C1113301   5.186   3.711   5.851 -0.3650  1.1249  0.2158
  125OSM   H11A13302   5.178   3.722   5.961 -1.9431  1.9571  0.0418
  125OSM   H11B13303   5.090   3.739   5.802 -0.0600  0.1903 -0.9575
  125OSM      P13304   5.429   3.808   5.861  0.1561  0.0804  0.4634
  125OSM    O1313305   5.493   3.674   5.879  0.0999 -0.0648  0.3737
  125OSM    O1413306   5.507   3.902   5.783  0.0993 -0.3063  0.1781
  125OSM    O1113307   5.388   3.865   6.001 -0.2366  0.2558  0.2836
  125OSM    O1213308   5.294   3.791   5.792  0.2910  0.3509  0.4945
  125OSM    C1S13309   5.457   3.980   6.053 -0.0068  0.1781 -0.3846
  125OSM    H1S13310   5.530   4.021   5.980  2.1907 -2.5476  0.2028
  125OSM    H1T13311   5.520   3.959   6.143  0.0632 -0.1289 -0.5059
  125OSM     NF13312   5.415   4.195   6.148 -0.6008  0.2931  0.7337
  125OSM    HNF13313   5.361   4.235   6.221 -0.6759 -0.1487  0.9245
  125OSM    C2S13314   5.354   4.089   6.081 -0.0840  0.2383 -0.3813
  125OSM    H2S13315   5.316   4.127   5.984 -3.6759 -2.2422 -0.0832
  125OSM    C3S13316   5.230   4.035   6.169 -0.0185 -0.3287  0.1479
  125OSM    H3S13317   5.166   3.973   6.102 -0.9592 -0.1566  0.8833
  125OSM     O313318   5.148   4.144   6.209 -0.5297  0.1155  0.2422
  125OSM    HO313319   5.176   4.222   6.162 -0.3406 -0.8309 -1.2448
  125OSM    C4S13320   5.271   3.967   6.296  0.1668 -1.2374  0.0335
  125OSM    H4S13321   5.289   4.036   6.380  0.5050 -1.4933  0.1710
  125OSM    C5S13322   5.291   3.833   6.319  0.3178  0.1174  0.8877
  125OSM    H5S13323   5.277   3.765   6.234  0.7289  0.3767  0.6101
  125OSM    C6S13324   5.340   3.768   6.450 -0.1866  0.0992  0.5113
  125OSM    H6S13325   5.431   3.705   6.438  0.7361  1.4743  0.1719
  125OSM    H6T13326   5.257   3.701   6.482 -2.4056  1.9182 -1.2241
  125OSM    C7S13327   5.370   3.853   6.568 -0.0838 -0.0638 -0.7633
  125OSM    H7S13328   5.292   3.931   6.573 -1.2346 -1.1701 -1.3402
  125OSM    H7T13329   5.467   3.907   6.554 -0.4416  0.9017  0.4747
  125OSM    C8S13330   5.360   3.782   6.703  0.1794 -0.4641 -0.0963
  125OSM    H8S13331   5.441   3.707   6.711 -0.3505 -1.0195  0.0947
  125OSM    H8T13332   5.255   3.747   6.712  0.4357 -1.0654  0.5693
  125OSM    C9S13333   5.386   3.889   6.809 -0.4901  0.0939 -0.0956
  125OSM    H9S13334   5.320   3.977   6.796 -0.1278  0.1577 -1.6424
  125OSM    H9T13335   5.488   3.935   6.809  1.0288 -3.1163  1.5251
  125OSM   C10S13336   5.373   3.831   6.941 -0.1578 -0.4057 -0.8243
  125OSM   H10S13337   5.434   3.738   6.949 -0.5196 -0.6131 -0.4567
  125OSM   H10T13338   5.266   3.807   6.958 -0.1062  0.0558  0.2042
  125OSM   C11S13339   5.424   3.917   7.062  0.3716  0.1780 -0.0701
  125OSM   H11S13340   5.393   4.022   7.042  1.6078  0.3148 -1.3605
  125OSM   H11T13341   5.534   3.909   7.072  0.3702 -0.5603 -0.5417
  125OSM   C12S13342   5.370   3.864   7.196  0.5242  0.0292  0.1557
  125OSM   H12S13343   5.406   3.759   7.209 -0.1945 -0.3569 -0.9610
  125OSM   H12T13344   5.260   3.873   7.193  0.6372  2.2376  1.8242
  125OSM   C13S13345   5.429   3.943   7.314 -0.4437 -0.1768 -0.7950
  125OSM   H13S13346   5.398   4.049   7.301  0.8055  0.1612 -1.0523
  125OSM   H13T13347   5.540   3.934   7.306 -0.2617  0.1202  1.1576
  125OSM   C14S13348   5.389   3.890   7.458 -0.1907 -0.5685 -0.1849
  125OSM   H14S13349   5.432   3.790   7.480 -0.0050 -0.6334 -0.8330
  125OSM   H14T13350   5.279   3.884   7.445 -0.0665 -1.1297 -1.0498
  125OSM   C15S13351   5.454   3.977   7.569  0.1546  0.2300  0.3471
  125OSM   H15S13352   5.563   3.957   7.562  0.0986 -0.4553  1.3434
  125OSM   H15T13353   5.421   3.948   7.670 -0.7535  0.8343  0.2266
  125OSM   C16S13354   5.414   4.121   7.579 -0.3491 -0.3525  0.4601
  125OSM   H16S13355   5.305   4.127   7.601 -1.1832  0.2223 -3.3867
  125OSM   H16T13356   5.420   4.170   7.479 -0.3361  1.4544  1.3301
  125OSM   C17S13357   5.476   4.205   7.684 -0.1510 -0.8000  0.3185
  125OSM   H17S13358   5.587   4.194   7.675  0.0427  2.0163 -1.5043
  125OSM   H17T13359   5.443   4.172   7.784 -0.8790 -2.1329 -0.3416
  125OSM   C18S13360   5.431   4.349   7.662 -0.2986  0.0005  0.1449
  125OSM   H18S13361   5.476   4.376   7.564  0.6548 -1.9715  0.0007
  125OSM   H18T13362   5.467   4.419   7.739 -0.2965 -0.4173  0.5268
  125OSM   H18U13363   5.321   4.354   7.647 -0.0794  0.3843 -1.4385
  125OSM    C1F13364   5.516   4.264   6.107 -0.4929  0.0320 -0.0565
  125OSM     OF13365   5.569   4.238   6.000 -0.4086  0.3581 -0.2471
  125OSM    C2F13366   5.568   4.375   6.201 -0.3130 -0.3009  0.5031
  125OSM    H2F13367   5.551   4.482   6.177  1.5666 -0.1274 -0.1896
  125OSM    H2G13368   5.678   4.360   6.190  0.2382  3.0333  0.7021
  125OSM    C3F13369   5.518   4.354   6.349 -0.1956 -0.8548 -0.2968
  125OSM    H3F13370   5.541   4.251   6.382  0.2561 -1.2884 -1.9273
  125OSM    H3G13371   5.407   4.351   6.357 -0.3543  1.0497 -1.3302
  125OSM    C4F13372   5.583   4.442   6.460  0.1373  0.1688 -0.8708
  125OSM    H4F13373   5.566   4.544   6.420 -0.0941  0.9421  1.1198
  125OSM    H4G13374   5.688   4.411   6.475 -0.3650 -0.8087  0.7227
  125OSM    C5F13375   5.508   4.432   6.593 -1.0329 -0.3968  0.1262
  125OSM    H5F13376   5.398   4.426   6.574 -0.4410 -0.6772 -3.7559
  125OSM    H5G13377   5.531   4.526   6.647 -2.1007  0.3140 -0.6186
  125OSM    C6F13378   5.540   4.310   6.675 -0.7712  0.1510  0.7453
  125OSM    H6F13379   5.651   4.302   6.680 -0.6188  1.1036 -0.8061
  125OSM    H6G13380   5.498   4.218   6.629 -2.1508  1.9753 -1.7394
  125OSM    C7F13381   5.489   4.310   6.813  0.4539  0.0045  0.1018
  125OSM    H7F13382   5.533   4.398   6.865 -1.0727  0.6483  0.3226
  125OSM    H7G13383   5.514   4.213   6.862 -1.9611 -0.4969  0.4112
  125OSM    C8F13384   5.333   4.322   6.832  0.0875  0.3185  0.7057
  125OSM    H8F13385   5.293   4.236   6.775  1.3837 -0.4783  0.9664
  125OSM    H8G13386   5.301   4.418   6.786 -0.9311 -0.1426  0.4421
  125OSM    C9F13387   5.300   4.306   6.980 -0.2577 -0.3547  0.1826
  125OSM    H9F13388   5.387   4.313   7.046  0.3334  0.2703 -0.6545
  125OSM   C10F13389   5.175   4.299   7.029 -0.6380 -0.4529  0.1357
  125OSM   H10F13390   5.158   4.272   7.134  0.0155  2.6091  1.0941
  125OSM   C11F13391   5.049   4.300   6.947  0.5396 -0.4627 -0.0298
  125OSM   H11F13392   4.995   4.203   6.956 -1.0084  0.2717 -1.3610
  125OSM   H11G13393   5.065   4.323   6.840 -2.2642 -1.3964 -0.6990
  125OSM   C12F13394   4.941   4.402   7.017  0.0089  0.9208 -0.0444
  125OSM   H12F13395   4.860   4.415   6.942 -1.1870  1.9565  1.3872
  125OSM   H12G13396   4.977   4.507   7.026 -0.2337  1.0734 -0.8229
  125OSM   C13F13397   4.894   4.345   7.158 -0.1693  0.2719 -0.3251
  125OSM   H13F13398   4.981   4.317   7.222 -0.0854  2.1294  0.4052
  125OSM   H13G13399   4.841   4.253   7.125  0.8200 -0.3618 -0.1847
  125OSM   C14F13400   4.784   4.427   7.231 -0.0510  0.0086 -0.4792
  125OSM   H14F13401   4.738   4.359   7.306  1.4919 -0.2668  0.2342
  125OSM   H14G13402   4.707   4.459   7.157 -2.1114  1.0227  2.0447
  125OSM   C15F13403   4.857   4.536   7.303 -0.9385 -0.2687 -0.4467
  125OSM   H15F13404   4.784   4.618   7.319 -1.2291 -0.5019 -0.5741
  125OSM   H15G13405   4.950   4.571   7.254 -0.2738 -0.5799  0.5828
  125OSM   C16F13406   4.915   4.491   7.442 -0.3209  0.2773  0.2456
  125OSM   H16F13407   4.921   4.381   7.437 -0.9020  0.2207  0.7044
  125OSM   H16G13408   4.827   4.514   7.505 -0.6822  1.3954 -0.6472
  125OSM   C17F13409   5.041   4.566   7.477  0.3695 -0.9093 -0.7953
  125OSM   H17F13410   5.061   4.570   7.586 -2.9073 -3.4728 -0.0070
  125OSM   H17G13411   5.036   4.670   7.438  0.0417 -0.8387 -0.5740
  125OSM   C18F13412   5.173   4.503   7.421  0.9209 -0.5495 -0.2660
  125OSM   H18F13413   5.260   4.569   7.437  0.0893  0.5432 -0.2366
  125OSM   H18G13414   5.160   4.489   7.312 -0.3926  3.3358 -0.6772
  125OSM   H18H13415   5.192   4.399   7.457 -0.3627 -0.0513  1.9460
  126OSM      N13416   2.408   3.302   5.500 -0.1550  0.3262 -0.7639
  126OSM    C1513417   2.405   3.455   5.501  0.0939  0.1294 -0.3585
  126OSM   H15A13418   2.421   3.492   5.401 -0.6840  1.2773 -0.0656
  126OSM   H15B13419   2.473   3.507   5.566  1.4775 -1.9618 -0.0930
  126OSM   H15C13420   2.303   3.479   5.528  0.4914  0.3822  0.9029
  126OSM    C1413421   2.325   3.252   5.387  0.1699  0.8656  0.6370
  126OSM   H14A13422   2.379   3.257   5.294 -0.0944 -0.8069  0.3686
  126OSM   H14B13423   2.232   3.306   5.380 -0.6693 -0.4923  1.0876
  126OSM   H14C13424   2.294   3.148   5.398 -0.9768  1.0308 -0.8686
  126OSM    C1313425   2.554   3.268   5.474 -0.6355 -0.3426 -0.7273
  126OSM   H13A13426   2.570   3.161   5.477  0.3463 -0.1687  1.1128
  126OSM   H13B13427   2.611   3.315   5.553 -3.1289 -0.2517  1.0860
  126OSM   H13C13428   2.591   3.315   5.384  0.3402 -1.4373 -0.9094
  126OSM    C1213429   2.366   3.248   5.635  0.4983 -0.5498 -0.6403
  126OSM   H12A13430   2.426   3.283   5.718 -1.8294  2.7436 -0.2548
  126OSM   H12B13431   2.371   3.140   5.627  0.6852 -0.3929 -2.6718
  126OSM    C1113432   2.225   3.279   5.685 -0.5126  0.2662 -0.2119
  126OSM   H11A13433   2.212   3.389   5.690 -0.0348  0.3052  0.1155
  126OSM   H11B13434   2.204   3.243   5.788  3.0289  0.8003  0.7404
  126OSM      P13435   1.971   3.268   5.586  0.6832  0.2332  0.2240
  126OSM    O1313436   1.964   3.412   5.552 -0.3310 -0.0444  0.1007
  126OSM    O1413437   1.889   3.173   5.501 -0.2165 -0.2464  0.0494
  126OSM    O1113438   1.905   3.257   5.727  0.2694  0.1344 -0.0277
  126OSM    O1213439   2.121   3.228   5.602  0.0293 -0.6795  0.1765
  126OSM    C1S13440   1.914   3.133   5.803 -0.0817 -0.2683  0.4435
  126OSM    H1S13441   2.010   3.129   5.858  0.2131  0.1469 -0.0341
  126OSM    H1T13442   1.914   3.046   5.734  0.8895  0.0574  0.0193
  126OSM     NF13443   1.843   3.032   6.022  0.4141  0.5051  0.3757
  126OSM    HNF13444   1.779   2.956   6.024 -0.2565  0.9858 -1.4047
  126OSM    C2S13445   1.815   3.136   5.917 -0.0480  0.2209  0.1888
  126OSM    H2S13446   1.828   3.232   5.972  0.0989  0.2897  0.0331
  126OSM    C3S13447   1.661   3.129   5.863  0.7338 -0.2992  0.3838
  126OSM    H3S13448   1.653   3.028   5.818  0.8147 -1.1761  2.3161
  126OSM     O313449   1.633   3.233   5.768 -0.3418 -0.1607 -0.1564
  126OSM    HO313450   1.722   3.260   5.742 -0.4918  1.3867  0.8606
  126OSM    C4S13451   1.562   3.152   5.973  0.8805  0.1698  0.1135
  126OSM    H4S13452   1.562   3.256   6.008 -0.6433  0.7025 -1.3950
  126OSM    C5S13453   1.480   3.063   6.028 -0.5184  0.0930 -0.2082
  126OSM    H5S13454   1.501   2.959   6.000  0.2695 -0.2230  1.4716
  126OSM    C6S13455   1.373   3.077   6.132 -0.7327  0.2820  0.3566
  126OSM    H6S13456   1.290   3.006   6.113  1.1961 -1.6742 -0.9784
  126OSM    H6T13457   1.344   3.184   6.123  1.6522  0.9483  0.2865
  126OSM    C7S13458   1.440   3.058   6.268  0.1679 -0.0978 -0.1752
  126OSM    H7S13459   1.357   3.060   6.341 -1.0838  3.2630 -1.5478
  126OSM    H7T13460   1.507   3.145   6.285 -0.0873 -0.0043  0.3520
  126OSM    C8S13461   1.529   2.929   6.289 -0.0635 -0.0004 -0.1613
  126OSM    H8S13462   1.621   2.924   6.226  0.3658 -0.8017  0.5169
  126OSM    H8T13463   1.454   2.850   6.266  0.5461 -1.2761  2.0399
  126OSM    C9S13464   1.589   2.926   6.430  0.0380  0.2765  0.3755
  126OSM    H9S13465   1.625   3.030   6.439 -1.2342  0.7280  0.4597
  126OSM    H9T13466   1.676   2.857   6.428 -0.2874 -0.1353  0.0709
  126OSM   C10S13467   1.498   2.889   6.537  1.3596  0.1505  0.6299
  126OSM   H10S13468   1.447   2.793   6.511  1.3388 -0.3169  2.3095
  126OSM   H10T13469   1.411   2.955   6.557  1.9686  0.6644  1.6187
  126OSM   C11S13470   1.572   2.871   6.663 -0.5071  0.6961 -1.0043
  126OSM   H11S13471   1.618   2.969   6.688  0.2568  1.0993 -3.7591
  126OSM   H11T13472   1.648   2.791   6.662 -2.9240 -1.6755 -1.1462
  126OSM   C12S13473   1.477   2.833   6.778 -0.1692  0.1949  0.6158
  126OSM   H12S13474   1.447   2.726   6.773 -2.1255  0.7780 -1.1048
  126OSM   H12T13475   1.394   2.902   6.752  0.4579  0.4838 -0.6326
  126OSM   C13S13476   1.537   2.854   6.914 -0.1842 -0.4844  0.5972
  126OSM   H13S13477   1.565   2.961   6.922  1.2202 -0.7340 -0.7705
  126OSM   H13T13478   1.631   2.796   6.920  0.1625  0.1424  1.3509
  126OSM   C14S13479   1.438   2.818   7.024 -1.0488  0.6449 -0.5858
  126OSM   H14S13480   1.493   2.825   7.120  0.0442 -0.5759 -1.0989
  126OSM   H14T13481   1.415   2.709   7.025  1.2297  0.1480 -1.0638
  126OSM   C15S13482   1.310   2.900   7.033 -0.1454 -0.1022 -0.0282
  126OSM   H15S13483   1.246   2.875   6.945  1.5102 -0.5239 -1.1414
  126OSM   H15T13484   1.337   3.008   7.022  2.2281 -0.5452  1.1951
  126OSM   C16S13485   1.239   2.877   7.167 -0.1062  0.3677  0.1910
  126OSM   H16S13486   1.243   2.767   7.180 -0.9253  0.1445 -1.2905
  126OSM   H16T13487   1.135   2.918   7.166  0.0196  0.6835 -0.9193
  126OSM   C17S13488   1.291   2.935   7.298 -0.2393 -0.1785 -0.0444
  126OSM   H17S13489   1.281   3.045   7.299  1.3006 -0.0138 -0.5429
  126OSM   H17T13490   1.399   2.915   7.318  0.1386  1.0719 -0.7760
  126OSM   C18S13491   1.218   2.900   7.431  0.4229  0.1268  0.0816
  126OSM   H18S13492   1.282   2.942   7.512 -1.0032  1.0433  0.7564
  126OSM   H18T13493   1.189   2.794   7.448 -2.9720  1.1842  1.2380
  126OSM   H18U13494   1.130   2.966   7.444  1.3952  1.1604  1.5973
  126OSM    C1F13495   1.948   3.050   6.102 -0.5279  1.1385 -0.6801
  126OSM     OF13496   2.018   3.151   6.104  0.0366 -0.7098  0.1091
  126OSM    C2F13497   1.988   2.927   6.186 -0.1879  0.1016 -0.1776
  126OSM    H2F13498   2.095   2.906   6.163  0.0690  1.9669 -0.7460
  126OSM    H2G13499   1.934   2.837   6.148 -0.2869  0.0151  0.1702
  126OSM    C3F13500   1.970   2.954   6.342 -0.2522 -0.4959  0.1118
  126OSM    H3F13501   1.860   2.963   6.356  0.1419  0.9746  2.6547
  126OSM    H3G13502   2.012   3.056   6.355 -0.0160 -0.3130 -1.9520
  126OSM    C4F13503   2.035   2.840   6.424 -0.8979  1.0252  0.2133
  126OSM    H4F13504   2.143   2.841   6.397 -0.7630 -3.0883  0.1982
  126OSM    H4G13505   1.992   2.745   6.383  1.8705 -0.9812  1.7682
  126OSM    C5F13506   2.029   2.857   6.579 -0.3089  0.1056  0.3075
  126OSM    H5F13507   1.922   2.833   6.600 -0.4807 -1.2291 -1.8763
  126OSM    H5G13508   2.051   2.964   6.597  1.2242 -0.1934  0.3040
  126OSM    C6F13509   2.123   2.755   6.655  0.2353  0.6373  0.1146
  126OSM    H6F13510   2.225   2.770   6.616 -0.2172  2.4407 -0.4321
  126OSM    H6G13511   2.087   2.652   6.633 -2.4047  1.3508  0.9520
  126OSM    C7F13512   2.119   2.773   6.808 -1.1744  0.1688 -0.0995
  126OSM    H7F13513   2.014   2.745   6.831 -0.4103 -2.4294  0.3294
  126OSM    H7G13514   2.143   2.878   6.838  0.3069 -0.1550 -0.1334
  126OSM    C8F13515   2.210   2.681   6.893 -0.8077 -0.4923  0.4913
  126OSM    H8F13516   2.215   2.577   6.854 -1.5853 -0.2199 -0.3564
  126OSM    H8G13517   2.176   2.668   6.997  0.4017 -1.7935  0.7446
  126OSM    C9F13518   2.350   2.743   6.886 -0.1447  0.5634  0.5820
  126OSM    H9F13519   2.380   2.794   6.794 -0.9706 -0.7285 -0.4133
  126OSM   C10F13520   2.450   2.744   6.973  0.5474 -0.3509 -0.1582
  126OSM   H10F13521   2.536   2.804   6.941 -0.8677  0.6730 -2.0943
  126OSM   C11F13522   2.458   2.679   7.105 -0.0395  0.0781 -0.2287
  126OSM   H11F13523   2.522   2.588   7.104  1.7725  1.2707  1.8465
  126OSM   H11G13524   2.356   2.640   7.123  0.0939 -0.0338  0.2872
  126OSM   C12F13525   2.483   2.765   7.229 -0.1662  0.5181  0.2252
  126OSM   H12F13526   2.427   2.720   7.314  0.7405  1.6528  1.4386
  126OSM   H12G13527   2.437   2.863   7.205 -1.1223  0.4168  1.5457
  126OSM   C13F13528   2.632   2.780   7.259  0.5216 -0.6049 -0.4106
  126OSM   H13F13529   2.687   2.791   7.164 -1.6590 -0.1282 -1.6585
  126OSM   H13G13530   2.669   2.683   7.298  0.8430 -0.8633 -1.3423
  126OSM   C14F13531   2.655   2.911   7.345 -0.5585 -0.2649  0.8795
  126OSM   H14F13532   2.620   3.005   7.298 -0.1428 -1.1101 -1.1579
  126OSM   H14G13533   2.765   2.926   7.349 -0.2589 -1.1964 -2.6089
  126OSM   C15F13534   2.593   2.906   7.484  0.6677  0.5504 -0.5555
  126OSM   H15F13535   2.625   2.810   7.530  0.8015 -0.1948 -2.1529
  126OSM   H15G13536   2.483   2.914   7.470  0.6502 -1.2254 -1.5809
  126OSM   C16F13537   2.630   3.027   7.566 -0.1413 -0.4124 -0.4278
  126OSM   H16F13538   2.739   3.045   7.558 -0.2486 -0.2910 -1.8386
  126OSM   H16G13539   2.620   3.011   7.675 -0.0098  0.0347 -0.3536
  126OSM   C17F13540   2.551   3.150   7.523 -0.1281 -0.4084 -0.0264
  126OSM   H17F13541   2.505   3.145   7.422  1.9757 -2.8548 -0.9115
  126OSM   H17G13542   2.629   3.229   7.515 -1.9292  1.3400 -0.5856
  126OSM   C18F13543   2.436   3.193   7.615 -0.1038 -0.8433 -0.7704
  126OSM   H18F13544   2.339   3.147   7.588 -0.9326 -0.0776  0.8882
  126OSM   H18G13545   2.416   3.303   7.622 -0.7999 -0.9954 -0.3485
  126OSM   H18H13546   2.455   3.163   7.720  0.8146 -0.5763 -0.8495
  127OSM      N13547   3.865   1.549   5.739 -0.0939 -0.2591 -0.0708
  127OSM    C1513548   3.813   1.490   5.869  0.4000 -0.4762 -0.2085
  127OSM   H15A13549   3.827   1.548   5.959 -1.3517 -0.1661 -0.1214
  127OSM   H15B13550   3.843   1.388   5.890 -1.2483 -1.0170 -0.4371
  127OSM   H15C13551   3.705   1.495   5.864  0.4143 -1.8791 -2.3600
  127OSM    C1413552   3.834   1.450   5.633 -0.8929  0.5718 -0.0823
  127OSM   H14A13553   3.905   1.454   5.552  0.7303 -0.4734  1.2555
  127OSM   H14B13554   3.726   1.444   5.623 -1.2292  2.0090  2.3189
  127OSM   H14C13555   3.859   1.352   5.671  0.4229  0.8233 -0.2822
  127OSM    C1313556   3.794   1.671   5.718  0.5780 -0.0754 -0.8949
  127OSM   H13A13557   3.795   1.742   5.799 -1.6121  1.0930 -1.8322
  127OSM   H13B13558   3.691   1.647   5.695 -0.2323  2.0737  0.3973
  127OSM   H13C13559   3.837   1.728   5.636 -0.6005 -0.8584 -2.0924
  127OSM    C1213560   4.013   1.570   5.754  0.4356 -0.0632 -0.3829
  127OSM   H12A13561   4.059   1.474   5.771  0.1525 -0.4685 -1.8027
  127OSM   H12B13562   4.026   1.638   5.836 -0.0769 -2.5671  1.8496
  127OSM    C1113563   4.089   1.633   5.638  0.7690  0.7688 -0.2017
  127OSM   H11A13564   4.063   1.590   5.540 -2.0603  2.0628 -0.0592
  127OSM   H11B13565   4.199   1.618   5.651  1.4170  2.4065 -3.3327
  127OSM      P13566   4.121   1.881   5.703 -0.1920  0.4107  0.2958
  127OSM    O1313567   4.243   1.921   5.628 -1.0285 -0.0443 -0.2002
  127OSM    O1413568   4.017   1.982   5.731  0.1331 -0.5049 -0.0322
  127OSM    O1113569   4.166   1.801   5.841  0.0447  0.0986 -0.0683
  127OSM    O1213570   4.054   1.771   5.624  0.9184 -0.0796 -0.5668
  127OSM    C1S13571   4.110   1.837   5.967  0.0415 -0.4131 -0.8904
  127OSM    H1S13572   4.001   1.818   5.973  0.0385  0.1770  1.3254
  127OSM    H1T13573   4.131   1.942   5.997 -1.1380 -0.6988  1.0374
  127OSM     NF13574   4.071   1.744   6.192 -0.5004  0.5131 -0.3404
  127OSM    HNF13575   4.092   1.811   6.262 -0.0973  1.0116 -0.9265
  127OSM    C2S13576   4.165   1.743   6.080  0.0359  0.4358 -0.1340
  127OSM    H2S13577   4.162   1.639   6.041  1.5878  0.4684 -0.3636
  127OSM    C3S13578   4.312   1.779   6.114  0.2199 -0.1352 -0.3971
  127OSM    H3S13579   4.320   1.879   6.161 -1.5551 -0.9558  1.7355
  127OSM     O313580   4.391   1.792   5.999 -0.2638 -0.0937 -0.1421
  127OSM    HO313581   4.335   1.786   5.921 -3.4563  0.6163  1.9882
  127OSM    C4S13582   4.372   1.679   6.206 -0.4109  0.0459 -0.3006
  127OSM    H4S13583   4.391   1.581   6.159  0.4124  0.0798 -0.0392
  127OSM    C5S13584   4.408   1.709   6.329 -0.5997  0.2201  0.0883
  127OSM    H5S13585   4.402   1.815   6.355 -1.6692 -0.1452  1.4152
  127OSM    C6S13586   4.471   1.622   6.434 -0.2186  0.1835  0.5927
  127OSM    H6S13587   4.579   1.634   6.455  0.0709 -1.0377 -0.1810
  127OSM    H6T13588   4.469   1.514   6.405 -1.7506  0.6769 -1.2495
  127OSM    C7S13589   4.396   1.667   6.566  0.2084 -0.7548 -0.1874
  127OSM    H7S13590   4.288   1.646   6.554 -0.6034  3.3991 -0.8780
  127OSM    H7T13591   4.411   1.776   6.580 -1.3514 -0.7983  2.0747
  127OSM    C8S13592   4.446   1.608   6.695 -0.5761 -0.0172  0.7828
  127OSM    H8S13593   4.393   1.655   6.781 -0.4562 -0.8884  1.3356
  127OSM    H8T13594   4.555   1.630   6.699 -0.7357  0.6584  1.6317
  127OSM    C9S13595   4.439   1.457   6.710 -0.1181  0.1294 -0.4915
  127OSM    H9S13596   4.505   1.404   6.638 -1.0927 -2.5686  0.5189
  127OSM    H9T13597   4.340   1.412   6.688 -0.1649  0.6503 -1.3306
  127OSM   C10S13598   4.492   1.402   6.842  0.3375 -0.3011  0.1081
  127OSM   H10S13599   4.578   1.466   6.871 -1.1914  1.6390  0.4449
  127OSM   H10T13600   4.528   1.299   6.819  1.7399 -0.0055  0.9223
  127OSM   C11S13601   4.389   1.383   6.953 -0.2007  0.6256  0.1766
  127OSM   H11S13602   4.340   1.482   6.966  1.4049  1.4827 -0.1293
  127OSM   H11T13603   4.434   1.358   7.052 -1.6392  1.8414  1.1549
  127OSM   C12S13604   4.294   1.269   6.924 -0.2387 -0.0854  0.1208
  127OSM   H12S13605   4.353   1.176   6.908 -1.2232 -0.7854  0.5302
  127OSM   H12T13606   4.233   1.292   6.834 -0.3414  0.8886  0.4401
  127OSM   C13S13607   4.202   1.233   7.044 -0.6143 -0.0140  0.9003
  127OSM   H13S13608   4.193   1.329   7.099  1.7104  2.3397 -2.6033
  127OSM   H13T13609   4.266   1.178   7.116 -0.2591 -1.6360 -0.6038
  127OSM   C14S13610   4.062   1.179   7.005  0.1738 -0.4862  0.2208
  127OSM   H14S13611   4.020   1.159   7.105 -2.7163  0.9358 -0.6755
  127OSM   H14T13612   4.079   1.081   6.955 -0.3782  0.6718 -2.2996
  127OSM   C15S13613   3.961   1.276   6.933 -0.2841 -0.6784  0.0251
  127OSM   H15S13614   4.004   1.290   6.831 -0.4247 -1.3518 -0.1263
  127OSM   H15T13615   3.967   1.373   6.987 -1.5016  0.5100 -1.9153
  127OSM   C16S13616   3.817   1.222   6.945 -0.0288  0.3874  0.5687
  127OSM   H16S13617   3.781   1.211   7.049 -1.7195  1.1641  0.0819
  127OSM   H16T13618   3.809   1.121   6.898 -1.1026  0.4071  0.6868
  127OSM   C17S13619   3.725   1.323   6.873  0.1249  0.2018  1.0544
  127OSM   H17S13620   3.761   1.340   6.769 -1.3016 -2.5168  0.0634
  127OSM   H17T13621   3.739   1.420   6.924 -0.1930 -0.2350  1.9758
  127OSM   C18S13622   3.583   1.284   6.875  0.2284  0.2815 -0.3667
  127OSM   H18S13623   3.540   1.285   6.978  0.0134  0.9172 -0.4586
  127OSM   H18T13624   3.568   1.182   6.835  1.4549 -0.5045  1.1022
  127OSM   H18U13625   3.520   1.353   6.814  2.8837  1.3231 -2.0204
  127OSM    C1F13626   3.959   1.680   6.188 -0.5700 -0.0119  0.9329
  127OSM     OF13627   3.929   1.603   6.102 -0.3221 -0.6477 -0.5547
  127OSM    C2F13628   3.862   1.699   6.299 -0.3038 -0.2701 -0.6075
  127OSM    H2F13629   3.837   1.594   6.324  0.2097 -0.7566 -2.0921
  127OSM    H2G13630   3.770   1.749   6.260 -0.2911 -0.7766 -1.2876
  127OSM    C3F13631   3.928   1.772   6.422 -0.2940 -0.1256  0.4644
  127OSM    H3F13632   3.954   1.873   6.384 -0.7568  0.4913  1.7504
  127OSM    H3G13633   4.019   1.727   6.469  0.6966  0.1296 -1.1951
  127OSM    C4F13634   3.822   1.795   6.535 -1.0989  0.3883 -0.1115
  127OSM    H4F13635   3.796   1.710   6.603 -0.3325 -1.0198 -1.5624
  127OSM    H4G13636   3.739   1.815   6.464 -0.3606  2.2543 -0.4728
  127OSM    C5F13637   3.847   1.922   6.620  0.2056 -0.4473  0.7012
  127OSM    H5F13638   3.751   1.943   6.673 -0.9401 -1.5452 -0.8874
  127OSM    H5G13639   3.864   2.011   6.556 -1.3893 -1.5889 -1.3573
  127OSM    C6F13640   3.966   1.910   6.719  0.0037  0.6668  0.0452
  127OSM    H6F13641   3.957   1.998   6.787  1.5385  1.1795 -0.4016
  127OSM    H6G13642   4.067   1.916   6.675  0.9613  2.9393  2.3745
  127OSM    C7F13643   3.977   1.775   6.801  0.5491 -0.0705 -0.5921
  127OSM    H7F13644   4.029   1.691   6.750 -1.2583 -0.9261 -1.0717
  127OSM    H7G13645   3.870   1.745   6.798  0.3585  0.6739 -2.1925
  127OSM    C8F13646   4.015   1.790   6.949 -0.5493 -0.0578 -0.4254
  127OSM    H8F13647   3.977   1.700   7.003  0.4777 -0.4451 -0.3487
  127OSM    H8G13648   3.980   1.885   6.995  1.4493  0.7825 -0.6093
  127OSM    C9F13649   4.166   1.787   6.976 -0.5475 -0.1283 -0.6745
  127OSM    H9F13650   4.219   1.849   6.902 -0.6021 -0.2728 -0.8335
  127OSM   C10F13651   4.231   1.728   7.073 -0.8052  0.5095  0.0014
  127OSM   H10F13652   4.337   1.756   7.079 -1.1941  2.1108 -0.3963
  127OSM   C11F13653   4.174   1.643   7.188  0.1844  0.2376 -0.2076
  127OSM   H11F13654   4.223   1.544   7.194  0.1560  0.3403  2.0545
  127OSM   H11G13655   4.064   1.628   7.174  0.1472 -3.1537  3.1617
  127OSM   C12F13656   4.191   1.718   7.319  0.0077  0.2242  0.0834
  127OSM   H12F13657   4.148   1.820   7.309  1.6754  1.0266  0.8645
  127OSM   H12G13658   4.298   1.743   7.338  0.2281  1.7946 -3.0017
  127OSM   C13F13659   4.138   1.632   7.437 -0.0894  0.3361  0.4101
  127OSM   H13F13660   4.191   1.534   7.440  0.3212  0.4635 -2.0266
  127OSM   H13G13661   4.036   1.610   7.397 -0.1640 -0.3476  0.9648
  127OSM   C14F13662   4.133   1.696   7.576  0.3266  0.2139 -0.1063
  127OSM   H14F13663   4.064   1.783   7.576 -1.8394 -1.3826  3.6042
  127OSM   H14G13664   4.234   1.723   7.615  0.7124  0.5964 -1.3601
  127OSM   C15F13665   4.078   1.599   7.678  0.2898 -0.0980 -0.2039
  127OSM   H15F13666   4.147   1.512   7.666 -0.0270 -0.1921 -1.3895
  127OSM   H15G13667   3.975   1.567   7.655  0.2632 -0.9331  0.9857
  127OSM   C16F13668   4.087   1.646   7.828  0.8951  0.2738 -0.0749
  127OSM   H16F13669   4.003   1.711   7.858  0.5304  0.8075 -2.1835
  127OSM   H16G13670   4.171   1.716   7.848 -0.2305  1.0814  1.9366
  127OSM   C17F13671   4.100   1.535   7.933  0.6081  0.3507 -0.2319
  127OSM   H17F13672   4.102   1.586   8.032  0.9570  0.2052 -0.1631
  127OSM   H17G13673   4.195   1.480   7.914 -0.0434  0.0685 -2.7712
  127OSM   C18F13674   3.985   1.439   7.919 -0.0974  0.5414 -0.1276
  127OSM   H18F13675   4.005   1.358   7.846 -0.0348  2.3262 -2.1402
  127OSM   H18G13676   3.893   1.497   7.897  0.8397  1.5286 -1.5279
  127OSM   H18H13677   3.972   1.375   8.008 -4.3395 -1.9352 -2.3690
  128OSM      N13678   4.518   5.370   5.747  0.2747 -0.3162  0.3308
  128OSM    C1513679   4.601   5.439   5.640  0.1094  0.1181 -0.0953
  128OSM   H15A13680   4.704   5.429   5.672 -0.6284 -1.9058  1.8307
  128OSM   H15B13681   4.583   5.545   5.640  0.7409  0.2310 -0.0480
  128OSM   H15C13682   4.592   5.400   5.540  0.5508  0.8618 -0.4226
  128OSM    C1413683   4.519   5.442   5.880  0.4287  0.0618 -0.2302
  128OSM   H14A13684   4.441   5.408   5.948 -0.2941 -0.6803 -1.4078
  128OSM   H14B13685   4.530   5.548   5.865 -0.0054 -0.1731 -2.2870
  128OSM   H14C13686   4.610   5.411   5.929  0.6142 -0.3369 -0.8191
  128OSM    C1313687   4.378   5.380   5.691 -0.5462  0.5820  1.1362
  128OSM   H13A13688   4.301   5.333   5.749 -1.7430  1.1513  0.0469
  128OSM   H13B13689   4.378   5.327   5.597 -0.9420  0.8513  0.9842
  128OSM   H13C13690   4.345   5.481   5.668 -0.9821  0.4102  1.0116
  128OSM    C1213691   4.546   5.219   5.752  0.1358 -0.0454 -0.1403
  128OSM   H12A13692   4.525   5.170   5.658 -0.6408 -1.2836  0.6579
  128OSM   H12B13693   4.478   5.182   5.827  0.3542  2.1769  1.1953
  128OSM    C1113694   4.701   5.177   5.775 -0.2385 -0.0707  0.2597
  128OSM   H11A13695   4.755   5.202   5.682  1.8040 -0.0714  1.4126
  128OSM   H11B13696   4.693   5.066   5.767  1.9051 -0.1376 -1.4088
  128OSM      P13697   4.892   5.311   5.868 -0.0949  0.0981 -0.3819
  128OSM    O1313698   5.000   5.222   5.821  0.2465 -0.5999  0.1105
  128OSM    O1413699   4.864   5.432   5.781 -0.3402  0.1690 -0.2384
  128OSM    O1113700   4.940   5.356   6.011 -0.3053  0.1090 -1.1795
  128OSM    O1213701   4.763   5.221   5.894 -0.7586 -0.2953  0.4546
  128OSM    C1S13702   4.862   5.355   6.125 -0.4947  0.2079 -0.1833
  128OSM    H1S13703   4.848   5.251   6.160 -0.0208 -0.0660 -0.8021
  128OSM    H1T13704   4.772   5.418   6.108 -1.6794 -1.4633 -0.2265
  128OSM     NF13705   4.833   5.425   6.361 -0.2063  0.3921 -0.1488
  128OSM    HNF13706   4.781   5.504   6.393 -0.9664 -0.9698  2.0957
  128OSM    C2S13707   4.919   5.443   6.244 -0.0590 -0.9337  0.1321
  128OSM    H2S13708   5.024   5.409   6.257  0.3545  0.5512  0.7401
  128OSM    C3S13709   4.921   5.599   6.202 -0.6888 -0.2287  1.0059
  128OSM    H3S13710   4.822   5.639   6.172 -0.6527 -1.4930 -0.9003
  128OSM     O313711   4.998   5.619   6.081 -0.3380 -0.1408  0.9186
  128OSM    HO313712   5.033   5.532   6.062  2.0735  1.2864 -1.5468
  128OSM    C4S13713   4.975   5.689   6.311  0.5565  0.0861 -0.5501
  128OSM    H4S13714   5.047   5.650   6.384  2.1355  2.4746 -0.7722
  128OSM    C5S13715   4.952   5.819   6.326 -0.1220  0.0435 -0.3149
  128OSM    H5S13716   4.890   5.871   6.251 -2.4424 -2.7531 -0.4156
  128OSM    C6S13717   5.010   5.905   6.435  0.1802  0.2581  0.2604
  128OSM    H6S13718   4.932   5.965   6.487  0.7685  2.3466 -1.2261
  128OSM    H6T13719   5.077   5.969   6.375 -1.7683  0.5748 -1.6676
  128OSM    C7S13720   5.087   5.836   6.547  0.6616 -0.0652  1.1042
  128OSM    H7S13721   5.139   5.913   6.608  0.5188 -1.2283  2.6888
  128OSM    H7T13722   5.169   5.770   6.513  0.2068  0.1808 -0.5363
  128OSM    C8S13723   4.982   5.769   6.644 -0.4248  0.4675  0.0153
  128OSM    H8S13724   4.927   5.701   6.577  0.5824  2.4736 -2.9234
  128OSM    H8T13725   4.919   5.847   6.691  1.1561  1.1491  1.0570
  128OSM    C9S13726   5.043   5.692   6.755  0.0767  0.5397 -0.7788
  128OSM    H9S13727   5.111   5.758   6.813  0.0997 -1.5717  1.6729
  128OSM    H9T13728   5.119   5.631   6.700 -0.6558  2.2368 -3.8129
  128OSM   C10S13729   4.948   5.597   6.827  0.2665 -0.5532 -0.3145
  128OSM   H10S13730   4.874   5.562   6.752 -1.9838  3.2058  0.0540
  128OSM   H10T13731   4.887   5.648   6.904  0.8353  2.0370 -1.5272
  128OSM   C11S13732   5.022   5.479   6.899 -0.0269 -0.1795  0.0075
  128OSM   H11S13733   5.133   5.488   6.893  0.0350  0.6032  1.9950
  128OSM   H11T13734   4.989   5.379   6.861 -0.3682 -0.2122  0.3907
  128OSM   C12S13735   4.993   5.498   7.051 -0.1524 -0.2043  0.2260
  128OSM   H12S13736   4.948   5.596   7.079  2.9162  1.5268 -0.5889
  128OSM   H12T13737   5.094   5.487   7.098 -0.1199 -0.1858  0.1591
  128OSM   C13S13738   4.912   5.381   7.108 -0.1545 -0.2506 -0.0218
  128OSM   H13S13739   4.978   5.292   7.097  2.2519  1.2199  1.9720
  128OSM   H13T13740   4.826   5.361   7.041  1.0891 -1.4306 -1.2955
  128OSM   C14S13741   4.854   5.415   7.244 -0.7085  0.5267  0.4686
  128OSM   H14S13742   4.834   5.523   7.253 -1.3894  0.5088 -0.6865
  128OSM   H14T13743   4.933   5.382   7.315 -1.2655 -0.4248  0.6561
  128OSM   C15S13744   4.742   5.329   7.291  1.1497  0.3845 -0.0648
  128OSM   H15S13745   4.762   5.220   7.279  1.0785  0.6072 -2.4258
  128OSM   H15T13746   4.654   5.363   7.232  1.4217  1.7032  0.2764
  128OSM   C16S13747   4.714   5.342   7.446  0.5854  0.2135 -0.5306
  128OSM   H16S13748   4.692   5.449   7.468  1.2744 -0.1108  1.9448
  128OSM   H16T13749   4.806   5.319   7.503  1.1016  0.7226 -1.1547
  128OSM   C17S13750   4.607   5.244   7.489 -0.1459 -0.2673  0.4893
  128OSM   H17S13751   4.644   5.142   7.466 -0.3806 -0.2530  0.0554
  128OSM   H17T13752   4.518   5.263   7.425  1.9619  2.0642 -1.8110
  128OSM   C18S13753   4.574   5.252   7.637  0.4442  0.1130 -0.5216
  128OSM   H18S13754   4.476   5.206   7.662 -0.2406  0.3676 -2.5993
  128OSM   H18T13755   4.585   5.359   7.664  2.6545 -0.6901  1.9003
  128OSM   H18U13756   4.652   5.195   7.693  0.8715  0.0042 -1.2195
  128OSM    C1F13757   4.830   5.306   6.427 -0.5365 -0.3690 -0.7387
  128OSM     OF13758   4.910   5.221   6.399  0.9202  0.3689  0.6050
  128OSM    C2F13759   4.738   5.281   6.543  0.2760  0.1185  0.2194
  128OSM    H2F13760   4.788   5.334   6.627 -1.4683  0.2496  1.2046
  128OSM    H2G13761   4.731   5.171   6.558  0.6919  0.0442 -0.1454
  128OSM    C3F13762   4.591   5.336   6.537  0.8441  0.1461 -0.2042
  128OSM    H3F13763   4.541   5.293   6.448  1.1240  0.9256 -0.7453
  128OSM    H3G13764   4.586   5.447   6.541  0.1534  0.1353 -0.6685
  128OSM    C4F13765   4.505   5.313   6.665  0.2564  0.5364 -0.9193
  128OSM    H4F13766   4.404   5.354   6.639  0.9467  3.5981  0.9991
  128OSM    H4G13767   4.557   5.369   6.745 -0.8040 -0.4049  0.4557
  128OSM    C5F13768   4.487   5.160   6.704 -0.0341 -0.0058 -0.1698
  128OSM    H5F13769   4.584   5.104   6.703  0.6340  1.0353  2.0847
  128OSM    H5G13770   4.422   5.116   6.626 -1.8104  0.1898  1.1706
  128OSM    C6F13771   4.424   5.151   6.843 -0.1114 -0.5798 -0.2989
  128OSM    H6F13772   4.379   5.050   6.858 -2.0945 -0.0509 -2.3674
  128OSM    H6G13773   4.333   5.214   6.854 -0.0901 -0.6748  0.4822
  128OSM    C7F13774   4.515   5.170   6.961 -0.4565 -0.3307 -0.4698
  128OSM    H7F13775   4.556   5.273   6.958 -2.9811  0.6703 -1.3238
  128OSM    H7G13776   4.596   5.095   6.948  0.9179  0.6449  2.1670
  128OSM    C8F13777   4.446   5.148   7.090  0.4084 -0.1418 -0.0838
  128OSM    H8F13778   4.353   5.209   7.091 -0.3422 -1.2633  1.2362
  128OSM    H8G13779   4.526   5.199   7.148  1.5858 -0.5462 -1.3419
  128OSM    C9F13780   4.402   5.016   7.137  0.1279  0.2754  0.3396
  128OSM    H9F13781   4.481   4.938   7.137  0.5595  0.6954  1.2239
  128OSM   C10F13782   4.279   4.990   7.187 -0.1383 -0.1264  0.7689
  128OSM   H10F13783   4.251   4.889   7.222  0.2473  0.1169  1.7839
  128OSM   C11F13784   4.157   5.086   7.185 -0.8236 -0.5570  0.4637
  128OSM   H11F13785   4.070   5.048   7.127 -0.4356  1.2733 -1.3790
  128OSM   H11G13786   4.170   5.179   7.126 -2.1688  0.9649  2.4793
  128OSM   C12F13787   4.117   5.139   7.324 -0.5065 -0.4274  0.4029
  128OSM   H12F13788   4.047   5.225   7.316  1.2897  1.1071  0.8385
  128OSM   H12G13789   4.209   5.183   7.367 -0.6638  0.5554 -0.2501
  128OSM   C13F13790   4.062   5.025   7.411 -0.6140 -0.6316  0.6261
  128OSM   H13F13791   4.146   4.971   7.459  1.6880  1.5216 -0.8279
  128OSM   H13G13792   4.007   4.955   7.346 -1.4154  1.6688 -1.2625
  128OSM   C14F13793   3.972   5.085   7.523 -0.2758 -0.3226  0.4505
  128OSM   H14F13794   3.917   5.001   7.571  0.4001  0.3025  2.3597
  128OSM   H14G13795   3.892   5.156   7.494  0.2741 -0.6972 -2.0557
  128OSM   C15F13796   4.066   5.148   7.628  0.0865  0.2086 -0.5309
  128OSM   H15F13797   4.120   5.241   7.598 -2.2715  0.3667 -4.5402
  128OSM   H15G13798   4.143   5.077   7.664  0.0959 -0.5172 -1.9442
  128OSM   C16F13799   3.969   5.187   7.744 -0.5403 -0.1295  0.6104
  128OSM   H16F13800   3.909   5.098   7.768  0.0612 -0.7125 -0.0257
  128OSM   H16G13801   3.897   5.257   7.696 -0.4546  1.1064  2.2320
  128OSM   C17F13802   4.028   5.254   7.868 -0.4312 -0.1938  0.1529
  128OSM   H17F13803   4.097   5.337   7.844 -1.1689  0.2943 -0.3170
  128OSM   H17G13804   4.088   5.175   7.919  1.3681  0.0495 -1.5606
  128OSM   C18F13805   3.919   5.317   7.959  0.5206 -0.7420 -0.8460
  128OSM   H18F13806   3.970   5.389   8.026  1.1780  0.6286 -2.7713
  128OSM   H18G13807   3.858   5.241   8.013  0.9786 -0.1239  0.5686
  128OSM   H18H13808   3.851   5.373   7.891 -0.6374  1.0812  1.7154
  129OSM      N13809   2.550   1.953   5.830  0.5592  0.1378 -0.0235
  129OSM    C1513810   2.533   1.908   5.972 -0.2409 -0.6860 -0.0487
  129OSM   H15A13811   2.627   1.918   6.024  0.4979 -1.0224 -1.3119
  129OSM   H15B13812   2.501   1.804   5.973 -3.2285  0.1738  2.3174
  129OSM   H15C13813   2.457   1.961   6.027  0.9439  1.1233 -0.1049
  129OSM    C1413814   2.597   2.094   5.825  0.5292 -0.2384 -0.0367
  129OSM   H14A13815   2.649   2.121   5.735  2.0239  0.8733  1.1229
  129OSM   H14B13816   2.668   2.114   5.904 -0.0690 -0.5332  0.5921
  129OSM   H14C13817   2.510   2.158   5.837  1.0957  0.4974  0.1707
  129OSM    C1313818   2.672   1.877   5.775 -0.4474 -0.2422 -0.4681
  129OSM   H13A13819   2.668   1.891   5.668 -1.2814  0.3014 -0.3759
  129OSM   H13B13820   2.653   1.771   5.783  1.7303 -0.8671 -2.9358
  129OSM   H13C13821   2.763   1.908   5.823 -0.3270 -0.0644 -0.8104
  129OSM    C1213822   2.432   1.930   5.740  0.0639  0.0473 -0.6754
  129OSM   H12A13823   2.445   1.965   5.639  2.8328  1.0539 -0.0189
  129OSM   H12B13824   2.348   1.985   5.781  0.2297  0.4738 -0.9015
  129OSM    C1113825   2.398   1.786   5.729  0.4611 -0.1596 -1.1869
  129OSM   H11A13826   2.290   1.782   5.703 -0.5019  1.3331  2.3016
  129OSM   H11B13827   2.402   1.725   5.822 -1.5419  0.0777 -0.9309
  129OSM      P13828   2.458   1.575   5.584 -0.4132 -0.2339 -0.1316
  129OSM    O1313829   2.329   1.525   5.532  0.6153  0.2642 -0.7142
  129OSM    O1413830   2.579   1.544   5.502  0.5759 -0.4112 -0.6929
  129OSM    O1113831   2.475   1.502   5.726 -0.1608  0.5203 -0.7970
  129OSM    O1213832   2.463   1.730   5.619 -0.5818  0.1068  0.9371
  129OSM    C1S13833   2.593   1.526   5.801  0.1024 -0.8567 -0.2803
  129OSM    H1S13834   2.599   1.629   5.842  0.4050 -0.6344 -0.8879
  129OSM    H1T13835   2.685   1.508   5.740  1.4397  0.8527  1.1621
  129OSM     NF13836   2.697   1.454   6.023  0.0756  0.5265  0.2777
  129OSM    HNF13837   2.776   1.395   6.036  0.9776  1.8492  1.0085
  129OSM    C2S13838   2.605   1.415   5.916  0.0812  0.0507  0.2484
  129OSM    H2S13839   2.503   1.398   5.959  0.7347  2.2426  2.8463
  129OSM    C3S13840   2.638   1.278   5.845  0.8156  0.1995 -0.4313
  129OSM    H3S13841   2.744   1.280   5.813  0.6663  1.3536 -0.8754
  129OSM     O313842   2.558   1.243   5.736  0.7350 -0.9335 -0.7309
  129OSM    HO313843   2.524   1.331   5.717  2.1986  0.1801  1.6908
  129OSM    C4S13844   2.636   1.174   5.950 -0.3599  0.1761  0.0524
  129OSM    H4S13845   2.533   1.152   5.984  0.3867 -1.2324  1.4471
  129OSM    C5S13846   2.739   1.099   5.997  0.2975 -0.6478 -1.0004
  129OSM    H5S13847   2.834   1.110   5.942 -0.3490  3.1212 -1.5304
  129OSM    C6S13848   2.733   1.013   6.117  0.2764  0.2669 -0.1075
  129OSM    H6S13849   2.835   1.009   6.163 -0.0589 -0.5793  0.5668
  129OSM    H6T13850   2.695   0.910   6.102  0.4430  0.2504 -0.4308
  129OSM    C7S13851   2.634   1.061   6.226  0.6252  0.7169  0.6349
  129OSM    H7S13852   2.616   0.966   6.281  0.3007  0.8100  0.6924
  129OSM    H7T13853   2.538   1.077   6.173  0.7613 -0.1146  0.1238
  129OSM    C8S13854   2.687   1.173   6.319  0.0320 -0.7213 -0.0628
  129OSM    H8S13855   2.754   1.238   6.258 -0.3624  2.0823  2.3124
  129OSM    H8T13856   2.746   1.129   6.402  0.5495  2.3349  1.2872
  129OSM    C9S13857   2.579   1.256   6.389 -1.0451  0.1936  0.0129
  129OSM    H9S13858   2.494   1.190   6.415  0.1868 -1.0190  1.0093
  129OSM    H9T13859   2.528   1.326   6.319 -0.0510  0.4463 -0.4626
  129OSM   C10S13860   2.634   1.332   6.516 -0.3597  0.3678 -0.5205
  129OSM   H10S13861   2.726   1.385   6.483 -0.6615  1.7472  0.7962
  129OSM   H10T13862   2.666   1.269   6.602 -0.5866  2.0221  0.8080
  129OSM   C11S13863   2.534   1.430   6.589 -0.2201  0.2998 -0.5128
  129OSM   H11S13864   2.431   1.388   6.585 -0.6205  0.9460  1.9392
  129OSM   H11T13865   2.525   1.529   6.540 -0.3867  0.4779 -0.1248
  129OSM   C12S13866   2.569   1.458   6.734 -0.5866  0.0844 -0.6499
  129OSM   H12S13867   2.673   1.499   6.733  0.2357 -1.9368 -0.7063
  129OSM   H12T13868   2.578   1.365   6.794  0.7471  0.0245 -0.9200
  129OSM   C13S13869   2.473   1.546   6.801 -0.2710  0.0037  0.2672
  129OSM   H13S13870   2.370   1.505   6.792 -0.2205 -0.0783  0.0477
  129OSM   H13T13871   2.472   1.645   6.750  1.0395 -0.7862 -1.3461
  129OSM   C14S13872   2.501   1.564   6.952  0.6280  0.8686 -0.1550
  129OSM   H14S13873   2.602   1.603   6.976  1.0664  0.2978 -1.0329
  129OSM   H14T13874   2.508   1.471   7.012 -1.2802  0.6264 -0.2966
  129OSM   C15S13875   2.398   1.653   7.022 -0.5016 -0.2995  0.3981
  129OSM   H15S13876   2.301   1.611   6.987  0.2933 -1.7424 -0.1745
  129OSM   H15T13877   2.414   1.759   6.995  0.4866 -0.4843  0.2173
  129OSM   C16S13878   2.391   1.648   7.181  0.3853 -0.0529  0.0436
  129OSM   H16S13879   2.478   1.597   7.227  1.4626  0.0450 -1.8314
  129OSM   H16T13880   2.304   1.584   7.204 -2.2853  2.6318 -2.1316
  129OSM   C17S13881   2.380   1.782   7.239  0.1484  0.0030  0.5953
  129OSM   H17S13882   2.469   1.839   7.205 -0.2149 -0.0139 -0.4008
  129OSM   H17T13883   2.394   1.757   7.347  1.2816  2.1513  0.9701
  129OSM   C18S13884   2.245   1.846   7.219 -0.6430  0.1013 -0.5978
  129OSM   H18S13885   2.233   1.855   7.109  1.5043  1.2838 -0.7588
  129OSM   H18T13886   2.258   1.954   7.238  0.7504  0.1362 -1.6287
  129OSM   H18U13887   2.158   1.805   7.275 -0.1492 -0.2130 -0.0601
  129OSM    C1F13888   2.671   1.569   6.097  0.5363  0.3762 -0.6602
  129OSM     OF13889   2.574   1.642   6.080  0.1476 -0.3832 -0.4772
  129OSM    C2F13890   2.772   1.596   6.204 -0.7096 -0.7682  0.7785
  129OSM    H2F13891   2.867   1.627   6.155 -0.3913  0.2929  2.0258
  129OSM    H2G13892   2.790   1.499   6.255  0.4358 -0.1049  1.6889
  129OSM    C3F13893   2.718   1.696   6.313  0.4412  0.3321 -0.3840
  129OSM    H3F13894   2.625   1.658   6.360  0.0251  1.3565 -0.3790
  129OSM    H3G13895   2.681   1.794   6.275 -0.6202  0.2562  0.4201
  129OSM    C4F13896   2.824   1.718   6.421 -0.4388 -0.0518 -0.3939
  129OSM    H4F13897   2.891   1.793   6.376 -0.7478 -0.3232 -1.3286
  129OSM    H4G13898   2.869   1.619   6.444  0.3240  0.4562  0.2850
  129OSM    C5F13899   2.761   1.770   6.549  0.0098  0.2032 -0.4753
  129OSM    H5F13900   2.692   1.695   6.594  1.4191  0.9686  3.1169
  129OSM    H5G13901   2.702   1.864   6.540  0.8323  0.5725 -2.1449
  129OSM    C6F13902   2.860   1.795   6.665  0.0831  0.0801  0.4755
  129OSM    H6F13903   2.953   1.838   6.623 -0.3012  1.2701  0.8128
  129OSM    H6G13904   2.893   1.700   6.712  0.6412  0.9825  1.9674
  129OSM    C7F13905   2.802   1.890   6.772 -1.0612  0.4774 -0.1153
  129OSM    H7F13906   2.708   1.849   6.814 -1.7132  0.6009 -1.4201
  129OSM    H7G13907   2.777   1.992   6.734  1.1683  1.3427  0.6419
  129OSM    C8F13908   2.904   1.913   6.888  0.1893  0.0233  0.1398
  129OSM    H8F13909   2.850   1.982   6.956 -0.3220  0.0792 -0.3205
  129OSM    H8G13910   2.999   1.965   6.863  0.9211 -1.5273 -0.3763
  129OSM    C9F13911   2.930   1.781   6.952  0.3174  0.1131 -0.0922
  129OSM    H9F13912   3.010   1.729   6.898  0.1937  0.3143 -0.4664
  129OSM   C10F13913   2.883   1.730   7.073  0.2082  0.0401  0.4206
  129OSM   H10F13914   2.933   1.639   7.111 -0.1981 -0.9326 -1.3233
  129OSM   C11F13915   2.784   1.799   7.159  0.0848  0.3426  0.2027
  129OSM   H11F13916   2.680   1.779   7.124 -0.3100  1.2284  0.8754
  129OSM   H11G13917   2.796   1.909   7.160 -0.9711  0.4555  1.4187
  129OSM   C12F13918   2.786   1.763   7.313 -0.3426  0.2210 -0.1287
  129OSM   H12F13919   2.891   1.778   7.347 -0.3097 -3.0051  1.4261
  129OSM   H12G13920   2.758   1.657   7.335  1.4171 -0.0552  0.9282
  129OSM   C13F13921   2.700   1.863   7.397  0.1475  0.3687  0.4649
  129OSM   H13F13922   2.599   1.886   7.356 -0.4263 -1.5125  0.7815
  129OSM   H13G13923   2.757   1.957   7.417 -0.1669  0.2222  2.1086
  129OSM   C14F13924   2.674   1.822   7.536  0.2212  0.0912  0.1134
  129OSM   H14F13925   2.764   1.835   7.599 -1.1204  1.4066  1.8001
  129OSM   H14G13926   2.657   1.712   7.535 -0.9391  0.2224  2.5766
  129OSM   C15F13927   2.545   1.894   7.596 -0.2322 -0.3262 -0.5930
  129OSM   H15F13928   2.464   1.864   7.527  0.7073 -1.3134 -1.2957
  129OSM   H15G13929   2.554   2.004   7.595  2.7347 -0.4274  3.0762
  129OSM   C16F13930   2.521   1.871   7.742 -0.4443 -0.6941  0.0291
  129OSM   H16F13931   2.619   1.873   7.795 -1.1770  0.0272  1.3994
  129OSM   H16G13932   2.477   1.769   7.750 -0.9745 -0.2938  3.1101
  129OSM   C17F13933   2.412   1.968   7.793 -0.4980  0.7569  0.3419
  129OSM   H17F13934   2.324   1.979   7.725 -0.2903 -2.2395 -0.4753
  129OSM   H17G13935   2.461   2.068   7.790  2.5134 -0.6886 -4.1927
  129OSM   C18F13936   2.365   1.941   7.935 -0.1746  0.5377 -1.0933
  129OSM   H18F13937   2.444   1.954   8.011  1.5290  0.1572 -2.7550
  129OSM   H18G13938   2.325   1.837   7.938 -0.6569  0.7359 -0.4081
  129OSM   H18H13939   2.290   2.017   7.967 -0.1152 -0.5108  1.6068
  130OSM      N13940   5.368   4.333   5.703  0.5714  0.2308 -0.4742
  130OSM    C1513941   5.325   4.356   5.559 -0.2568  0.1030  0.2738
  130OSM   H15A13942   5.272   4.270   5.521 -1.6778  1.5955 -1.1754
  130OSM   H15B13943   5.408   4.375   5.492 -0.3891  0.0529  0.0965
  130OSM   H15C13944   5.258   4.439   5.545 -2.3987 -1.6435 -0.2011
  130OSM    C1413945   5.251   4.300   5.782  0.4010  0.2419 -0.0440
  130OSM   H14A13946   5.267   4.299   5.889  0.6860  0.4257 -0.0834
  130OSM   H14B13947   5.210   4.206   5.749  0.1335 -0.1264  1.3283
  130OSM   H14C13948   5.179   4.379   5.768  0.1392 -0.0842 -0.5651
  130OSM    C1313949   5.452   4.208   5.707 -0.5455  0.6527  0.0639
  130OSM   H13A13950   5.484   4.174   5.804 -3.6510 -2.0885  0.2219
  130OSM   H13B13951   5.549   4.214   5.661  0.1799 -1.6079  1.2194
  130OSM   H13C13952   5.404   4.125   5.657 -0.8595  2.5622 -2.9126
  130OSM    C1213953   5.446   4.447   5.759  0.0948 -0.0885  0.0915
  130OSM   H12A13954   5.519   4.466   5.682  1.6105 -4.9309  0.1345
  130OSM   H12B13955   5.500   4.419   5.848  1.1862  1.6669 -0.0018
  130OSM    C1113956   5.367   4.575   5.790 -0.3505  0.2458  0.2223
  130OSM   H11A13957   5.297   4.567   5.876 -0.5340  2.3208  0.2947
  130OSM   H11B13958   5.302   4.585   5.700  0.5265  0.7376 -0.3635
  130OSM      P13959   5.445   4.812   5.711 -0.3758  0.0060  0.0505
  130OSM    O1313960   5.498   4.794   5.579 -0.3155  0.1500  0.3953
  130OSM    O1413961   5.306   4.857   5.719 -0.1938 -0.1886  0.5129
  130OSM    O1113962   5.534   4.915   5.786 -0.7714  0.2263 -0.4754
  130OSM    O1213963   5.457   4.680   5.803  0.0431 -0.1740 -0.0604
  130OSM    C1S13964   5.507   4.939   5.929 -0.0118 -0.2838 -0.5937
  130OSM    H1S13965   5.455   4.856   5.982 -1.9789  0.5987 -1.1178
  130OSM    H1T13966   5.446   5.032   5.928 -0.2278 -0.4293 -0.9968
  130OSM     NF13967   5.620   4.980   6.148  0.5609 -0.4237  0.4551
  130OSM    HNF13968   5.635   5.070   6.189  0.8721 -0.9744  1.5757
  130OSM    C2S13969   5.642   4.960   6.011  0.0883 -0.7355  0.6494
  130OSM    H2S13970   5.702   4.868   5.995 -0.4284 -0.7389 -1.5396
  130OSM    C3S13971   5.722   5.079   5.947 -0.0397  0.4408 -0.0798
  130OSM    H3S13972   5.652   5.165   5.933  0.8678  1.2182  0.1241
  130OSM     O313973   5.757   5.041   5.813  0.7599  0.0562 -0.3845
  130OSM    HO313974   5.685   4.986   5.782  1.0062  0.4751 -1.7115
  130OSM    C4S13975   5.845   5.096   6.032  0.3277 -0.3653  0.2025
  130OSM    H4S13976   5.916   5.013   6.037  0.4041 -0.2433  1.3009
  130OSM    C5S13977   5.878   5.214   6.087  0.6643  0.4675 -0.5406
  130OSM    H5S13978   5.817   5.305   6.077 -0.8813 -0.1395  2.6357
  130OSM    C6S13979   6.004   5.234   6.166  0.5219  0.1373 -0.2526
  130OSM    H6S13980   6.069   5.309   6.115  1.0090 -0.1068  0.0035
  130OSM    H6T13981   6.056   5.137   6.178 -1.0593 -0.8126 -1.0499
  130OSM    C7S13982   5.972   5.290   6.309 -0.1254  0.1921 -0.4047
  130OSM    H7S13983   5.931   5.392   6.290 -0.2655  0.2217  0.0441
  130OSM    H7T13984   6.072   5.308   6.355 -1.0241  0.8966  1.3480
  130OSM    C8S13985   5.901   5.200   6.410 -0.0023  0.2875  0.2128
  130OSM    H8S13986   5.965   5.110   6.412 -3.2389 -2.2145 -3.1403
  130OSM    H8T13987   5.806   5.153   6.377 -0.5690  0.7599  1.1166
  130OSM    C9S13988   5.900   5.259   6.556  0.2092  0.1719  0.3556
  130OSM    H9S13989   5.871   5.365   6.546  0.8467  0.3291  0.1241
  130OSM    H9T13990   6.009   5.269   6.572  0.3966  1.9568 -1.6924
  130OSM   C10S13991   5.834   5.180   6.673  0.0635  0.5165  0.0590
  130OSM   H10S13992   5.888   5.083   6.677  1.8660  1.4579 -0.6662
  130OSM   H10T13993   5.725   5.163   6.659  0.1169 -1.0148  1.3751
  130OSM   C11S13994   5.863   5.245   6.814  0.1479 -0.2005  0.1726
  130OSM   H11S13995   5.793   5.332   6.808  0.0883 -0.3489 -2.0030
  130OSM   H11T13996   5.964   5.288   6.825 -0.0298  0.1978  0.2673
  130OSM   C12S13997   5.821   5.154   6.934 -0.6990  0.5705 -0.4874
  130OSM   H12S13998   5.886   5.065   6.947 -0.4872  0.8447  0.3547
  130OSM   H12T13999   5.719   5.118   6.911  0.3552 -2.3307 -0.8127
  130OSM   C13S14000   5.821   5.232   7.070 -0.1833  0.3341 -0.1153
  130OSM   H13S14001   5.737   5.304   7.063 -2.2457 -2.0023 -0.0784
  130OSM   H13T14002   5.922   5.279   7.065 -0.8009  1.5145 -2.6077
  130OSM   C14S14003   5.813   5.139   7.196 -0.1777 -0.2267  0.1060
  130OSM   H14S14004   5.844   5.035   7.172 -0.0960 -0.0253 -0.6902
  130OSM   H14T14005   5.713   5.141   7.243 -0.6463 -0.5577 -0.8689
  130OSM   C15S14006   5.938   5.176   7.281 -0.0077  0.5029 -0.2418
  130OSM   H15S14007   5.956   5.284   7.297  1.9518  0.4050 -1.6502
  130OSM   H15T14008   6.028   5.141   7.225  0.9187 -0.0034  1.5170
  130OSM   C16S14009   5.919   5.108   7.414 -0.9285  0.1060  0.0540
  130OSM   H16S14010   5.888   5.004   7.389  2.4748 -1.0795  0.5111
  130OSM   H16T14011   5.832   5.161   7.459  0.1794  1.7858  0.2657
  130OSM   C17S14012   6.047   5.096   7.496 -0.1998  0.0826 -0.1673
  130OSM   H17S14013   6.121   5.033   7.441 -1.3384 -0.7134 -0.8036
  130OSM   H17T14014   6.026   5.041   7.590 -1.1675  1.1665  0.2574
  130OSM   C18S14015   6.107   5.236   7.535 -0.0335 -0.6627 -0.3917
  130OSM   H18S14016   6.190   5.224   7.609  0.8848  1.4776 -1.0217
  130OSM   H18T14017   6.026   5.303   7.571  0.3091 -0.6379  0.3305
  130OSM   H18U14018   6.154   5.285   7.446 -1.4202  1.4920  0.0391
  130OSM    C1F14019   5.583   4.884   6.236  0.0236  0.6650 -0.2142
  130OSM     OF14020   5.530   4.777   6.204 -0.0804  0.3020 -0.5299
  130OSM    C2F14021   5.604   4.921   6.379  0.2386 -0.1136  0.2964
  130OSM    H2F14022   5.586   5.029   6.398 -1.9189 -0.6179  1.1928
  130OSM    H2G14023   5.708   4.901   6.415  0.1218  1.0317  1.2915
  130OSM    C3F14024   5.494   4.852   6.466  0.4751 -0.4827 -1.0265
  130OSM    H3F14025   5.492   4.742   6.455  0.6015 -0.4072 -1.7745
  130OSM    H3G14026   5.397   4.898   6.437  1.3188  1.4481 -0.8442
  130OSM    C4F14027   5.520   4.882   6.619  0.7581 -0.2036  0.2781
  130OSM    H4F14028   5.452   4.820   6.681  0.5983  2.1797  2.5797
  130OSM    H4G14029   5.503   4.989   6.646  1.1275 -0.0693 -0.0144
  130OSM    C5F14030   5.659   4.841   6.657 -0.5541  0.6979 -0.0265
  130OSM    H5F14031   5.740   4.911   6.630  0.5320 -0.6084 -0.2045
  130OSM    H5G14032   5.695   4.746   6.612  0.3058 -0.6549  3.4100
  130OSM    C6F14033   5.670   4.824   6.804 -0.2922  0.4981 -0.8145
  130OSM    H6F14034   5.617   4.905   6.858  1.1340  0.7891  0.2054
  130OSM    H6G14035   5.777   4.810   6.834 -0.5475 -0.5376 -0.3360
  130OSM    C7F14036   5.606   4.698   6.860 -0.0396 -0.1460  0.0835
  130OSM    H7F14037   5.662   4.621   6.805  0.6859  0.2119  0.3096
  130OSM    H7G14038   5.496   4.693   6.844 -0.3212  2.1867  1.0437
  130OSM    C8F14039   5.620   4.685   7.020  0.2512 -0.0509 -0.1899
  130OSM    H8F14040   5.602   4.786   7.062  0.2901  0.2528 -0.8959
  130OSM    H8G14041   5.725   4.661   7.049  0.1973  2.2857  2.1099
  130OSM    C9F14042   5.524   4.588   7.079 -0.4278  0.5423  0.4378
  130OSM    H9F14043   5.431   4.571   7.023 -0.5071  1.1087  0.3907
  130OSM   C10F14044   5.514   4.543   7.205  0.1037 -0.1685  0.4648
  130OSM   H10F14045   5.424   4.483   7.225 -1.2146  0.7835 -2.2628
  130OSM   C11F14046   5.617   4.576   7.305  0.7162  0.3412 -0.0394
  130OSM   H11F14047   5.710   4.604   7.251  1.5468 -0.9199  0.7225
  130OSM   H11G14048   5.631   4.489   7.372 -2.6066 -1.0389 -1.0413
  130OSM   C12F14049   5.574   4.696   7.390  0.2621  0.1667  0.0315
  130OSM   H12F14050   5.474   4.668   7.430 -0.7189 -0.6882 -2.8519
  130OSM   H12G14051   5.544   4.783   7.328 -0.9302  0.8611  1.5589
  130OSM   C13F14052   5.679   4.732   7.491  0.5586 -0.0363 -0.0115
  130OSM   H13F14053   5.758   4.786   7.434  0.3539 -0.0982 -0.3531
  130OSM   H13G14054   5.730   4.646   7.540  1.7104  0.8122  0.3152
  130OSM   C14F14055   5.620   4.820   7.604 -0.4764  0.1066 -0.1092
  130OSM   H14F14056   5.526   4.768   7.633 -1.7730  2.4880  0.0880
  130OSM   H14G14057   5.591   4.922   7.574 -2.2968  0.2559  2.0260
  130OSM   C15F14058   5.714   4.846   7.723  0.5541 -0.2831  0.3085
  130OSM   H15F14059   5.807   4.898   7.689  1.0443 -1.2595  0.1405
  130OSM   H15G14060   5.753   4.748   7.758 -0.7520 -1.0266 -0.3084
  130OSM   C16F14061   5.643   4.921   7.842  0.1930 -0.2041  1.0714
  130OSM   H16F14062   5.706   4.901   7.931  3.5574  2.0686 -0.7136
  130OSM   H16G14063   5.540   4.879   7.844  0.6507 -1.4857 -0.6608
  130OSM   C17F14064   5.622   5.072   7.824 -1.0230 -0.5753  0.3358
  130OSM   H17F14065   5.543   5.091   7.748 -0.0928  2.2344  0.0301
  130OSM   H17G14066   5.713   5.111   7.774 -3.0007 -2.6030 -5.3088
  130OSM   C18F14067   5.588   5.155   7.955 -0.4183  0.1384  0.0292
  130OSM   H18F14068   5.581   5.262   7.925 -0.4185  0.0239 -0.3788
  130OSM   H18G14069   5.675   5.149   8.024 -1.2347  1.7871  1.2548
  130OSM   H18H14070   5.493   5.114   7.995 -0.3675 -1.1546 -1.1613
  131OSM      N14071   3.059   0.970   5.399 -0.0993 -0.1958 -0.0230
  131OSM    C1514072   2.992   0.941   5.268  0.2993  0.0047  0.3260
  131OSM   H15A14073   3.049   0.870   5.210  1.1127  0.0872  1.0188
  131OSM   H15B14074   3.009   1.029   5.206 -1.1012 -1.1390 -1.7452
  131OSM   H15C14075   2.893   0.899   5.272  0.1346  0.3128 -0.3346
  131OSM    C1414076   3.090   0.835   5.453  0.3214 -0.7221 -0.1454
  131OSM   H14A14077   3.092   0.838   5.561  1.9963  0.5685 -0.2004
  131OSM   H14B14078   3.185   0.809   5.410  1.7305  0.4715  2.1585
  131OSM   H14C14079   3.020   0.763   5.413  0.5108 -1.7666  1.3570
  131OSM    C1314080   3.188   1.044   5.376 -0.7259  0.1281  0.6381
  131OSM   H13A14081   3.249   1.048   5.465  1.1646  2.6476 -0.7192
  131OSM   H13B14082   3.179   1.146   5.341 -0.3530  0.0020  0.1722
  131OSM   H13C14083   3.255   0.995   5.306 -0.5230 -1.1447  1.7088
  131OSM    C1214084   2.964   1.050   5.492 -0.4916  0.0788  0.2079
  131OSM   H12A14085   2.863   1.017   5.475  0.4438 -2.8826  0.1081
  131OSM   H12B14086   2.965   1.156   5.470 -0.3922 -0.0565 -0.4731
  131OSM    C1114087   2.992   1.062   5.650  0.0949  0.5213 -0.3643
  131OSM   H11A14088   2.997   0.959   5.692  3.2674  1.0893  0.7357
  131OSM   H11B14089   2.905   1.113   5.697 -0.0169 -1.9470  2.2576
  131OSM      P14090   3.121   1.291   5.688  0.1734  0.3820  0.3246
  131OSM    O1314091   3.249   1.344   5.643  0.5705  0.3710 -0.1918
  131OSM    O1414092   3.003   1.347   5.619  0.5134  0.3413 -0.1972
  131OSM    O1114093   3.110   1.292   5.845  0.3496 -0.0905 -0.1195
  131OSM    O1214094   3.119   1.132   5.665  0.5701  0.1541 -0.1154
  131OSM    C1S14095   3.217   1.259   5.934  0.2509 -0.3684  0.2500
  131OSM    H1S14096   3.317   1.261   5.886 -0.3684  0.1016 -1.0471
  131OSM    H1T14097   3.209   1.155   5.972  1.2136 -0.4860  0.1390
  131OSM     NF14098   3.329   1.314   6.150  0.1252  0.1903  0.4150
  131OSM    HNF14099   3.289   1.308   6.241  1.8677 -1.6266  1.1036
  131OSM    C2S14100   3.212   1.342   6.065 -0.6219 -0.0550 -0.2929
  131OSM    H2S14101   3.219   1.451   6.045  0.8050 -0.3525 -1.4625
  131OSM    C3S14102   3.072   1.317   6.145 -0.2244 -0.8374 -0.4466
  131OSM    H3S14103   3.069   1.208   6.165  1.4977 -1.1112 -1.5520
  131OSM     O314104   2.960   1.348   6.064  0.0498  1.0578 -0.0840
  131OSM    HO314105   2.996   1.365   5.977  0.1325  0.6220 -0.1340
  131OSM    C4S14106   3.059   1.391   6.278 -0.4531 -0.4033 -0.2263
  131OSM    H4S14107   3.093   1.495   6.281  2.7327 -1.3670 -1.8174
  131OSM    C5S14108   3.033   1.336   6.397  0.6444 -0.1850 -0.1398
  131OSM    H5S14109   3.018   1.229   6.415  0.0406  0.3683  2.8509
  131OSM    C6S14110   3.024   1.411   6.531  0.1408  0.4397 -0.3123
  131OSM    H6S14111   2.918   1.413   6.562 -0.0413 -1.2704 -0.7329
  131OSM    H6T14112   3.064   1.514   6.538 -0.8818  0.6456  3.0037
  131OSM    C7S14113   3.099   1.331   6.638  0.3203 -0.4495  0.0998
  131OSM    H7S14114   3.209   1.327   6.627  0.5380 -0.7118  2.1051
  131OSM    H7T14115   3.069   1.224   6.633 -0.8204 -0.2759  2.2817
  131OSM    C8S14116   3.072   1.386   6.778  0.1745 -0.0102  0.6694
  131OSM    H8S14117   2.961   1.394   6.780  0.2798  1.2859  2.2833
  131OSM    H8T14118   3.105   1.490   6.799  0.7097 -0.2525  1.0377
  131OSM    C9S14119   3.109   1.293   6.886  0.0392 -0.4754  0.2487
  131OSM    H9S14120   3.216   1.265   6.877 -0.0181  0.1818 -3.0227
  131OSM    H9T14121   3.049   1.200   6.879 -1.5721  0.7802 -4.0952
  131OSM   C10S14122   3.083   1.352   7.022  0.0404 -0.7030  0.0804
  131OSM   H10S14123   3.100   1.264   7.088 -0.0974 -0.3479  0.5956
  131OSM   H10T14124   2.976   1.379   7.035  0.5807  1.8625 -0.4550
  131OSM   C11S14125   3.172   1.476   7.051  0.0184 -0.0472  1.5664
  131OSM   H11S14126   3.125   1.568   7.011 -0.8323 -0.5889  1.3295
  131OSM   H11T14127   3.273   1.463   7.006 -1.0133 -1.3092 -0.4436
  131OSM   C12S14128   3.206   1.492   7.201 -0.0361  0.2095 -0.1862
  131OSM   H12S14129   3.263   1.398   7.215 -1.6061 -0.6495  0.5416
  131OSM   H12T14130   3.114   1.490   7.264 -0.5032  2.6112 -0.7524
  131OSM   C13S14131   3.293   1.613   7.241 -0.0282 -0.2027 -0.2033
  131OSM   H13S14132   3.230   1.694   7.197 -0.2447  0.1812  0.8099
  131OSM   H13T14133   3.392   1.605   7.191 -0.6255 -2.5323 -1.0915
  131OSM   C14S14134   3.298   1.618   7.393 -0.0545 -0.2947  0.2207
  131OSM   H14S14135   3.190   1.619   7.417  0.1507 -0.7277  1.1761
  131OSM   H14T14136   3.345   1.705   7.444  0.0519  1.4856 -2.7636
  131OSM   C15S14137   3.363   1.490   7.442 -0.0371 -1.1366  0.5356
  131OSM   H15S14138   3.453   1.483   7.376 -0.2789 -0.6076  0.1419
  131OSM   H15T14139   3.311   1.393   7.433 -0.6098 -0.5894 -2.7947
  131OSM   C16S14140   3.431   1.513   7.580 -0.3355 -0.2957 -0.5271
  131OSM   H16S14141   3.352   1.519   7.658  0.3315 -1.2836  0.2381
  131OSM   H16T14142   3.485   1.609   7.566  0.4231 -0.6729 -0.2755
  131OSM   C17S14143   3.543   1.410   7.618  0.8252  0.0290  0.5703
  131OSM   H17S14144   3.633   1.424   7.554  1.4689  1.4364  1.7457
  131OSM   H17T14145   3.521   1.303   7.599 -0.5748  0.4196 -0.0374
  131OSM   C18S14146   3.594   1.434   7.759  0.6290  0.8355  0.0771
  131OSM   H18S14147   3.514   1.448   7.834 -2.2882  1.5233 -3.0211
  131OSM   H18T14148   3.658   1.524   7.745  0.0495  1.2193 -0.0935
  131OSM   H18U14149   3.653   1.346   7.793 -1.0264 -0.6447 -0.8150
  131OSM    C1F14150   3.456   1.337   6.112  0.1557  0.2994  0.3134
  131OSM     OF14151   3.485   1.359   5.990  0.7035 -0.0967 -0.6823
  131OSM    C2F14152   3.555   1.361   6.223  0.4892  0.4429 -0.2099
  131OSM    H2F14153   3.645   1.411   6.180  0.4994  0.6185  0.0146
  131OSM    H2G14154   3.586   1.260   6.257 -0.2421  0.2050 -0.2547
  131OSM    C3F14155   3.510   1.420   6.359 -0.6069 -0.5408 -0.2351
  131OSM    H3F14156   3.602   1.434   6.418  0.2022 -0.4905 -1.4925
  131OSM    H3G14157   3.433   1.354   6.406  0.1578 -1.8244 -0.7396
  131OSM    C4F14158   3.473   1.566   6.341 -0.4962 -0.5657 -0.7295
  131OSM    H4F14159   3.387   1.573   6.272 -0.1111 -0.4055 -1.1991
  131OSM    H4G14160   3.566   1.607   6.296  0.4767 -3.1817 -1.1954
  131OSM    C5F14161   3.456   1.649   6.473  0.4491  0.1969 -0.4212
  131OSM    H5F14162   3.442   1.754   6.440  0.6303 -0.1794 -1.7354
  131OSM    H5G14163   3.552   1.638   6.528 -0.1336 -0.6122  0.4441
  131OSM    C6F14164   3.337   1.597   6.547 -0.5424 -0.1144  0.6215
  131OSM    H6F14165   3.371   1.529   6.628  0.4247 -1.5395 -0.9479
  131OSM    H6G14166   3.262   1.568   6.470  0.6614  1.1725 -1.0906
  131OSM    C7F14167   3.256   1.717   6.610 -0.1856 -0.2214 -0.5313
  131OSM    H7F14168   3.149   1.693   6.627 -0.3554  1.0001  0.1475
  131OSM    H7G14169   3.246   1.805   6.542 -1.5436  0.4396  0.5079
  131OSM    C8F14170   3.305   1.765   6.751 -0.3321  0.1169 -0.3743
  131OSM    H8F14171   3.287   1.690   6.831 -3.5107  0.5295 -0.6558
  131OSM    H8G14172   3.239   1.850   6.777  0.9588  0.8317  0.6691
  131OSM    C9F14173   3.446   1.828   6.754  0.1696  0.5029 -0.4689
  131OSM    H9F14174   3.454   1.922   6.698 -2.0147  2.0555  1.7098
  131OSM   C10F14175   3.543   1.787   6.840 -0.3398  0.5036 -0.0230
  131OSM   H10F14176   3.634   1.849   6.840  0.3560 -0.5109 -0.3782
  131OSM   C11F14177   3.520   1.685   6.942  0.6154 -0.1009  0.6186
  131OSM   H11F14178   3.493   1.589   6.892 -1.6732  0.7845  0.1105
  131OSM   H11G14179   3.441   1.715   7.014  2.9035  2.0429  2.3019
  131OSM   C12F14180   3.647   1.671   7.035 -0.2303 -0.4501  0.0225
  131OSM   H12F14181   3.741   1.654   6.979  0.8268 -2.5614  2.3070
  131OSM   H12G14182   3.630   1.578   7.095  0.9812 -2.2190 -2.3082
  131OSM   C13F14183   3.667   1.787   7.133 -0.8770 -0.1072 -0.6735
  131OSM   H13F14184   3.572   1.800   7.189 -0.2994  1.0850  0.0455
  131OSM   H13G14185   3.683   1.888   7.088 -2.3238 -0.2554 -1.5332
  131OSM   C14F14186   3.781   1.767   7.237  0.3221 -0.7531  0.4381
  131OSM   H14F14187   3.871   1.745   7.175 -0.7329 -2.0673 -0.6517
  131OSM   H14G14188   3.755   1.667   7.277 -0.0380 -0.8384 -0.0114
  131OSM   C15F14189   3.808   1.868   7.344  0.0372  0.2165 -0.1245
  131OSM   H15F14190   3.855   1.958   7.298  0.5823 -1.6400 -3.3378
  131OSM   H15G14191   3.892   1.829   7.404  1.0155  0.6228 -1.2054
  131OSM   C16F14192   3.689   1.896   7.436 -0.5210  0.3513 -0.0095
  131OSM   H16F14193   3.672   1.806   7.498 -2.0062 -0.4913 -1.5804
  131OSM   H16G14194   3.605   1.913   7.364 -0.7502 -0.0611  0.1618
  131OSM   C17F14195   3.715   2.022   7.522  0.0870  0.4605 -0.7166
  131OSM   H17F14196   3.819   2.024   7.560  0.7796 -0.0982 -2.5193
  131OSM   H17G14197   3.647   2.028   7.609 -0.5084 -1.7429 -0.9900
  131OSM   C18F14198   3.680   2.154   7.438 -0.4889  0.3506  0.6977
  131OSM   H18F14199   3.570   2.158   7.428 -0.4657  2.8267  1.0984
  131OSM   H18G14200   3.743   2.156   7.346  1.1192 -1.2916  1.7247
  131OSM   H18H14201   3.720   2.241   7.495 -1.6465  1.3626 -0.0194
  132OSM      N14202   5.034   1.257   5.774  0.0344  0.3540  0.3637
  132OSM    C1514203   5.115   1.272   5.654  0.2116  0.0016 -0.5266
  132OSM   H15A14204   5.046   1.302   5.576 -1.1244  0.8281  0.9529
  132OSM   H15B14205   5.165   1.182   5.621 -0.3016  0.0103 -1.3522
  132OSM   H15C14206   5.197   1.341   5.663  0.7542 -0.7143  0.1173
  132OSM    C1414207   5.125   1.236   5.894 -0.6477  0.2916  0.2517
  132OSM   H14A14208   5.171   1.329   5.924  2.0334 -0.9438  0.1511
  132OSM   H14B14209   5.211   1.182   5.857 -0.9151  1.9912 -3.0200
  132OSM   H14C14210   5.086   1.181   5.977 -0.3787 -0.5205 -0.1573
  132OSM    C1314211   4.962   1.388   5.783 -0.2223 -0.1737 -1.0195
  132OSM   H13A14212   4.895   1.404   5.699 -0.1304  0.7370 -0.9296
  132OSM   H13B14213   5.023   1.477   5.781 -1.9790  1.1120  1.2358
  132OSM   H13C14214   4.906   1.382   5.875  1.5580 -3.0723 -0.0755
  132OSM    C1214215   4.931   1.149   5.761  0.1625 -0.1120  0.5262
  132OSM   H12A14216   4.860   1.166   5.840 -0.7126  2.8373 -0.8250
  132OSM   H12B14217   4.980   1.055   5.784  1.7769  1.3303  3.1337
  132OSM    C1114218   4.847   1.139   5.625  0.0649  0.0310 -0.3298
  132OSM   H11A14219   4.784   1.048   5.615 -0.9084  0.6998 -0.3289
  132OSM   H11B14220   4.920   1.142   5.541 -2.2984 -0.2500 -2.4383
  132OSM      P14221   4.631   1.247   5.697 -0.4818  0.0477  0.3195
  132OSM    O1314222   4.550   1.368   5.688 -0.4277  0.3060  0.2013
  132OSM    O1414223   4.563   1.116   5.678  0.2089  0.2816  0.1052
  132OSM    O1114224   4.688   1.247   5.848 -0.3038 -0.0171  0.0038
  132OSM    O1214225   4.768   1.254   5.617  0.3472 -0.5552 -0.0890
  132OSM    C1S14226   4.604   1.212   5.950  0.2413 -0.2359  0.0184
  132OSM    H1S14227   4.577   1.104   5.946  0.2338 -0.2541  0.5768
  132OSM    H1T14228   4.510   1.269   5.935  0.8921  0.1720 -2.9177
  132OSM     NF14229   4.567   1.176   6.195  0.4880 -0.4704  0.3977
  132OSM    HNF14230   4.484   1.218   6.232  1.1224  0.9583  0.2259
  132OSM    C2S14231   4.653   1.243   6.097  0.1905 -0.2308  0.6086
  132OSM    H2S14232   4.751   1.192   6.107  0.7882  1.3063  3.1745
  132OSM    C3S14233   4.668   1.399   6.111 -0.7392  0.0801 -0.3164
  132OSM    H3S14234   4.569   1.448   6.108 -0.8846 -0.1960  0.0016
  132OSM     O314235   4.736   1.446   5.999  0.4915 -0.0456 -0.0367
  132OSM    HO314236   4.732   1.377   5.932  0.9087  0.1624 -0.2757
  132OSM    C4S14237   4.743   1.449   6.236 -0.1630 -0.4112  1.0614
  132OSM    H4S14238   4.687   1.530   6.285 -0.1553  2.3029 -3.1653
  132OSM    C5S14239   4.868   1.404   6.276  0.1586 -0.3566 -0.4974
  132OSM    H5S14240   4.906   1.313   6.228 -2.3207 -2.1723  0.8332
  132OSM    C6S14241   4.939   1.446   6.403  0.0857 -0.1714 -0.3553
  132OSM    H6S14242   5.036   1.490   6.371  0.3069 -1.1689 -1.0929
  132OSM    H6T14243   4.952   1.353   6.461 -0.7884 -0.9234 -1.3490
  132OSM    C7S14244   4.886   1.553   6.505  0.2103 -0.4454 -0.4605
  132OSM    H7S14245   4.793   1.520   6.556  1.3873  0.8292  2.6583
  132OSM    H7T14246   4.885   1.650   6.451  0.5435 -0.2906 -0.1894
  132OSM    C8S14247   4.994   1.572   6.613 -0.4363 -0.3091 -0.0591
  132OSM    H8S14248   5.079   1.621   6.560 -0.6796  0.8281  0.5734
  132OSM    H8T14249   5.043   1.481   6.654 -2.3519  0.3758  4.0132
  132OSM    C9S14250   4.936   1.657   6.731  0.5112  0.7732  0.2950
  132OSM    H9S14251   4.869   1.608   6.806  0.6149  2.3426  1.4316
  132OSM    H9T14252   4.866   1.723   6.676 -0.9991 -0.0189  1.2159
  132OSM   C10S14253   5.046   1.741   6.806 -0.7352  0.6962 -0.3025
  132OSM   H10S14254   5.010   1.804   6.889  2.0853  1.9155  0.0539
  132OSM   H10T14255   5.080   1.814   6.730 -0.4175  2.2638  1.3203
  132OSM   C11S14256   5.165   1.662   6.858 -0.1436 -0.7443 -0.2601
  132OSM   H11S14257   5.203   1.598   6.775 -0.4887 -2.9508  1.2173
  132OSM   H11T14258   5.123   1.582   6.924  0.8383 -0.0477  1.2242
  132OSM   C12S14259   5.285   1.731   6.908 -0.1450  0.9826 -0.1018
  132OSM   H12S14260   5.332   1.802   6.836  0.2931 -0.6718 -1.4972
  132OSM   H12T14261   5.365   1.657   6.926 -0.6415  0.9780  2.1639
  132OSM   C13S14262   5.264   1.818   7.033 -0.5718 -0.3355  0.6855
  132OSM   H13S14263   5.203   1.901   6.991  1.1258 -0.1306 -1.5089
  132OSM   H13T14264   5.361   1.864   7.062 -0.7521 -0.2509  1.1631
  132OSM   C14S14265   5.208   1.746   7.156 -0.0213  0.1626  0.1463
  132OSM   H14S14266   5.287   1.681   7.199  0.3567 -0.3089 -1.2424
  132OSM   H14T14267   5.122   1.678   7.137  2.1557 -1.9439 -2.3587
  132OSM   C15S14268   5.180   1.848   7.269  0.1018 -0.7401 -0.5331
  132OSM   H15S14269   5.100   1.923   7.254 -1.4682 -2.4576 -0.9110
  132OSM   H15T14270   5.276   1.898   7.292 -0.2397 -1.6149  3.1835
  132OSM   C16S14271   5.143   1.773   7.403 -0.4174 -0.9816 -0.0042
  132OSM   H16S14272   5.224   1.702   7.430  1.1550  0.3661 -1.1023
  132OSM   H16T14273   5.061   1.698   7.393  0.1649 -1.7757  1.0553
  132OSM   C17S14274   5.090   1.875   7.509 -0.2847  0.2977 -0.2371
  132OSM   H17S14275   4.989   1.914   7.485 -0.7499 -1.1897 -0.7355
  132OSM   H17T14276   5.155   1.965   7.507 -2.9765  2.2874 -0.6190
  132OSM   C18S14277   5.092   1.818   7.645 -0.3845 -0.2114  0.4276
  132OSM   H18S14278   5.034   1.724   7.654 -1.0411  0.3903  2.7817
  132OSM   H18T14279   5.049   1.889   7.718  0.9608  1.9734 -0.8430
  132OSM   H18U14280   5.193   1.797   7.688  1.6565  3.3705 -2.3718
  132OSM    C1F14281   4.577   1.047   6.210 -0.3617 -0.3867  0.2589
  132OSM     OF14282   4.668   0.978   6.160  0.0887  0.8959  0.1763
  132OSM    C2F14283   4.477   0.975   6.297 -0.3132  0.0406 -0.1432
  132OSM    H2F14284   4.481   0.869   6.264  0.5696  0.6527 -2.0592
  132OSM    H2G14285   4.377   1.016   6.272 -0.3877 -0.0469  0.0134
  132OSM    C3F14286   4.495   1.000   6.447  0.7808  0.3112  0.0699
  132OSM    H3F14287   4.490   1.108   6.470 -0.3037  0.0109  1.3062
  132OSM    H3G14288   4.598   0.968   6.477  0.7309 -0.2707 -0.3663
  132OSM    C4F14289   4.401   0.941   6.549  0.3186  0.4099  0.0463
  132OSM    H4F14290   4.415   0.831   6.539  0.7141  0.4126  0.5411
  132OSM    H4G14291   4.296   0.970   6.529 -0.0960 -2.0446 -1.5849
  132OSM    C5F14292   4.430   0.982   6.695  0.2549  0.0356 -0.5277
  132OSM    H5F14293   4.407   1.091   6.698  1.9794  0.4123 -0.5254
  132OSM    H5G14294   4.538   0.979   6.720  0.4250  1.3147 -1.0364
  132OSM    C6F14295   4.349   0.898   6.803  0.4798  0.0122 -0.7695
  132OSM    H6F14296   4.247   0.880   6.762 -0.0181  1.6847 -0.3063
  132OSM    H6G14297   4.345   0.970   6.887  1.1916 -1.0906  0.2186
  132OSM    C7F14298   4.428   0.773   6.850 -0.6413 -0.4420 -0.0658
  132OSM    H7F14299   4.528   0.788   6.805 -0.0914 -0.1003  1.2628
  132OSM    H7G14300   4.375   0.696   6.790 -1.4920  0.2291 -0.1962
  132OSM    C8F14301   4.435   0.749   6.996  0.2409 -0.3332 -0.4011
  132OSM    H8F14302   4.516   0.813   7.036 -0.6233  1.2315 -1.1130
  132OSM    H8G14303   4.472   0.647   7.021  1.1078  0.1925  0.4729
  132OSM    C9F14304   4.303   0.770   7.066 -0.0216  1.0746  0.2798
  132OSM    H9F14305   4.220   0.720   7.015  0.3647  0.2799  0.4186
  132OSM   C10F14306   4.286   0.844   7.178  0.7275 -0.2865  0.1617
  132OSM   H10F14307   4.185   0.857   7.221  1.2771  2.2415  0.7263
  132OSM   C11F14308   4.386   0.917   7.264 -0.5604  0.5928 -0.1384
  132OSM   H11F14309   4.334   0.978   7.341 -2.0070 -1.3087  0.4247
  132OSM   H11G14310   4.443   0.987   7.199  1.4047 -0.2151  0.6689
  132OSM   C12F14311   4.478   0.827   7.337  0.2408  1.0202  0.3931
  132OSM   H12F14312   4.523   0.753   7.267 -2.8445  1.0427 -1.6735
  132OSM   H12G14313   4.412   0.762   7.398 -1.0424  2.9208  1.0582
  132OSM   C13F14314   4.583   0.901   7.416  0.5668 -0.1813  0.0219
  132OSM   H13F14315   4.529   0.984   7.468 -0.2643 -1.0873  0.6430
  132OSM   H13G14316   4.661   0.937   7.346 -0.0824  0.9879 -0.1212
  132OSM   C14F14317   4.673   0.834   7.522 -0.0556 -0.5041  0.3825
  132OSM   H14F14318   4.702   0.734   7.483  0.2701 -0.5219  0.6672
  132OSM   H14G14319   4.602   0.809   7.604 -1.2114 -0.3601 -0.5518
  132OSM   C15F14320   4.789   0.917   7.566 -0.0665 -0.3148 -0.2165
  132OSM   H15F14321   4.754   1.014   7.606 -0.6114 -0.4115 -0.4561
  132OSM   H15G14322   4.874   0.937   7.497 -0.4280  1.5380 -0.1497
  132OSM   C16F14323   4.860   0.843   7.677 -0.4499  0.4104  0.2218
  132OSM   H16F14324   4.784   0.832   7.757 -2.8403 -2.5284 -2.3223
  132OSM   H16G14325   4.950   0.900   7.708 -0.0366 -0.4570  0.6591
  132OSM   C17F14326   4.910   0.707   7.640  0.5963  0.2934 -0.4864
  132OSM   H17F14327   4.830   0.643   7.598  0.0412  0.6468  0.0247
  132OSM   H17G14328   4.950   0.653   7.728  2.5431  0.1887 -1.3940
  132OSM   C18F14329   5.028   0.713   7.541  0.3215 -0.5354  0.2146
  132OSM   H18F14330   5.064   0.610   7.524  3.4441  0.6158 -0.3647
  132OSM   H18G14331   5.112   0.774   7.581 -2.7118  2.3159  2.6152
  132OSM   H18H14332   4.998   0.756   7.443 -1.0443  0.1742  0.9187
  133OSM      N14333   4.776   1.628   5.482  0.0204  0.3101  0.0334
  133OSM    C1514334   4.861   1.514   5.444 -0.0790  0.5343  0.3805
  133OSM   H15A14335   4.869   1.504   5.337  1.4687 -0.0025  0.5409
  133OSM   H15B14336   4.821   1.420   5.478  0.8330  0.5411  1.4562
  133OSM   H15C14337   4.958   1.511   5.489 -0.4367 -2.9162  1.0633
  133OSM    C1414338   4.818   1.751   5.402  0.6919 -0.0333 -0.0888
  133OSM   H14A14339   4.797   1.736   5.297 -0.8672  0.1338  0.1835
  133OSM   H14B14340   4.921   1.779   5.419  0.8738  0.0771 -1.3161
  133OSM   H14C14341   4.745   1.825   5.430  0.7232  1.2594 -3.1937
  133OSM    C1314342   4.634   1.594   5.471 -0.0947 -0.4418 -0.4266
  133OSM   H13A14343   4.602   1.571   5.371  1.4839 -0.4799 -0.9339
  133OSM   H13B14344   4.559   1.668   5.497 -1.4212 -2.0972  0.6320
  133OSM   H13C14345   4.600   1.519   5.541  0.3991 -1.1534 -0.9435
  133OSM    C1214346   4.802   1.665   5.627 -0.2930  0.1094 -0.8656
  133OSM   H12A14347   4.780   1.584   5.695 -1.7860  2.6149  1.7243
  133OSM   H12B14348   4.727   1.736   5.657 -0.0234 -0.4297  1.1204
  133OSM    C1114349   4.949   1.725   5.655 -0.2349 -0.1203 -0.2894
  133OSM   H11A14350   4.948   1.733   5.766  3.5656  3.3709 -0.3547
  133OSM   H11B14351   4.955   1.829   5.616  0.1106 -0.0754 -0.1294
  133OSM      P14352   5.197   1.682   5.609  0.0582 -0.1042  0.0044
  133OSM    O1314353   5.273   1.552   5.615  0.0731  0.7340  0.2425
  133OSM    O1414354   5.220   1.759   5.485  0.0705 -0.0274 -0.2879
  133OSM    O1114355   5.231   1.768   5.736 -0.3166  0.2726 -0.3188
  133OSM    O1214356   5.050   1.633   5.614 -0.0560 -0.1507 -1.2332
  133OSM    C1S14357   5.320   1.880   5.732  0.5847  0.6804  0.1038
  133OSM    H1S14358   5.286   1.948   5.651  0.8231  0.7833  0.0904
  133OSM    H1T14359   5.425   1.865   5.701 -0.1166 -0.9194 -1.6241
  133OSM     NF14360   5.338   1.870   5.980 -0.0559  0.1653 -0.3506
  133OSM    HNF14361   5.259   1.839   6.033 -0.6694  0.0280 -1.3231
  133OSM    C2S14362   5.312   1.955   5.865 -0.1313 -0.6327  0.2848
  133OSM    H2S14363   5.390   2.035   5.868 -0.4679 -0.2017 -1.9006
  133OSM    C3S14364   5.177   2.033   5.883 -0.1924  0.3132  0.3459
  133OSM    H3S14365   5.095   1.963   5.910 -0.2713 -0.8411 -2.7068
  133OSM     O314366   5.130   2.099   5.766 -0.1594 -0.2475 -0.3106
  133OSM    HO314367   5.206   2.104   5.707  1.1657  1.7818  1.4865
  133OSM    C4S14368   5.193   2.124   5.994  0.2200 -0.1523 -0.8092
  133OSM    H4S14369   5.163   2.074   6.087 -1.1421 -2.9424 -2.6920
  133OSM    C5S14370   5.234   2.255   6.006 -0.1760  0.0393  0.8021
  133OSM    H5S14371   5.286   2.306   5.923  0.5096 -1.4537  0.2905
  133OSM    C6S14372   5.236   2.334   6.135 -0.2580  0.3685  0.3881
  133OSM    H6S14373   5.141   2.391   6.140  1.1340  2.5892  2.1084
  133OSM    H6T14374   5.321   2.404   6.142  0.7926 -0.5740 -2.4728
  133OSM    C7S14375   5.220   2.243   6.259  0.1582  0.5536 -0.0801
  133OSM    H7S14376   5.131   2.176   6.266 -0.3209  1.0727 -1.1325
  133OSM    H7T14377   5.215   2.313   6.345 -0.5439  0.4300 -0.0140
  133OSM    C8S14378   5.335   2.148   6.300  0.4303  0.0074  0.3760
  133OSM    H8S14379   5.426   2.197   6.259  1.4391 -1.1109  1.2452
  133OSM    H8T14380   5.319   2.046   6.259  2.8796 -0.3429  0.1833
  133OSM    C9S14381   5.337   2.134   6.453  0.4562 -0.4651  0.3701
  133OSM    H9S14382   5.350   2.235   6.498 -0.7452 -0.4619  0.7179
  133OSM    H9T14383   5.432   2.081   6.474  0.2110 -1.1811 -0.2721
  133OSM   C10S14384   5.228   2.056   6.519 -0.1956  0.3695  0.1608
  133OSM   H10S14385   5.232   1.952   6.481  0.8152  0.8512 -1.1199
  133OSM   H10T14386   5.134   2.107   6.489 -0.5884 -0.6744 -0.3802
  133OSM   C11S14387   5.247   2.045   6.673 -0.2262 -0.5524  0.3786
  133OSM   H11S14388   5.328   1.974   6.698 -0.0411 -0.5728 -0.2593
  133OSM   H11T14389   5.152   2.002   6.712 -1.0304  0.7754 -0.0901
  133OSM   C12S14390   5.273   2.181   6.741 -0.0493  0.5633 -0.5725
  133OSM   H12S14391   5.193   2.251   6.712  0.7228  1.5183 -0.4222
  133OSM   H12T14392   5.373   2.222   6.716  0.2994  0.4153  0.5159
  133OSM   C13S14393   5.276   2.159   6.894 -0.0114  0.3024  0.1116
  133OSM   H13S14394   5.361   2.098   6.930 -1.1306 -1.1102  0.4284
  133OSM   H13T14395   5.179   2.108   6.916 -0.2136  0.7659  0.3265
  133OSM   C14S14396   5.263   2.291   6.972  0.6662  0.0756  0.0713
  133OSM   H14S14397   5.181   2.355   6.932  1.6441  1.8803  0.9058
  133OSM   H14T14398   5.358   2.347   6.961  1.0969 -0.7215 -0.2589
  133OSM   C15S14399   5.239   2.258   7.118  0.6858 -0.4197  0.6140
  133OSM   H15S14400   5.331   2.221   7.168  1.7442 -0.5917 -1.3854
  133OSM   H15T14401   5.157   2.183   7.125  1.3212 -1.4562 -2.1966
  133OSM   C16S14402   5.195   2.381   7.202  0.1429 -0.5332  0.3040
  133OSM   H16S14403   5.117   2.437   7.146 -0.8556 -1.1823  1.0289
  133OSM   H16T14404   5.284   2.442   7.225  0.0485 -1.1720  2.4317
  133OSM   C17S14405   5.152   2.350   7.344 -0.3811 -0.4513  0.6039
  133OSM   H17S14406   5.061   2.287   7.330 -0.6706  0.4706 -1.8605
  133OSM   H17T14407   5.115   2.439   7.399 -0.7208 -0.0209 -0.3153
  133OSM   C18S14408   5.246   2.272   7.427  0.0610  0.2609 -0.6986
  133OSM   H18S14409   5.202   2.271   7.529  0.9943  2.6298 -0.2487
  133OSM   H18T14410   5.342   2.322   7.454 -0.6851  1.4664 -0.2525
  133OSM   H18U14411   5.257   2.167   7.394 -0.9988  0.3286 -1.3112
  133OSM    C1F14412   5.462   1.826   5.997  0.1309  0.6822 -0.2378
  133OSM     OF14413   5.549   1.855   5.919  0.0696 -1.2284 -0.1056
  133OSM    C2F14414   5.490   1.733   6.112 -0.7175 -0.0396 -0.2753
  133OSM    H2F14415   5.513   1.629   6.078  1.7862 -0.1204  1.5179
  133OSM    H2G14416   5.397   1.727   6.172 -0.6918  1.5325 -0.0567
  133OSM    C3F14417   5.605   1.796   6.190 -0.5313 -0.1992 -0.3503
  133OSM    H3F14418   5.553   1.871   6.255  0.3463  0.1707 -0.0743
  133OSM    H3G14419   5.677   1.849   6.124 -1.2949  1.7020  0.2908
  133OSM    C4F14420   5.676   1.691   6.264  0.0197  0.1136 -0.3579
  133OSM    H4F14421   5.752   1.634   6.207 -2.2110 -1.6728 -1.6471
  133OSM    H4G14422   5.607   1.614   6.306  0.5990  0.2203  0.8230
  133OSM    C5F14423   5.755   1.753   6.377 -0.0875 -0.2336 -0.3776
  133OSM    H5F14424   5.687   1.828   6.423  0.2407 -0.5923  0.7217
  133OSM    H5G14425   5.849   1.801   6.342  0.0628  0.7086  1.2808
  133OSM    C6F14426   5.795   1.630   6.473 -0.7423  0.3106  0.2163
  133OSM    H6F14427   5.834   1.549   6.408 -1.0516  1.2186 -1.1244
  133OSM    H6G14428   5.698   1.606   6.523 -1.6222  1.4460 -0.8965
  133OSM    C7F14429   5.905   1.672   6.568 -0.0713  0.5926  0.8383
  133OSM    H7F14430   5.933   1.777   6.547  0.7805  0.5637  1.8176
  133OSM    H7G14431   5.998   1.615   6.546 -1.0910 -0.4763 -0.9343
  133OSM    C8F14432   5.865   1.654   6.710  0.0428 -0.4343 -0.6736
  133OSM    H8F14433   5.960   1.657   6.768  0.4080  0.4167 -1.2986
  133OSM    H8G14434   5.812   1.559   6.728  0.2129 -0.4073 -0.0219
  133OSM    C9F14435   5.779   1.765   6.757 -0.7241 -0.7964  0.0497
  133OSM    H9F14436   5.777   1.855   6.694 -0.3139  0.6370  2.0471
  133OSM   C10F14437   5.693   1.759   6.862 -0.3978  0.4532  0.6273
  133OSM   H10F14438   5.640   1.854   6.880  1.8463  1.3702  2.6307
  133OSM   C11F14439   5.664   1.654   6.964  0.7229 -0.7079 -0.3710
  133OSM   H11F14440   5.744   1.578   6.977  1.7510  0.4823  0.3871
  133OSM   H11G14441   5.574   1.593   6.938 -1.1247  2.6986 -2.2010
  133OSM   C12F14442   5.644   1.715   7.102  0.4278 -0.1431  0.5918
  133OSM   H12F14443   5.583   1.808   7.095  2.3615  1.1548  0.5409
  133OSM   H12G14444   5.746   1.750   7.131  0.4926  0.1923 -0.0254
  133OSM   C13F14445   5.575   1.625   7.203  0.4350  0.6250  0.0403
  133OSM   H13F14446   5.626   1.527   7.220  0.3347  0.8421  1.6249
  133OSM   H13G14447   5.470   1.606   7.173  0.4198  0.3091  0.2936
  133OSM   C14F14448   5.578   1.685   7.343 -0.1983 -0.3710  0.1615
  133OSM   H14F14449   5.515   1.776   7.340 -1.4887 -1.2754 -1.3184
  133OSM   H14G14450   5.680   1.715   7.373 -1.8549  0.7800  4.9975
  133OSM   C15F14451   5.511   1.611   7.460 -0.6668  0.6636  0.2013
  133OSM   H15F14452   5.551   1.509   7.481  0.3793  1.1386  0.5366
  133OSM   H15G14453   5.402   1.594   7.444 -0.8121  2.9216 -1.4255
  133OSM   C16F14454   5.524   1.681   7.594 -0.5610  0.4326 -0.7515
  133OSM   H16F14455   5.472   1.778   7.606  1.1203  1.1197  1.2518
  133OSM   H16G14456   5.628   1.709   7.620 -0.1732 -1.9181  0.3347
  133OSM   C17F14457   5.493   1.591   7.713  0.1473  0.5895  0.3231
  133OSM   H17F14458   5.573   1.514   7.713 -0.9821 -0.5983 -1.1157
  133OSM   H17G14459   5.395   1.538   7.709  1.9256 -2.7404 -0.5088
  133OSM   C18F14460   5.505   1.662   7.846 -0.3315  0.1321 -0.7210
  133OSM   H18F14461   5.419   1.730   7.863  0.6153  1.4056 -0.9437
  133OSM   H18G14462   5.595   1.727   7.856  0.9047 -1.8859  2.2386
  133OSM   H18H14463   5.499   1.594   7.934 -0.5005 -0.9378 -1.5652
  134OSM      N14464   6.312   5.144   5.783 -0.3532 -0.3716 -0.3474
  134OSM    C1514465   6.293   5.225   5.668 -0.1488 -0.1030  0.3782
  134OSM   H15A14466   6.259   5.321   5.705 -0.7907 -0.1059 -0.1928
  134OSM   H15B14467   6.216   5.198   5.597  0.0832 -1.5805  0.6795
  134OSM   H15C14468   6.386   5.253   5.621  0.4610  0.7938  2.0809
  134OSM    C1414469   6.384   5.223   5.882  0.5633  0.3552 -0.1207
  134OSM   H14A14470   6.416   5.176   5.974  1.2999 -0.8264 -0.9730
  134OSM   H14B14471   6.336   5.318   5.899 -0.5033 -0.2113  0.0491
  134OSM   H14C14472   6.471   5.256   5.827 -0.4820  1.6031 -1.0591
  134OSM    C1314473   6.175   5.113   5.846  0.4961 -0.0028 -0.6320
  134OSM   H13A14474   6.144   5.197   5.908  0.9062 -1.3033  1.3915
  134OSM   H13B14475   6.191   5.045   5.928 -0.7309  2.7547  2.0025
  134OSM   H13C14476   6.098   5.078   5.779  1.8009 -2.0683 -1.0765
  134OSM    C1214477   6.377   5.011   5.744 -0.7354  0.9871  0.2323
  134OSM   H12A14478   6.475   5.033   5.705  0.6204  0.2920  3.1586
  134OSM   H12B14479   6.318   4.967   5.665  0.9000  0.6264 -0.8118
  134OSM    C1114480   6.398   4.908   5.858 -0.0049 -0.3195 -0.3350
  134OSM   H11A14481   6.454   4.953   5.943  1.3771  1.1572 -2.0108
  134OSM   H11B14482   6.461   4.825   5.821 -1.0248 -0.4547 -1.8076
  134OSM      P14483   6.208   4.734   5.811  0.1543  0.0544  0.0749
  134OSM    O1314484   6.161   4.788   5.681 -0.3852 -0.2501  0.2689
  134OSM    O1414485   6.314   4.633   5.798  0.0471  0.1924  0.4205
  134OSM    O1114486   6.083   4.664   5.887  0.0432 -0.1784  0.2446
  134OSM    O1214487   6.269   4.855   5.899  0.3800  0.1768  0.4581
  134OSM    C1S14488   6.002   4.727   5.989 -0.1082  0.9094  0.7287
  134OSM    H1S14489   5.902   4.682   5.970  0.5435 -0.5982  0.7738
  134OSM    H1T14490   6.007   4.838   5.984 -0.5552  0.9831  1.8826
  134OSM     NF14491   6.148   4.735   6.175  0.2736 -0.0344 -0.6557
  134OSM    HNF14492   6.240   4.700   6.156  0.4754  0.8749 -1.3962
  134OSM    C2S14493   6.036   4.664   6.134 -0.5699  0.9668  0.8485
  134OSM    H2S14494   5.960   4.695   6.210 -1.1952  0.3569  0.4766
  134OSM    C3S14495   6.048   4.506   6.119 -0.3965  0.7937  0.3749
  134OSM    H3S14496   6.143   4.483   6.066 -1.2955 -1.2020 -0.3888
  134OSM     O314497   5.930   4.451   6.066  0.5624  0.1769  0.8364
  134OSM    HO314498   5.879   4.526   6.035 -0.6351 -0.6287  0.8182
  134OSM    C4S14499   6.068   4.454   6.259  0.4371  0.0648  0.0281
  134OSM    H4S14500   6.173   4.452   6.293  0.8920  0.3082 -1.3514
  134OSM    C5S14501   5.978   4.429   6.358  0.0268 -0.4032 -0.0342
  134OSM    H5S14502   5.872   4.448   6.334  0.2028  0.7840  0.1234
  134OSM    C6S14503   6.017   4.392   6.498 -0.4857 -0.3165 -0.6411
  134OSM    H6S14504   6.125   4.416   6.505 -1.0681  2.5031 -1.0092
  134OSM    H6T14505   6.004   4.282   6.507  0.5882 -0.3398  0.9224
  134OSM    C7S14506   5.956   4.468   6.613  0.3661 -0.2366  0.6785
  134OSM    H7S14507   5.846   4.457   6.615  0.2470  1.0347  1.1791
  134OSM    H7T14508   5.967   4.577   6.593  0.8918 -0.8525 -2.6638
  134OSM    C8S14509   6.018   4.438   6.748 -0.8199  0.7902 -0.5587
  134OSM    H8S14510   6.112   4.497   6.746 -0.2309 -0.1613 -1.3941
  134OSM    H8T14511   6.056   4.333   6.745  1.0337  1.4276  0.3226
  134OSM    C9S14512   5.932   4.456   6.872  0.8370 -0.1105 -0.1113
  134OSM    H9S14513   5.835   4.404   6.858  0.3710 -0.3092  3.4171
  134OSM    H9T14514   5.913   4.565   6.881  0.6457 -0.1290 -0.2984
  134OSM   C10S14515   6.005   4.410   7.001 -0.3057  0.6251  0.4724
  134OSM   H10S14516   6.102   4.463   6.995  0.5837 -0.8219  1.9842
  134OSM   H10T14517   6.023   4.302   6.982 -0.8257  0.5275  0.5228
  134OSM   C11S14518   5.936   4.450   7.131  0.9606  0.5297 -0.6048
  134OSM   H11S14519   5.833   4.407   7.136  1.9982 -1.9993  0.3934
  134OSM   H11T14520   5.931   4.560   7.141 -4.2092  0.4438 -0.8576
  134OSM   C12S14521   6.021   4.398   7.254 -0.1364 -0.3761  0.3943
  134OSM   H12S14522   6.120   4.442   7.228  0.1596 -0.4769  1.2987
  134OSM   H12T14523   6.032   4.287   7.259  0.8583 -0.2105  2.5177
  134OSM   C13S14524   5.955   4.459   7.388  1.0820 -0.0492 -0.2788
  134OSM   H13S14525   5.849   4.427   7.396  1.0749 -0.0083 -0.2114
  134OSM   H13T14526   5.948   4.570   7.386 -3.0630 -0.2487 -1.3071
  134OSM   C14S14527   6.014   4.412   7.516  0.3089  0.1277  0.1969
  134OSM   H14S14528   6.122   4.439   7.521  0.5481 -0.5715 -0.9535
  134OSM   H14T14529   6.010   4.301   7.518  1.5825  0.0844  0.5781
  134OSM   C15S14530   5.933   4.462   7.630  0.0986 -0.0341  0.1010
  134OSM   H15S14531   5.828   4.435   7.604  0.3825 -0.1108 -0.9891
  134OSM   H15T14532   5.939   4.573   7.638  1.1773 -0.2092  2.1149
  134OSM   C16S14533   5.981   4.387   7.757 -0.8853 -0.4851 -0.5948
  134OSM   H16S14534   6.088   4.409   7.777 -0.2702 -2.4012 -1.6485
  134OSM   H16T14535   5.981   4.276   7.752 -2.3539 -0.5634  0.6076
  134OSM   C17S14536   5.891   4.433   7.872 -0.5932 -0.5750  0.2766
  134OSM   H17S14537   5.904   4.544   7.876 -0.9775 -0.5453  0.9217
  134OSM   H17T14538   5.912   4.381   7.968 -0.0105  0.1673  0.5558
  134OSM   C18S14539   5.743   4.399   7.856  0.1662  0.0445 -0.3970
  134OSM   H18S14540   5.759   4.291   7.874  0.3288 -0.0477 -1.0642
  134OSM   H18T14541   5.690   4.403   7.759 -2.3029  0.6312  0.9513
  134OSM   H18U14542   5.687   4.450   7.937  0.3831 -0.9475  0.3859
  134OSM    C1F14543   6.150   4.857   6.241 -0.6852 -0.2880 -0.7175
  134OSM     OF14544   6.047   4.917   6.250  0.4818 -0.4121  0.0952
  134OSM    C2F14545   6.281   4.914   6.302  0.4659 -0.3054 -0.7888
  134OSM    H2F14546   6.298   5.015   6.259  1.3976 -1.0942 -2.2815
  134OSM    H2G14547   6.371   4.851   6.287  0.6521  0.0041 -0.9936
  134OSM    C3F14548   6.255   4.924   6.455 -0.3869 -0.5599 -0.0895
  134OSM    H3F14549   6.160   4.978   6.475  0.8264  2.0972 -1.1988
  134OSM    H3G14550   6.338   4.988   6.492  0.1207 -1.6578  0.6658
  134OSM    C4F14551   6.247   4.796   6.537  0.5367 -0.2551 -0.1632
  134OSM    H4F14552   6.330   4.732   6.501  1.5266  0.4101  0.9179
  134OSM    H4G14553   6.161   4.731   6.511  2.1964 -2.1949 -0.9299
  134OSM    C5F14554   6.248   4.821   6.691  0.3537 -0.3992 -0.2878
  134OSM    H5F14555   6.337   4.886   6.705  0.7784 -1.3057  1.3365
  134OSM    H5G14556   6.272   4.723   6.739  2.1933 -0.6588 -1.6409
  134OSM    C6F14557   6.127   4.882   6.737  0.2288  0.1651  0.3081
  134OSM    H6F14558   6.041   4.818   6.710  1.3671 -1.7366  1.0502
  134OSM    H6G14559   6.098   4.981   6.697 -1.7994  0.0109  1.3301
  134OSM    C7F14560   6.139   4.917   6.888 -0.0003 -0.7245  0.0184
  134OSM    H7F14561   6.034   4.925   6.923 -0.5918 -0.3113 -1.8324
  134OSM    H7G14562   6.177   5.019   6.911 -0.0225 -1.3258  2.9306
  134OSM    C8F14563   6.185   4.802   6.979 -0.5158  0.1176  0.6381
  134OSM    H8F14564   6.291   4.782   6.953  0.5169  2.1244  3.1186
  134OSM    H8G14565   6.125   4.711   6.958 -2.3965  1.9177 -2.2914
  134OSM    C9F14566   6.170   4.833   7.126 -0.6249  0.1258  0.4278
  134OSM    H9F14567   6.095   4.904   7.164 -0.7322  0.8741 -1.1584
  134OSM   C10F14568   6.261   4.779   7.219 -0.1295 -0.7751  0.3358
  134OSM   H10F14569   6.266   4.840   7.310  3.1077 -2.1864  1.1610
  134OSM   C11F14570   6.389   4.692   7.186  0.3003 -0.0428 -1.7513
  134OSM   H11F14571   6.402   4.673   7.078 -0.7686 -0.9513 -1.7357
  134OSM   H11G14572   6.376   4.595   7.239 -0.9273 -0.1653 -2.2409
  134OSM   C12F14573   6.513   4.758   7.247 -0.7323 -0.0862  0.5658
  134OSM   H12F14574   6.518   4.766   7.357 -2.7241  1.0511  0.6104
  134OSM   H12G14575   6.518   4.860   7.202  1.9776 -0.3587  0.1916
  134OSM   C13F14576   6.642   4.672   7.206  0.1524  0.4937 -0.4833
  134OSM   H13F14577   6.628   4.571   7.250  0.6847  1.0689  1.0326
  134OSM   H13G14578   6.724   4.722   7.262  1.1232 -0.0342 -1.4298
  134OSM   C14F14579   6.670   4.667   7.054  0.4247  0.4876  0.5548
  134OSM   H14F14580   6.606   4.592   7.002  0.8686 -0.2755  1.1041
  134OSM   H14G14581   6.772   4.625   7.041  0.2517 -0.2625  1.6333
  134OSM   C15F14582   6.666   4.792   6.975  0.5395 -0.8501  0.6735
  134OSM   H15F14583   6.737   4.868   7.015  0.7209 -0.9317  0.5089
  134OSM   H15G14584   6.569   4.846   6.964  1.3292  0.3697 -0.4417
  134OSM   C16F14585   6.716   4.762   6.833 -0.0027 -0.0658  0.2942
  134OSM   H16F14586   6.728   4.653   6.814 -1.1365  0.0835 -1.3854
  134OSM   H16G14587   6.811   4.813   6.810  1.7245 -2.3857  2.0205
  134OSM   C17F14588   6.607   4.811   6.749  0.4095 -0.4031  0.1665
  134OSM   H17F14589   6.599   4.920   6.771  0.7435 -0.6826  1.7020
  134OSM   H17G14590   6.507   4.766   6.765  0.7366 -0.7983  1.1102
  134OSM   C18F14591   6.628   4.804   6.602 -0.6284  0.2559  0.3054
  134OSM   H18F14592   6.661   4.701   6.574 -3.5771 -0.3276 -1.2538
  134OSM   H18G14593   6.722   4.860   6.583 -0.6355  0.4983  0.9732
  134OSM   H18H14594   6.538   4.825   6.540  0.7402  2.5052 -0.9851
  135OSM      N14595   5.626   5.219   5.475 -0.0092 -0.2762 -0.6375
  135OSM    C1514596   5.505   5.266   5.551 -0.6768  0.2738 -0.1708
  135OSM   H15A14597   5.491   5.208   5.641 -0.8065 -0.2259 -0.5094
  135OSM   H15B14598   5.420   5.263   5.484 -1.4186  2.7006  0.5968
  135OSM   H15C14599   5.520   5.369   5.582 -2.3987  0.5871 -0.3445
  135OSM    C1414600   5.603   5.076   5.436  0.3477  0.0932 -0.5106
  135OSM   H14A14601   5.699   5.039   5.402 -0.3944 -2.9986  0.5700
  135OSM   H14B14602   5.533   5.058   5.356  1.0180  2.2862 -1.6193
  135OSM   H14C14603   5.587   5.004   5.515  3.3760  1.6701  1.6648
  135OSM    C1314604   5.655   5.309   5.358  0.7833  1.0005  0.1074
  135OSM   H13A14605   5.730   5.252   5.305  0.4398 -0.3580  1.0692
  135OSM   H13B14606   5.691   5.406   5.388  1.2617 -0.0138  3.0192
  135OSM   H13C14607   5.563   5.322   5.304  0.8548 -0.2072 -0.3298
  135OSM    C1214608   5.745   5.222   5.565 -0.1950  0.2150 -0.2919
  135OSM   H12A14609   5.829   5.188   5.507  0.6761 -0.6580  1.4321
  135OSM   H12B14610   5.731   5.146   5.640 -1.0140 -0.1509 -0.8123
  135OSM    C1114611   5.789   5.352   5.643  0.4098  0.5615 -0.2672
  135OSM   H11A14612   5.892   5.329   5.679 -0.0608  0.1224  0.8223
  135OSM   H11B14613   5.728   5.372   5.734  0.1956  0.2443 -0.3425
  135OSM      P14614   5.763   5.604   5.592 -0.2982 -0.3187  0.1008
  135OSM    O1314615   5.770   5.700   5.474 -0.0137  0.9854  0.3383
  135OSM    O1414616   5.641   5.614   5.669 -0.7252 -0.0851 -0.3924
  135OSM    O1114617   5.889   5.636   5.687 -0.3586 -1.0040  0.2853
  135OSM    O1214618   5.794   5.458   5.548 -0.3637 -0.1274 -0.9300
  135OSM    C1S14619   5.883   5.658   5.829  0.5936 -0.1770  0.6571
  135OSM    H1S14620   5.887   5.569   5.894 -0.3934  0.0798  1.0680
  135OSM    H1T14621   5.780   5.694   5.847  0.3003 -0.9375  0.5051
  135OSM     NF14622   5.966   5.785   6.022 -0.3486 -0.3846 -0.1501
  135OSM    HNF14623   5.918   5.867   6.052 -1.6171 -0.9871 -0.4621
  135OSM    C2S14624   5.985   5.764   5.877 -0.4637 -0.0683  0.0523
  135OSM    H2S14625   6.087   5.722   5.861  1.1475  3.5567  0.2811
  135OSM    C3S14626   5.985   5.889   5.782 -0.2036 -0.8967  0.7432
  135OSM    H3S14627   5.880   5.922   5.768  0.4402 -0.3540 -3.3880
  135OSM     O314628   6.039   5.854   5.655 -0.0061 -0.4269 -0.6344
  135OSM    HO314629   6.027   5.760   5.641  2.0086 -0.9764  1.0300
  135OSM    C4S14630   6.066   6.002   5.848 -0.0420 -0.2361 -0.0919
  135OSM    H4S14631   6.010   6.076   5.907  0.4864  1.6049 -1.8434
  135OSM    C5S14632   6.199   6.014   5.854 -0.5355  0.0456  0.4065
  135OSM    H5S14633   6.252   5.943   5.789 -1.3760  0.3195 -0.6011
  135OSM    C6S14634   6.273   6.124   5.930  0.0977 -0.3066 -0.5550
  135OSM    H6S14635   6.203   6.190   5.986 -0.0798 -0.4006 -0.6649
  135OSM    H6T14636   6.332   6.194   5.867 -0.3886  0.9222  0.3300
  135OSM    C7S14637   6.366   6.053   6.040  0.9708 -0.3746 -0.8440
  135OSM    H7S14638   6.433   6.125   6.090  0.2369 -0.6826  0.5988
  135OSM    H7T14639   6.440   5.981   6.000  2.3245 -0.2980  1.4544
  135OSM    C8S14640   6.283   5.986   6.150  0.3202  0.1312  0.8134
  135OSM    H8S14641   6.208   5.918   6.104  1.1328  1.2245 -2.2321
  135OSM    H8T14642   6.234   6.065   6.211 -0.9883 -2.5460  3.3859
  135OSM    C9S14643   6.379   5.907   6.252  0.4768  0.3908 -0.4904
  135OSM    H9S14644   6.461   5.969   6.294 -0.7983  0.4388  2.0370
  135OSM    H9T14645   6.419   5.827   6.187  0.0651 -1.9452  2.0665
  135OSM   C10S14646   6.301   5.848   6.369 -0.1192 -0.5370 -1.2789
  135OSM   H10S14647   6.350   5.754   6.401 -0.8311  0.0603  1.7789
  135OSM   H10T14648   6.199   5.827   6.331  0.3931 -1.5804 -2.1147
  135OSM   C11S14649   6.297   5.951   6.478 -0.1260  0.0115 -0.1937
  135OSM   H11S14650   6.240   6.039   6.439  0.4975  0.3712 -0.3171
  135OSM   H11T14651   6.400   5.975   6.512  0.1014  0.9289 -1.4842
  135OSM   C12S14652   6.227   5.904   6.611  0.1085  0.2414  0.7517
  135OSM   H12S14653   6.142   5.836   6.589  1.7498 -0.8580 -2.3954
  135OSM   H12T14654   6.191   6.001   6.652  1.1829  1.5308 -1.2906
  135OSM   C13S14655   6.317   5.858   6.724 -0.1331 -0.0039 -0.0748
  135OSM   H13S14656   6.410   5.918   6.732  1.5118 -2.4125 -0.6529
  135OSM   H13T14657   6.347   5.752   6.708  0.2124  0.2930 -1.4663
  135OSM   C14S14658   6.247   5.878   6.862  0.3656 -0.1248 -0.4782
  135OSM   H14S14659   6.145   5.834   6.861  0.3397 -0.0652 -0.3380
  135OSM   H14T14660   6.239   5.987   6.883  0.5915 -0.5585  1.8963
  135OSM   C15S14661   6.322   5.813   6.974 -0.1007  0.3537  0.6822
  135OSM   H15S14662   6.415   5.872   6.984  0.1843  0.0364 -0.0384
  135OSM   H15T14663   6.365   5.723   6.924 -2.7632 -0.0897 -0.9177
  135OSM   C16S14664   6.248   5.807   7.106  0.3194  0.5004  0.8879
  135OSM   H16S14665   6.166   5.732   7.110  1.4158 -0.6780  1.5917
  135OSM   H16T14666   6.202   5.907   7.121 -2.2936 -0.6799  1.1279
  135OSM   C17S14667   6.341   5.786   7.220 -0.8061 -0.5471 -0.1238
  135OSM   H17S14668   6.286   5.790   7.317  0.5543 -1.6929  0.7216
  135OSM   H17T14669   6.425   5.858   7.226  0.3765 -1.7843 -1.6577
  135OSM   C18S14670   6.396   5.637   7.217  0.3393 -0.0498  0.3231
  135OSM   H18S14671   6.308   5.580   7.180  0.5983  0.7968 -1.6794
  135OSM   H18T14672   6.438   5.599   7.312  1.2641 -0.2946 -0.1816
  135OSM   H18U14673   6.482   5.641   7.147  0.3621  0.9402  0.4060
  135OSM    C1F14674   5.990   5.694   6.117 -0.1130 -0.6651 -0.0716
  135OSM     OF14675   6.049   5.595   6.094 -0.1795 -0.6388  0.0552
  135OSM    C2F14676   5.940   5.728   6.257  0.4869  0.3905 -0.0082
  135OSM    H2F14677   6.026   5.702   6.323  0.9328 -0.1286 -0.7840
  135OSM    H2G14678   5.844   5.676   6.277 -0.8881  2.4888 -0.9621
  135OSM    C3F14679   5.897   5.875   6.276 -0.3343 -0.1952 -0.2534
  135OSM    H3F14680   5.800   5.898   6.227 -0.4724  1.1368  0.6303
  135OSM    H3G14681   5.981   5.937   6.237  0.4688 -0.2897  1.2800
  135OSM    C4F14682   5.866   5.908   6.428 -0.0649 -0.3779 -0.4455
  135OSM    H4F14683   5.827   6.011   6.434  1.3561  0.0909  0.9141
  135OSM    H4G14684   5.954   5.905   6.496 -1.3885  0.1372  1.3298
  135OSM    C5F14685   5.750   5.823   6.490  0.0022 -0.3247 -0.3958
  135OSM    H5F14686   5.760   5.717   6.458  0.9003  0.0128 -1.2587
  135OSM    H5G14687   5.654   5.859   6.448  1.2806  1.1756 -2.0789
  135OSM    C6F14688   5.734   5.825   6.645  0.5557 -0.1920 -0.0239
  135OSM    H6F14689   5.690   5.921   6.682  0.9782 -0.3169  0.8168
  135OSM    H6G14690   5.833   5.790   6.681  1.1313  1.1152 -0.3164
  135OSM    C7F14691   5.643   5.711   6.690  0.3841 -0.4612 -0.1739
  135OSM    H7F14692   5.684   5.613   6.657 -0.4978 -0.4133 -1.4380
  135OSM    H7G14693   5.541   5.720   6.648  0.3265 -0.6181 -0.0644
  135OSM    C8F14694   5.623   5.712   6.845 -0.0797 -0.2258  0.1873
  135OSM    H8F14695   5.517   5.685   6.866 -0.2737  1.2923  1.2307
  135OSM    H8G14696   5.633   5.817   6.881  1.6725 -0.0579 -0.7644
  135OSM    C9F14697   5.716   5.624   6.922  0.2750 -0.2714 -0.6129
  135OSM    H9F14698   5.702   5.515   6.911 -1.9092 -0.0880  0.1923
  135OSM   C10F14699   5.814   5.659   7.009  0.2337 -0.2243 -0.1471
  135OSM   H10F14700   5.854   5.572   7.064 -0.4529 -1.4874 -1.6443
  135OSM   C11F14701   5.867   5.795   7.052 -0.3400 -0.9896  0.7140
  135OSM   H11F14702   5.831   5.882   6.994  2.1498 -0.0983  0.4098
  135OSM   H11G14703   5.975   5.783   7.027 -0.8155 -1.1982 -1.3806
  135OSM   C12F14704   5.866   5.810   7.199  0.4348  0.4192 -0.5669
  135OSM   H12F14705   5.761   5.827   7.230  1.5551  5.9544  0.8119
  135OSM   H12G14706   5.918   5.898   7.244 -1.7704  0.8100  1.3004
  135OSM   C13F14707   5.926   5.698   7.278 -0.5336  1.0605  0.5212
  135OSM   H13F14708   6.014   5.656   7.226 -1.8687  2.0131 -2.6257
  135OSM   H13G14709   5.865   5.609   7.305 -1.0465  0.8211 -1.3130
  135OSM   C14F14710   5.982   5.747   7.412 -0.3312  0.3238  0.5026
  135OSM   H14F14711   5.901   5.788   7.476 -1.8056 -1.2314 -0.3117
  135OSM   H14G14712   6.048   5.833   7.388 -0.4751  0.2450 -0.1973
  135OSM   C15F14713   6.067   5.638   7.475 -0.4892  0.3307  0.0443
  135OSM   H15F14714   6.137   5.591   7.402 -2.8688 -1.2733 -1.2814
  135OSM   H15G14715   6.011   5.547   7.505  0.1777  0.2267  0.9867
  135OSM   C16F14716   6.136   5.675   7.611  1.7808 -0.6673 -0.2049
  135OSM   H16F14717   6.056   5.706   7.682  0.1593 -0.4677 -2.0715
  135OSM   H16G14718   6.205   5.759   7.587 -1.1156  1.7600 -0.4063
  135OSM   C17F14719   6.210   5.559   7.669 -0.1331 -0.3372 -0.2235
  135OSM   H17F14720   6.153   5.464   7.664 -0.0477 -0.4101  0.2448
  135OSM   H17G14721   6.223   5.570   7.778 -2.0580 -0.6910  0.0578
  135OSM   C18F14722   6.346   5.556   7.598  0.5276  0.4804 -0.7474
  135OSM   H18F14723   6.333   5.536   7.489  1.9632 -0.6079 -0.7450
  135OSM   H18G14724   6.397   5.465   7.637 -2.0722  0.4811  2.9213
  135OSM   H18H14725   6.400   5.652   7.613  1.8921 -0.4609  0.5152
  136OSM      N14726   4.129   6.416   5.214  0.1398  0.3909  0.2165
  136OSM    C1514727   4.104   6.345   5.085 -0.6503  0.3326 -0.5097
  136OSM   H15A14728   4.156   6.251   5.086  1.0745  1.2582 -0.1385
  136OSM   H15B14729   4.153   6.394   5.002 -0.2000 -0.4395 -0.7052
  136OSM   H15C14730   4.001   6.318   5.067 -1.1068  0.9591  1.0602
  136OSM    C1414731   4.278   6.440   5.206  0.5014 -0.0659 -0.5361
  136OSM   H14A14732   4.330   6.347   5.222 -2.0375 -0.9517  3.1965
  136OSM   H14B14733   4.312   6.517   5.274 -0.1895 -0.7272  0.5747
  136OSM   H14C14734   4.303   6.478   5.108 -0.8652  1.5633 -0.2604
  136OSM    C1314735   4.066   6.553   5.207 -0.5750  0.4742 -0.0878
  136OSM   H13A14736   3.958   6.546   5.214 -0.3173 -1.7071  2.1620
  136OSM   H13B14737   4.101   6.617   5.127 -1.0037 -1.8386 -2.1847
  136OSM   H13C14738   4.084   6.607   5.300  0.1568  0.4709 -0.2262
  136OSM    C1214739   4.087   6.350   5.341  0.0452 -0.8879  0.5797
  136OSM   H12A14740   4.114   6.245   5.341  0.6973 -0.7190  0.4039
  136OSM   H12B14741   3.979   6.349   5.338  0.0150  1.3131  0.5597
  136OSM    C1114742   4.126   6.404   5.477  0.4204 -0.3755 -0.8148
  136OSM   H11A14743   4.237   6.408   5.478  0.4637 -0.8481 -2.4248
  136OSM   H11B14744   4.092   6.327   5.549  0.6605  1.6827  1.5529
  136OSM      P14745   3.929   6.561   5.552  0.2552 -0.0315  0.1751
  136OSM    O1314746   3.896   6.707   5.553 -0.1664  0.0826  0.3490
  136OSM    O1414747   3.838   6.481   5.471 -0.1459 -0.3237  1.1385
  136OSM    O1114748   3.934   6.490   5.694  0.1475 -0.0480  0.5082
  136OSM    O1214749   4.076   6.536   5.493 -0.1547  0.1748  0.2034
  136OSM    C1S14750   3.963   6.562   5.810  0.0277  0.3509 -0.1285
  136OSM    H1S14751   3.886   6.640   5.827 -0.4597 -0.4386  1.3957
  136OSM    H1T14752   4.067   6.601   5.804 -0.4221  1.3653 -1.6510
  136OSM     NF14753   3.962   6.563   6.052 -0.4461 -0.1456  0.0889
  136OSM    HNF14754   4.048   6.611   6.069  0.2118 -0.8837 -1.0817
  136OSM    C2S14755   3.967   6.474   5.938 -0.2645 -0.1033  0.2542
  136OSM    H2S14756   3.873   6.415   5.932  0.3837 -0.9875 -1.5204
  136OSM    C3S14757   4.088   6.375   5.939  0.4238  0.2264 -0.1263
  136OSM    H3S14758   4.176   6.441   5.950 -2.0794  3.6207  0.3640
  136OSM     O314759   4.100   6.292   5.815  0.5969 -0.4014 -0.4024
  136OSM    HO314760   4.026   6.318   5.759  0.8094  0.6300 -0.2118
  136OSM    C4S14761   4.073   6.275   6.053  0.5195 -0.1661 -0.5041
  136OSM    H4S14762   3.987   6.206   6.049  0.3731  0.0741 -1.9681
  136OSM    C5S14763   4.156   6.272   6.155 -0.9643 -0.7965 -0.4004
  136OSM    H5S14764   4.237   6.347   6.165 -0.3429 -1.9010  3.8340
  136OSM    C6S14765   4.150   6.177   6.276  0.0365 -0.7701 -0.9840
  136OSM    H6S14766   4.243   6.117   6.279 -0.9328 -2.3924 -2.2792
  136OSM    H6T14767   4.068   6.105   6.255  1.0583 -1.3206 -3.2449
  136OSM    C7S14768   4.113   6.255   6.405  0.4488 -0.4657  0.2789
  136OSM    H7S14769   4.018   6.313   6.405  0.4399 -0.4232 -2.0798
  136OSM    H7T14770   4.191   6.329   6.431 -2.6989  2.5551  1.5318
  136OSM    C8S14771   4.099   6.163   6.527  0.1914 -0.3564 -0.2928
  136OSM    H8S14772   4.171   6.079   6.528  0.3513 -0.2194  0.0575
  136OSM    H8T14773   3.997   6.117   6.529 -0.0053  0.0254 -1.3388
  136OSM    C9S14774   4.109   6.235   6.666 -0.1794  1.0301  0.0158
  136OSM    H9S14775   4.037   6.318   6.682 -0.6357  1.4631 -3.7286
  136OSM    H9T14776   4.209   6.279   6.684 -0.3954  1.4577  0.1802
  136OSM   C10S14777   4.103   6.139   6.784 -0.3861 -0.3890 -1.3847
  136OSM   H10S14778   4.164   6.050   6.755  1.4895  0.5168 -0.3368
  136OSM   H10T14779   3.995   6.115   6.787 -0.4610 -0.2010  6.2861
  136OSM   C11S14780   4.131   6.211   6.915  0.5068 -0.2207  0.5926
  136OSM   H11S14781   4.101   6.318   6.905  0.1741 -0.4988 -1.7531
  136OSM   H11T14782   4.240   6.208   6.934  0.5140 -0.5806  0.5038
  136OSM   C12S14783   4.073   6.140   7.037  0.6032  0.0210  1.0625
  136OSM   H12S14784   4.100   6.032   7.033 -1.0712 -0.3645 -1.2216
  136OSM   H12T14785   3.962   6.139   7.027  0.6833  1.4843 -0.2369
  136OSM   C13S14786   4.106   6.198   7.173 -0.4127 -0.4240  0.0574
  136OSM   H13S14787   4.024   6.264   7.210  0.3020  0.4615  0.0761
  136OSM   H13T14788   4.200   6.257   7.171 -0.6022 -0.1194  0.0170
  136OSM   C14S14789   4.122   6.088   7.277  0.7717  0.5235  0.6267
  136OSM   H14S14790   4.181   6.125   7.363  2.1838  0.2700 -0.2230
  136OSM   H14T14791   4.177   5.997   7.246 -0.9913  0.0910 -1.3318
  136OSM   C15S14792   3.985   6.054   7.340  0.1281  0.0486 -0.5379
  136OSM   H15S14793   3.918   5.987   7.282 -0.3838  0.2951 -0.2361
  136OSM   H15T14794   3.943   6.157   7.352  1.5266  0.3315  2.3084
  136OSM   C16S14795   4.014   6.008   7.489  0.2694 -0.5257 -0.0539
  136OSM   H16S14796   4.031   6.105   7.540 -1.7954  0.4435 -1.1482
  136OSM   H16T14797   4.096   5.935   7.499  0.0744 -0.9595 -1.5866
  136OSM   C17S14798   3.893   5.943   7.566  1.1309 -0.1541 -0.8437
  136OSM   H17S14799   3.867   5.842   7.527  0.8344 -0.7371  0.8266
  136OSM   H17T14800   3.801   6.004   7.556  1.6486  1.1114  1.8269
  136OSM   C18S14801   3.910   5.927   7.719 -0.6701 -0.2016 -0.0485
  136OSM   H18S14802   3.922   6.027   7.767 -0.5534  1.3259 -3.1710
  136OSM   H18T14803   4.002   5.873   7.746  0.0484  0.9565 -0.1242
  136OSM   H18U14804   3.824   5.879   7.771  1.1737 -1.9556  1.4330
  136OSM    C1F14805   3.835   6.608   6.081 -0.3102  0.1528  0.6090
  136OSM     OF14806   3.736   6.590   6.005 -0.0930 -0.5858  0.2958
  136OSM    C2F14807   3.805   6.704   6.190 -0.4936  0.1862 -0.2436
  136OSM    H2F14808   3.702   6.745   6.178 -0.5729  0.0890  0.0990
  136OSM    H2G14809   3.867   6.795   6.203  0.7953 -0.7946  0.5540
  136OSM    C3F14810   3.825   6.616   6.316 -0.1117  0.6472  0.0904
  136OSM    H3F14811   3.933   6.606   6.339  0.0248 -0.1797 -0.8343
  136OSM    H3G14812   3.773   6.519   6.297 -1.8281  1.9900 -2.4168
  136OSM    C4F14813   3.765   6.684   6.438  0.8287 -0.2626  0.6486
  136OSM    H4F14814   3.657   6.692   6.415  0.8101  2.8574  1.4937
  136OSM    H4G14815   3.799   6.789   6.451  3.5735 -0.9584 -0.4036
  136OSM    C5F14816   3.792   6.599   6.558  0.0489  0.4627 -0.1424
  136OSM    H5F14817   3.887   6.550   6.528 -0.7708 -0.4084 -1.3721
  136OSM    H5G14818   3.721   6.513   6.548  0.3149  0.2818 -0.4847
  136OSM    C6F14819   3.782   6.679   6.688  0.3583  0.5185  0.5275
  136OSM    H6F14820   3.852   6.765   6.690  1.1079 -0.0367 -1.2053
  136OSM    H6G14821   3.802   6.617   6.778  2.6866  0.6594  0.1287
  136OSM    C7F14822   3.649   6.752   6.702  0.2603 -0.6985 -0.4389
  136OSM    H7F14823   3.605   6.806   6.615 -2.6804 -1.1803  0.6977
  136OSM    H7G14824   3.653   6.829   6.783  0.2548  1.2483 -2.2322
  136OSM    C8F14825   3.540   6.648   6.754  0.5730  0.2795  0.2552
  136OSM    H8F14826   3.584   6.594   6.841  3.0536  0.2345 -0.9646
  136OSM    H8G14827   3.521   6.565   6.683  0.5607  1.2527 -0.9100
  136OSM    C9F14828   3.422   6.724   6.802 -0.4059 -0.5651  0.2208
  136OSM    H9F14829   3.341   6.731   6.728 -0.5375 -2.4542  0.1460
  136OSM   C10F14830   3.407   6.777   6.923  0.8300 -0.0187  0.0648
  136OSM   H10F14831   3.310   6.827   6.936  0.8414  0.3445 -1.1892
  136OSM   C11F14832   3.505   6.774   7.042 -0.0032  0.0456  0.0817
  136OSM   H11F14833   3.553   6.872   7.062  2.0645 -1.0649  0.6535
  136OSM   H11G14834   3.598   6.724   7.008  0.1548 -0.7970  1.7372
  136OSM   C12F14835   3.451   6.714   7.165 -0.8072  1.1205 -0.0495
  136OSM   H12F14836   3.529   6.697   7.241 -1.3898  2.6413  0.9240
  136OSM   H12G14837   3.401   6.618   7.140  1.9263 -0.2039 -0.5091
  136OSM   C13F14838   3.351   6.810   7.242  0.3695  0.5392  0.3418
  136OSM   H13F14839   3.254   6.818   7.188  0.6640  0.9120 -0.1482
  136OSM   H13G14840   3.402   6.908   7.248  0.9050  0.3017 -0.2727
  136OSM   C14F14841   3.335   6.765   7.383 -0.2123  0.1671  0.0075
  136OSM   H14F14842   3.430   6.775   7.440 -0.6384 -0.4919  0.8383
  136OSM   H14G14843   3.301   6.660   7.396  0.7489  0.1857  2.9548
  136OSM   C15F14844   3.234   6.852   7.458  0.0927  0.3735 -0.0569
  136OSM   H15F14845   3.139   6.838   7.402 -0.7190  0.6359  1.2489
  136OSM   H15G14846   3.266   6.959   7.463  3.4620 -0.6100  1.0974
  136OSM   C16F14847   3.228   6.803   7.599  0.9186  0.5262 -0.1372
  136OSM   H16F14848   3.321   6.808   7.660  0.1679 -1.0102  1.1706
  136OSM   H16G14849   3.190   6.699   7.595 -2.0490  1.4700  1.6568
  136OSM   C17F14850   3.124   6.888   7.672  0.1590 -0.3044  0.7114
  136OSM   H17F14851   3.034   6.918   7.613  0.4110  0.8996  0.9430
  136OSM   H17G14852   3.165   6.984   7.709 -0.9809  1.3232 -2.0452
  136OSM   C18F14853   3.071   6.810   7.792 -0.0585 -0.7472  0.2418
  136OSM   H18F14854   3.029   6.715   7.752  0.2991 -0.8774  0.1823
  136OSM   H18G14855   2.993   6.875   7.837 -0.6389 -2.2274  1.4283
  136OSM   H18H14856   3.156   6.796   7.861  0.1503 -0.6082  0.0125
  137OSM      N14857   0.707   4.791   5.729 -0.2103 -0.0226  0.9193
  137OSM    C1514858   0.727   4.643   5.756  0.6526  0.8284  0.1196
  137OSM   H15A14859   0.767   4.593   5.670  0.4091  0.4535  0.2238
  137OSM   H15B14860   0.629   4.609   5.788  0.3106  0.5572 -1.1970
  137OSM   H15C14861   0.801   4.625   5.833  1.3093  2.5103 -0.0964
  137OSM    C1414862   0.700   4.871   5.855 -0.1503  0.5273  0.0848
  137OSM   H14A14863   0.795   4.863   5.906 -1.6331 -2.6182  2.5513
  137OSM   H14B14864   0.612   4.854   5.915  0.0784  0.8924  0.5256
  137OSM   H14C14865   0.688   4.975   5.827 -1.8069 -0.1241 -1.7742
  137OSM    C1314866   0.823   4.844   5.652  0.0945  0.0203 -0.2444
  137OSM   H13A14867   0.849   4.786   5.565 -0.7640  2.2714 -2.0293
  137OSM   H13B14868   0.909   4.839   5.718 -0.4505 -1.5220  0.3637
  137OSM   H13C14869   0.805   4.947   5.625  0.8227  0.0798 -0.5099
  137OSM    C1214870   0.584   4.802   5.636 -0.5307  0.5126  0.1612
  137OSM   H12A14871   0.609   4.736   5.554 -1.2383 -1.0123  1.1281
  137OSM   H12B14872   0.562   4.903   5.606  0.6047  0.5155 -0.6797
  137OSM    C1114873   0.452   4.752   5.700  0.3359 -0.4415 -0.7069
  137OSM   H11A14874   0.374   4.785   5.628 -1.1437  0.2941  1.1778
  137OSM   H11B14875   0.447   4.794   5.803 -0.5018  2.1326 -1.7696
  137OSM      P14876   0.307   4.544   5.767 -0.3941  0.2998 -0.0112
  137OSM    O1314877   0.199   4.642   5.763  0.5321 -0.0483  0.3296
  137OSM    O1414878   0.275   4.415   5.703  0.2844 -0.1728 -0.0545
  137OSM    O1114879   0.340   4.512   5.911 -0.3129 -0.5323  0.0397
  137OSM    O1214880   0.447   4.607   5.724 -0.2797 -0.2043  0.2969
  137OSM    C1S14881   0.465   4.527   5.977 -0.2658  0.2400  0.1373
  137OSM    H1S14882   0.504   4.630   5.962  0.0544  0.2900  1.2876
  137OSM    H1T14883   0.534   4.458   5.925 -1.0519  0.4344 -1.2023
  137OSM     NF14884   0.600   4.542   6.185  0.6537 -0.2693 -0.4460
  137OSM    HNF14885   0.648   4.475   6.241  0.3229  0.4294  0.6935
  137OSM    C2S14886   0.469   4.507   6.126 -0.8884 -0.3614 -0.1967
  137OSM    H2S14887   0.400   4.577   6.177  0.4568 -1.4159  3.2861
  137OSM    C3S14888   0.419   4.359   6.161  0.0981  0.1733 -1.1397
  137OSM    H3S14889   0.461   4.282   6.092  3.1866  0.2735  0.5152
  137OSM     O314890   0.274   4.347   6.146  0.1367  0.1285  0.1027
  137OSM    HO314891   0.245   4.411   6.080 -0.9018 -0.3183  0.1227
  137OSM    C4S14892   0.448   4.322   6.300  0.0468 -0.0955 -1.0542
  137OSM    H4S14893   0.381   4.378   6.368  0.6618 -1.3079  0.5819
  137OSM    C5S14894   0.534   4.233   6.351 -0.4944 -0.3058  0.1970
  137OSM    H5S14895   0.600   4.164   6.297 -4.0277 -1.5236 -2.7991
  137OSM    C6S14896   0.550   4.214   6.497 -0.0823  0.7775 -1.7424
  137OSM    H6S14897   0.647   4.258   6.528  0.3230  0.3303 -2.3625
  137OSM    H6T14898   0.557   4.105   6.519  2.3453  1.3988  0.8020
  137OSM    C7S14899   0.439   4.268   6.588  0.4259  0.6125 -0.0153
  137OSM    H7S14900   0.346   4.212   6.562  0.8029 -0.6211  1.2129
  137OSM    H7T14901   0.420   4.376   6.572  3.3464  1.3091  0.9880
  137OSM    C8S14902   0.477   4.259   6.736 -0.0138 -0.4286 -0.3951
  137OSM    H8S14903   0.460   4.158   6.781  0.6603 -0.2407  0.2758
  137OSM    H8T14904   0.399   4.318   6.790  1.3700  1.1996 -0.1570
  137OSM    C9S14905   0.609   4.313   6.783 -0.2527 -0.4411  1.2914
  137OSM    H9S14906   0.647   4.407   6.739 -0.9426 -0.5468  0.4675
  137OSM    H9T14907   0.682   4.233   6.756 -0.5646  0.9466 -4.1958
  137OSM   C10S14908   0.623   4.318   6.937 -0.4609  0.1090 -0.0906
  137OSM   H10S14909   0.573   4.226   6.973  0.0198 -0.8994 -1.9370
  137OSM   H10T14910   0.555   4.402   6.962 -0.6670  0.0819 -0.5669
  137OSM   C11S14911   0.773   4.313   6.973  0.2296 -0.6289  0.1008
  137OSM   H11S14912   0.819   4.407   6.935 -1.1138  1.0705  2.5712
  137OSM   H11T14913   0.831   4.237   6.915 -0.8250 -0.1303 -1.6611
  137OSM   C12S14914   0.794   4.323   7.129  0.2023  0.3028  0.4009
  137OSM   H12S14915   0.738   4.237   7.171 -0.7130  0.1452 -1.0903
  137OSM   H12T14916   0.735   4.407   7.168 -0.7867  0.3180 -1.0649
  137OSM   C13S14917   0.932   4.346   7.173 -0.1389  0.4990  0.4974
  137OSM   H13S14918   0.988   4.435   7.137  2.0674  0.0786  2.7371
  137OSM   H13T14919   0.990   4.257   7.140  1.4042  0.5844  2.8224
  137OSM   C14S14920   0.933   4.358   7.323  0.2802 -0.4943 -1.0408
  137OSM   H14S14921   1.013   4.304   7.378  1.9355  2.9573  0.0495
  137OSM   H14T14922   0.847   4.303   7.367  1.9740 -2.8957 -0.5719
  137OSM   C15S14923   0.932   4.504   7.380  0.7806  0.2331 -0.0671
  137OSM   H15S14924   0.851   4.563   7.332  1.3185 -0.9155 -2.4309
  137OSM   H15T14925   1.025   4.558   7.352  0.5694  0.0292 -1.1607
  137OSM   C16S14926   0.921   4.490   7.528  0.0564 -0.3999 -0.8174
  137OSM   H16S14927   1.008   4.440   7.576 -1.3071 -1.5161  0.5254
  137OSM   H16T14928   0.833   4.431   7.560  0.3733  0.2310  1.2945
  137OSM   C17S14929   0.933   4.625   7.596  0.0366  0.1378 -0.5774
  137OSM   H17S14930   0.849   4.693   7.571 -1.0291 -0.4434  1.3371
  137OSM   H17T14931   1.024   4.673   7.554  0.7569  0.3311  1.1800
  137OSM   C18S14932   0.955   4.634   7.744 -0.1540  0.2214 -0.3517
  137OSM   H18S14933   0.869   4.670   7.805  0.6713 -0.0945  1.0097
  137OSM   H18T14934   1.040   4.702   7.765 -1.2105  1.9188 -1.4875
  137OSM   H18U14935   0.979   4.530   7.777 -2.3760 -0.1987  0.0837
  137OSM    C1F14936   0.663   4.658   6.171  0.0708 -0.5537  0.6591
  137OSM     OF14937   0.600   4.760   6.136  0.2348  0.0517  0.1871
  137OSM    C2F14938   0.814   4.652   6.210 -0.2762 -0.3185  0.1631
  137OSM    H2F14939   0.852   4.755   6.225  1.3819 -1.2170  2.3619
  137OSM    H2G14940   0.864   4.600   6.125 -1.4616 -0.3219 -0.5508
  137OSM    C3F14941   0.856   4.563   6.335  0.9098 -0.0392 -0.3868
  137OSM    H3F14942   0.963   4.586   6.350  0.2948  0.8587  2.9731
  137OSM    H3G14943   0.831   4.456   6.319 -0.3415  0.2707 -0.6282
  137OSM    C4F14944   0.777   4.610   6.450  0.5809 -0.4976  0.1983
  137OSM    H4F14945   0.681   4.554   6.450  1.0855 -1.3777  0.8651
  137OSM    H4G14946   0.758   4.719   6.436  1.1603 -0.2362  1.3716
  137OSM    C5F14947   0.847   4.607   6.584 -0.1127  0.0005 -0.0662
  137OSM    H5F14948   0.946   4.654   6.565  0.6828 -1.3355  0.6968
  137OSM    H5G14949   0.864   4.505   6.623  1.0267  0.2944  0.2419
  137OSM    C6F14950   0.773   4.679   6.694  0.4562 -0.1403  0.4336
  137OSM    H6F14951   0.680   4.624   6.720 -0.3689  1.6318  1.3296
  137OSM    H6G14952   0.748   4.783   6.666  1.5860  0.4176  1.4592
  137OSM    C7F14953   0.864   4.689   6.814 -0.6199  0.1015  0.9127
  137OSM    H7F14954   0.950   4.751   6.780 -1.1517 -0.0769 -0.8347
  137OSM    H7G14955   0.910   4.590   6.832 -1.2324 -0.0329  1.7393
  137OSM    C8F14956   0.791   4.744   6.934  0.2625  0.2495  0.4940
  137OSM    H8F14957   0.703   4.681   6.954 -0.5480 -0.0775 -3.6285
  137OSM    H8G14958   0.753   4.845   6.909  0.5248  0.1659 -0.2831
  137OSM    C9F14959   0.877   4.746   7.053  0.4042  0.0870 -0.1474
  137OSM    H9F14960   0.925   4.652   7.083 -1.6086  0.0922  3.2744
  137OSM   C10F14961   0.889   4.849   7.139 -0.8962  0.0495 -0.1013
  137OSM   H10F14962   0.952   4.820   7.224 -2.6178  1.0411  1.5321
  137OSM   C11F14963   0.822   4.984   7.145  0.1465  0.3052  0.7433
  137OSM   H11F14964   0.749   4.989   7.062 -0.0230 -1.6351  0.7460
  137OSM   H11G14965   0.894   5.068   7.140  3.2540 -2.2136  1.5742
  137OSM   C12F14966   0.740   5.003   7.272 -0.2799 -0.6205 -0.7184
  137OSM   H12F14967   0.651   4.937   7.259 -1.8155  1.4951 -1.1264
  137OSM   H12G14968   0.716   5.111   7.261 -0.4581 -0.6246 -0.3822
  137OSM   C13F14969   0.823   4.980   7.394 -0.2619 -1.1596 -0.4041
  137OSM   H13F14970   0.921   5.032   7.384 -0.2197 -0.9750  0.8592
  137OSM   H13G14971   0.860   4.877   7.411 -0.0398 -0.9863  0.1950
  137OSM   C14F14972   0.740   5.022   7.520  0.1438 -0.0360  0.3326
  137OSM   H14F14973   0.637   4.983   7.508 -1.0590  2.7558  1.1688
  137OSM   H14G14974   0.729   5.132   7.515  0.2711 -0.1000 -2.4125
  137OSM   C15F14975   0.810   4.998   7.658 -0.0090 -0.8410  0.6128
  137OSM   H15F14976   0.839   4.891   7.661  0.0576 -0.8051  1.5824
  137OSM   H15G14977   0.728   5.026   7.728 -0.0885 -3.1721  1.5103
  137OSM   C16F14978   0.932   5.083   7.683 -0.5696 -0.9680 -0.2863
  137OSM   H16F14979   0.897   5.183   7.714 -1.8890 -1.5552  0.1776
  137OSM   H16G14980   0.994   5.114   7.596 -0.9425  1.6566  0.3430
  137OSM   C17F14981   1.033   5.024   7.784  0.7215  0.6639 -0.2096
  137OSM   H17F14982   1.074   4.930   7.742 -0.6732 -0.3338  0.5771
  137OSM   H17G14983   0.984   5.005   7.883 -0.0423  0.5544 -0.6036
  137OSM   C18F14984   1.150   5.122   7.818 -0.1342 -0.6665 -0.3470
  137OSM   H18F14985   1.221   5.071   7.887  0.3028 -0.8709 -0.9465
  137OSM   H18G14986   1.099   5.203   7.873  0.1992 -0.5620 -0.1913
  137OSM   H18H14987   1.192   5.158   7.722 -3.4002 -0.2295 -1.6767
  138OSM      N14988   1.116   6.112   5.576  0.7969 -0.0703  0.0696
  138OSM    C1514989   1.212   6.075   5.470 -0.4426  0.6446  0.0961
  138OSM   H15A14990   1.223   5.968   5.459  0.3993  0.7908 -0.5065
  138OSM   H15B14991   1.313   6.109   5.485  0.3150 -1.7919  0.7300
  138OSM   H15C14992   1.179   6.120   5.377  1.6354  1.8312 -0.1061
  138OSM    C1414993   1.124   6.261   5.582  0.1079 -0.0341  0.0659
  138OSM   H14A14994   1.079   6.297   5.673  0.2253 -0.5092  0.3165
  138OSM   H14B14995   1.070   6.297   5.495  0.6034 -1.5595 -0.8923
  138OSM   H14C14996   1.222   6.304   5.571  0.5134 -0.9360  0.1172
  138OSM    C1314997   0.982   6.071   5.526 -0.6678  0.2361  0.7096
  138OSM   H13A14998   0.915   6.108   5.601  0.2602 -0.4431  1.8898
  138OSM   H13B14999   0.972   5.964   5.516  0.6068  0.0549  1.2837
  138OSM   H13C15000   0.957   6.112   5.429  0.0470 -0.4054  0.2435
  138OSM    C1215001   1.147   6.043   5.707  0.1860  0.1766 -0.6330
  138OSM   H12A15002   1.060   6.049   5.770 -1.8032  0.2947 -3.3033
  138OSM   H12B15003   1.230   6.092   5.755  1.6306 -3.1571  0.4352
  138OSM    C1115004   1.188   5.888   5.696 -0.9080 -0.1907 -0.8894
  138OSM   H11A15005   1.118   5.836   5.627 -0.6274  0.9069 -2.0152
  138OSM   H11B15006   1.176   5.842   5.797 -0.0734  2.9923  0.7428
  138OSM      P15007   1.434   5.780   5.724  0.2981  0.3555  0.8624
  138OSM    O1315008   1.510   5.689   5.632  0.0188  0.2309 -0.0146
  138OSM    O1415009   1.513   5.866   5.813  0.1130 -0.4264 -0.0832
  138OSM    O1115010   1.341   5.697   5.823 -0.1527 -0.2199  1.0932
  138OSM    O1215011   1.320   5.871   5.643 -0.0516 -0.0111  0.1281
  138OSM    C1S15012   1.393   5.591   5.900 -0.2262 -0.5094 -0.2159
  138OSM    H1S15013   1.469   5.530   5.847  2.0069  1.5682  0.4684
  138OSM    H1T15014   1.309   5.522   5.920 -1.6579  0.8887 -1.2618
  138OSM     NF15015   1.528   5.541   6.094 -0.3553  0.2870  0.2976
  138OSM    HNF15016   1.487   5.461   6.138  1.9317 -2.4515 -2.3688
  138OSM    C2S15017   1.453   5.641   6.030  0.5712 -0.4895  0.3432
  138OSM    H2S15018   1.532   5.717   6.011  0.6131 -0.5014  0.4729
  138OSM    C3S15019   1.341   5.706   6.120 -0.3366 -1.0691  0.3370
  138OSM    H3S15020   1.273   5.628   6.161 -0.7203  0.8472  3.5445
  138OSM     O315021   1.267   5.804   6.051  0.8078  0.1481  0.4906
  138OSM    HO315022   1.305   5.792   5.964  1.3784 -0.9240  0.8845
  138OSM    C4S15023   1.401   5.783   6.233 -0.0461 -0.4146  0.3269
  138OSM    H4S15024   1.430   5.885   6.203 -0.7428 -0.8465 -1.9222
  138OSM    C5S15025   1.401   5.743   6.362 -0.3697  0.8080  0.4020
  138OSM    H5S15026   1.355   5.647   6.387 -0.2962  0.6094 -0.2098
  138OSM    C6S15027   1.458   5.825   6.471  0.2124 -0.6608 -0.1061
  138OSM    H6S15028   1.397   5.915   6.496  2.1608  0.8566 -0.7311
  138OSM    H6T15029   1.552   5.871   6.434  0.0866  0.3222  0.7577
  138OSM    C7S15030   1.485   5.742   6.597 -0.7457 -0.2260 -0.3988
  138OSM    H7S15031   1.555   5.800   6.660 -0.1941 -0.6286 -0.6334
  138OSM    H7T15032   1.527   5.642   6.573  0.1056 -0.2268  1.0855
  138OSM    C8S15033   1.359   5.733   6.682 -0.1967  0.1063 -0.0487
  138OSM    H8S15034   1.287   5.660   6.638  0.5330 -1.3928  1.1663
  138OSM    H8T15035   1.324   5.837   6.695 -1.6340 -0.2129 -1.2037
  138OSM    C9S15036   1.400   5.667   6.823  1.1569  0.0661  0.1451
  138OSM    H9S15037   1.471   5.582   6.824  0.8808 -0.1622  0.1112
  138OSM    H9T15038   1.300   5.631   6.855  0.7940  0.9072 -0.0259
  138OSM   C10S15039   1.472   5.769   6.912  0.2097 -0.6206 -0.0417
  138OSM   H10S15040   1.408   5.859   6.919 -1.1039 -1.3839 -1.8332
  138OSM   H10T15041   1.568   5.802   6.868  1.4701 -0.7029  2.5439
  138OSM   C11S15042   1.500   5.723   7.059 -0.0748  0.0860  1.0571
  138OSM   H11S15043   1.576   5.794   7.098 -1.2713  0.8013  2.1556
  138OSM   H11T15044   1.558   5.628   7.053  0.8736  0.7622 -0.8406
  138OSM   C12S15045   1.378   5.720   7.153  0.3198 -0.5534  0.4550
  138OSM   H12S15046   1.319   5.634   7.115 -0.1846  0.2067 -0.5067
  138OSM   H12T15047   1.316   5.811   7.144 -0.2483 -0.6330  3.1710
  138OSM   C13S15048   1.400   5.701   7.303 -0.8150  0.2813  0.4076
  138OSM   H13S15049   1.458   5.609   7.321  0.6562  0.8685 -1.1902
  138OSM   H13T15050   1.299   5.695   7.348 -1.3063  0.6474 -0.6149
  138OSM   C14S15051   1.470   5.819   7.369  0.4833  0.4369  0.0776
  138OSM   H14S15052   1.523   5.875   7.289  0.6686  1.5423  0.9663
  138OSM   H14T15053   1.552   5.789   7.439 -0.4339 -1.1760  0.4934
  138OSM   C15S15054   1.376   5.916   7.437  0.3177 -0.1616  0.2879
  138OSM   H15S15055   1.312   5.863   7.511  1.0462 -2.2468 -0.5559
  138OSM   H15T15056   1.304   5.964   7.368 -0.8302  0.1868  1.6980
  138OSM   C16S15057   1.436   6.028   7.524  0.3565  0.1607 -0.1525
  138OSM   H16S15058   1.359   6.105   7.547 -0.2010 -0.1099 -1.0892
  138OSM   H16T15059   1.512   6.074   7.457 -1.4228  0.7390 -1.8557
  138OSM   C17S15060   1.496   5.974   7.656 -0.0085  0.9181 -0.3131
  138OSM   H17S15061   1.550   5.878   7.641 -0.8961  0.0841  1.6006
  138OSM   H17T15062   1.410   5.950   7.723  1.0266  0.3656  0.8325
  138OSM   C18S15063   1.590   6.073   7.707 -0.0698 -0.1652 -0.0060
  138OSM   H18S15064   1.589   6.064   7.817 -2.2967  0.4999  0.0535
  138OSM   H18T15065   1.556   6.176   7.684  3.0135  1.0289  0.5450
  138OSM   H18U15066   1.693   6.065   7.665  0.6236  0.4962  1.5177
  138OSM    C1F15067   1.653   5.517   6.052  0.0549  0.3867 -0.4926
  138OSM     OF15068   1.699   5.588   5.963  0.0354 -0.1529 -0.0649
  138OSM    C2F15069   1.720   5.398   6.117  0.3359 -0.3025 -0.5321
  138OSM    H2F15070   1.754   5.327   6.039  2.3120 -0.7188  0.6627
  138OSM    H2G15071   1.649   5.343   6.183  0.4396 -0.4278 -0.5256
  138OSM    C3F15072   1.842   5.450   6.200 -0.0017  0.1489 -0.2074
  138OSM    H3F15073   1.899   5.521   6.136 -1.9246  0.6312 -1.4402
  138OSM    H3G15074   1.891   5.358   6.239  0.2051  0.3490  0.0083
  138OSM    C4F15075   1.802   5.539   6.313 -0.0056 -0.4480 -1.3268
  138OSM    H4F15076   1.718   5.505   6.376  2.2157 -1.3543  1.2539
  138OSM    H4G15077   1.769   5.638   6.277  0.0601 -0.4961 -1.5232
  138OSM    C5F15078   1.925   5.560   6.416 -0.1132  0.7180 -0.0536
  138OSM    H5F15079   1.956   5.667   6.414 -1.6829  1.2646  2.8844
  138OSM    H5G15080   2.015   5.507   6.378  0.2989  1.9632 -0.8622
  138OSM    C6F15081   1.875   5.510   6.560 -0.2409 -0.2592 -0.2543
  138OSM    H6F15082   1.858   5.401   6.555 -0.0362 -0.2665 -0.8025
  138OSM    H6G15083   1.778   5.560   6.582 -1.5357 -2.7435 -0.1725
  138OSM    C7F15084   1.983   5.529   6.666  0.3214 -0.1905 -0.0651
  138OSM    H7F15085   1.996   5.638   6.683  1.3566 -0.2581 -0.3959
  138OSM    H7G15086   2.078   5.490   6.624  0.4830 -0.5558  0.6458
  138OSM    C8F15087   1.955   5.467   6.809  0.0983 -0.3374 -0.0953
  138OSM    H8F15088   2.050   5.465   6.867  0.4752 -1.3804 -0.7349
  138OSM    H8G15089   1.932   5.359   6.793  0.4295 -0.3814 -0.2935
  138OSM    C9F15090   1.850   5.535   6.891  0.5025  0.7414  0.3390
  138OSM    H9F15091   1.749   5.499   6.866 -0.4420  1.9821  2.2985
  138OSM   C10F15092   1.868   5.600   7.000  0.3271 -0.0589  0.6444
  138OSM   H10F15093   1.777   5.645   7.043 -0.2561 -0.8522  0.2468
  138OSM   C11F15094   1.999   5.653   7.059  0.2916  0.3637 -0.1523
  138OSM   H11F15095   2.009   5.763   7.051 -1.6894  0.4777 -1.2394
  138OSM   H11G15096   2.093   5.621   7.008  0.2483  1.1563 -0.7377
  138OSM   C12F15097   2.004   5.626   7.213 -0.1002 -0.5002  0.1761
  138OSM   H12F15098   1.914   5.671   7.261  1.7835  1.5514  1.9034
  138OSM   H12G15099   2.096   5.663   7.263  0.5823 -0.3262 -1.2061
  138OSM   C13F15100   2.004   5.482   7.231 -0.6100 -0.1911 -0.2027
  138OSM   H13F15101   2.089   5.443   7.170 -0.1420  1.0592 -0.3636
  138OSM   H13G15102   1.914   5.429   7.194 -0.1687 -1.7074  0.8032
  138OSM   C14F15103   2.022   5.448   7.375  0.8502  1.4829  0.9265
  138OSM   H14F15104   2.111   5.495   7.422  1.5183  1.4181 -0.2700
  138OSM   H14G15105   2.047   5.340   7.378  0.1815  1.2656 -0.8554
  138OSM   C15F15106   1.895   5.468   7.454 -0.0433 -0.1350  0.1237
  138OSM   H15F15107   1.907   5.397   7.539  2.5268 -1.6515 -1.4570
  138OSM   H15G15108   1.807   5.433   7.396  1.3313 -0.9878 -1.4652
  138OSM   C16F15109   1.882   5.605   7.509  0.3840 -0.2675 -0.0675
  138OSM   H16F15110   1.837   5.682   7.443 -1.8026  0.2009  1.8990
  138OSM   H16G15111   1.981   5.649   7.534  0.7388 -1.4718  0.7337
  138OSM   C17F15112   1.804   5.610   7.645 -0.0086 -0.9430 -0.4874
  138OSM   H17F15113   1.813   5.716   7.678  0.2548 -0.8861 -0.7426
  138OSM   H17G15114   1.862   5.545   7.715  0.2946  1.8928  2.0006
  138OSM   C18F15115   1.656   5.575   7.628  0.2782 -0.0103  0.3143
  138OSM   H18F15116   1.598   5.646   7.566 -0.5055  0.1673  1.2391
  138OSM   H18G15117   1.600   5.565   7.724  2.5881 -1.4352  1.5795
  138OSM   H18H15118   1.652   5.473   7.584 -0.8793  0.9224 -1.7799
  139OSM      N15119   5.438   6.369   5.400  0.6750  0.3862 -0.0462
  139OSM    C1515120   5.389   6.511   5.389 -0.5964  0.0631  0.3184
  139OSM   H15A15121   5.431   6.567   5.306  0.9071 -1.0370  0.3363
  139OSM   H15B15122   5.419   6.564   5.478 -1.7493  1.9557 -0.3702
  139OSM   H15C15123   5.282   6.524   5.383 -0.6764 -1.3772 -1.8640
  139OSM    C1415124   5.399   6.295   5.278  0.4114  0.2936 -0.1954
  139OSM   H14A15125   5.454   6.333   5.194  0.0542  0.2630 -0.4479
  139OSM   H14B15126   5.293   6.315   5.264  1.0725  2.6502 -2.1885
  139OSM   H14C15127   5.411   6.188   5.286  0.3137  0.2795 -0.2413
  139OSM    C1315128   5.588   6.375   5.394  0.2427 -0.4216  0.5909
  139OSM   H13A15129   5.635   6.426   5.477 -0.0022  0.1448  0.3856
  139OSM   H13B15130   5.620   6.433   5.309 -0.6412  0.4620  0.8534
  139OSM   H13C15131   5.631   6.277   5.381  2.1105  0.1803  2.0472
  139OSM    C1215132   5.389   6.299   5.530 -0.4166  0.7076 -0.0157
  139OSM   H12A15133   5.438   6.204   5.544 -1.0406  0.3091 -0.5042
  139OSM   H12B15134   5.286   6.268   5.528  0.0783 -1.3000  2.4350
  139OSM    C1115135   5.415   6.379   5.668 -1.2461 -0.1156  0.1767
  139OSM   H11A15136   5.524   6.394   5.680 -1.0615 -0.0554 -1.4429
  139OSM   H11B15137   5.380   6.306   5.744 -3.1063 -0.6301 -1.1285
  139OSM      P15138   5.199   6.531   5.705  0.1861  0.0139  0.1201
  139OSM    O1315139   5.155   6.646   5.624  0.0368  0.6704  0.0656
  139OSM    O1415140   5.127   6.404   5.693  0.0310  0.2268 -0.5407
  139OSM    O1115141   5.206   6.580   5.852  0.4657 -0.6271 -0.1458
  139OSM    O1215142   5.351   6.507   5.681  0.1980  0.0290 -0.2195
  139OSM    C1S15143   5.329   6.639   5.901  0.2006  0.2581  0.6265
  139OSM    H1S15144   5.367   6.721   5.836 -0.5403  0.2673  0.1962
  139OSM    H1T15145   5.414   6.568   5.900  2.3753  2.7505 -2.4575
  139OSM     NF15146   5.433   6.783   6.073 -0.6080 -0.2250  0.7018
  139OSM    HNF15147   5.481   6.745   6.152  1.8062 -0.9326 -1.0367
  139OSM    C2S15148   5.316   6.710   6.040 -0.6757 -1.2630  0.4587
  139OSM    H2S15149   5.235   6.786   6.032 -0.8814 -1.5817 -0.6775
  139OSM    C3S15150   5.282   6.604   6.148 -0.0827  0.2551  0.2842
  139OSM    H3S15151   5.361   6.527   6.141  0.1949  0.4902  0.7964
  139OSM     O315152   5.155   6.531   6.120  0.5253 -0.0009 -0.2092
  139OSM    HO315153   5.164   6.502   6.029 -0.3994  0.9431 -0.6107
  139OSM    C4S15154   5.273   6.668   6.282  0.3181 -0.0772 -0.6386
  139OSM    H4S15155   5.199   6.750   6.280 -0.4186 -0.7498 -1.0484
  139OSM    C5S15156   5.340   6.641   6.389  0.8943 -0.0712  0.1779
  139OSM    H5S15157   5.404   6.551   6.389  0.2837 -0.5182 -0.9070
  139OSM    C6S15158   5.328   6.718   6.514  0.4336  0.3232  0.4900
  139OSM    H6S15159   5.293   6.663   6.604 -0.2572 -2.6173 -1.4929
  139OSM    H6T15160   5.262   6.807   6.505  0.8316  0.5958  0.2749
  139OSM    C7S15161   5.461   6.786   6.557  0.1878  1.1596 -0.9876
  139OSM    H7S15162   5.452   6.850   6.647  0.6027  0.1567 -0.2292
  139OSM    H7T15163   5.506   6.853   6.480  2.7588 -1.1525 -1.5593
  139OSM    C8S15164   5.568   6.684   6.592  0.8437 -0.1527 -0.0004
  139OSM    H8S15165   5.663   6.742   6.594 -0.0834  1.4005  1.3872
  139OSM    H8T15166   5.590   6.609   6.513 -0.3473  0.2110 -0.6810
  139OSM    C9S15167   5.549   6.610   6.726 -0.1277  0.0678  0.4281
  139OSM    H9S15168   5.591   6.507   6.714  0.0122  0.1975 -0.2532
  139OSM    H9T15169   5.446   6.619   6.765  0.2319  0.8756  1.1850
  139OSM   C10S15170   5.644   6.666   6.830 -0.0461  0.0114 -0.8295
  139OSM   H10S15171   5.637   6.775   6.850  2.6930  0.0679  0.1007
  139OSM   H10T15172   5.749   6.640   6.804 -0.8024 -2.8369 -1.2527
  139OSM   C11S15173   5.632   6.595   6.968  0.1181 -0.4843  0.1218
  139OSM   H11S15174   5.722   6.599   7.033  0.0951 -0.8378  0.1785
  139OSM   H11T15175   5.626   6.488   6.940 -1.1698 -0.5307  0.5620
  139OSM   C12S15176   5.518   6.651   7.051  0.8669 -0.5716  0.6107
  139OSM   H12S15177   5.421   6.621   7.007 -0.9553  2.0128  2.7684
  139OSM   H12T15178   5.512   6.762   7.046  3.1214 -0.4634 -0.6698
  139OSM   C13S15179   5.517   6.607   7.195  0.2851  0.6833 -1.0789
  139OSM   H13S15180   5.611   6.652   7.234  0.1403  2.1427 -2.3294
  139OSM   H13T15181   5.534   6.498   7.201 -3.5892  0.1045  1.5225
  139OSM   C14S15182   5.396   6.651   7.275  0.2957 -0.5142 -0.1337
  139OSM   H14S15183   5.311   6.585   7.246 -0.4415 -0.4005  1.7204
  139OSM   H14T15184   5.378   6.755   7.240  2.9885  0.6016  1.6616
  139OSM   C15S15185   5.403   6.645   7.431 -0.7539 -0.5213 -0.2247
  139OSM   H15S15186   5.309   6.693   7.466 -1.4442 -0.6059 -1.9085
  139OSM   H15T15187   5.488   6.714   7.450  0.0315 -1.6430  0.3959
  139OSM   C16S15188   5.418   6.497   7.478 -0.1099  0.5125 -0.6665
  139OSM   H16S15189   5.515   6.456   7.444 -0.5334  0.5598 -1.9599
  139OSM   H16T15190   5.340   6.438   7.424 -1.6850  0.5767  1.4490
  139OSM   C17S15191   5.413   6.469   7.631 -0.3680  0.5629  0.1065
  139OSM   H17S15192   5.501   6.524   7.670 -0.8096  0.2107  1.6240
  139OSM   H17T15193   5.417   6.361   7.657  1.3224  1.4105  3.6051
  139OSM   C18S15194   5.291   6.532   7.704 -0.6424  0.2401 -0.0715
  139OSM   H18S15195   5.197   6.504   7.650 -0.2329  2.3058 -1.9359
  139OSM   H18T15196   5.308   6.641   7.707 -1.6491  0.4207 -0.4983
  139OSM   H18U15197   5.288   6.492   7.808 -0.9671 -1.1626 -0.6027
  139OSM    C1F15198   5.481   6.895   6.030 -0.3993 -0.1340 -0.9225
  139OSM     OF15199   5.436   6.947   5.933  0.1491  0.2895  0.7693
  139OSM    C2F15200   5.585   6.962   6.108 -0.0791 -0.2140 -0.2374
  139OSM    H2F15201   5.685   6.944   6.062 -1.5316 -0.8851 -3.2724
  139OSM    H2G15202   5.604   6.912   6.205 -1.2082  1.6466  0.9724
  139OSM    C3F15203   5.554   7.112   6.135  0.4559 -0.1266  0.3311
  139OSM    H3F15204   5.474   7.117   6.211 -0.9919  0.3756 -1.1912
  139OSM    H3G15205   5.523   7.149   6.035 -0.4903 -0.1191  0.6265
  139OSM    C4F15206   5.670   7.190   6.192 -0.8631  0.4510  0.4532
  139OSM    H4F15207   5.667   7.301   6.195  1.0026  0.4980  1.2096
  139OSM    H4G15208   5.767   7.181   6.139 -1.0268  1.2197  0.0183
  139OSM    C5F15209   5.702   7.135   6.329 -0.8850 -0.2523  0.0078
  139OSM    H5F15210   5.807   7.160   6.355 -1.1219 -1.2368  2.0246
  139OSM    H5G15211   5.680   7.026   6.339 -0.8919 -0.2294  0.2353
  139OSM    C6F15212   5.619   7.200   6.439 -0.1731 -0.0242  0.2747
  139OSM    H6F15213   5.520   7.153   6.420  0.3778 -1.6808  1.4348
  139OSM    H6G15214   5.613   7.311   6.433 -0.7207 -0.0640  0.0774
  139OSM    C7F15215   5.656   7.162   6.585 -0.0290  0.5226 -0.1987
  139OSM    H7F15216   5.767   7.168   6.591 -0.0362  0.3510  0.1305
  139OSM    H7G15217   5.637   7.058   6.619 -0.4636  1.3652  2.2319
  139OSM    C8F15218   5.597   7.259   6.692  0.1888 -0.4204  0.4937
  139OSM    H8F15219   5.645   7.356   6.669 -2.0473  0.6004  0.0142
  139OSM    H8G15220   5.624   7.228   6.796 -3.8955 -0.6836  1.5677
  139OSM    C9F15221   5.451   7.284   6.676  0.1913 -0.1391 -0.1337
  139OSM    H9F15222   5.411   7.336   6.587  1.9591  0.6782 -0.4725
  139OSM   C10F15223   5.366   7.232   6.760 -0.1431  0.1944  0.2598
  139OSM   H10F15224   5.257   7.247   6.749 -0.4665 -2.3269 -0.3506
  139OSM   C11F15225   5.393   7.148   6.880 -0.2901 -0.0461 -0.8762
  139OSM   H11F15226   5.487   7.090   6.887 -0.9338 -1.1228 -1.0570
  139OSM   H11G15227   5.320   7.064   6.873 -0.1586 -0.2479  0.1539
  139OSM   C12F15228   5.382   7.225   7.013  0.1658 -0.4460 -0.0117
  139OSM   H12F15229   5.446   7.316   7.015 -0.0936 -0.2747  0.5331
  139OSM   H12G15230   5.428   7.159   7.089  0.7540  1.0734  0.9852
  139OSM   C13F15231   5.233   7.269   7.050 -0.0038  0.4801  1.0189
  139OSM   H13F15232   5.162   7.187   7.026  2.0703 -1.3624  1.0448
  139OSM   H13G15233   5.211   7.360   6.991  0.5932 -0.8996 -1.3869
  139OSM   C14F15234   5.238   7.301   7.195 -0.6307  0.3241 -0.8239
  139OSM   H14F15235   5.249   7.210   7.257 -1.7943  0.5973 -0.1992
  139OSM   H14G15236   5.139   7.340   7.228 -0.6214 -0.6502  0.3641
  139OSM   C15F15237   5.329   7.411   7.232 -0.1141  0.6729  0.2473
  139OSM   H15F15238   5.317   7.485   7.149 -0.0807 -1.0768 -1.3646
  139OSM   H15G15239   5.430   7.367   7.220 -0.0044  0.9928 -0.0184
  139OSM   C16F15240   5.300   7.468   7.373 -0.2444 -0.4595 -0.2534
  139OSM   H16F15241   5.194   7.452   7.402 -1.2463 -0.6305 -3.7042
  139OSM   H16G15242   5.317   7.577   7.385  0.1176 -0.2431 -2.4240
  139OSM   C17F15243   5.380   7.392   7.476  0.1325  0.4641  0.0929
  139OSM   H17F15244   5.350   7.286   7.466  1.3094 -0.0955  2.1640
  139OSM   H17G15245   5.361   7.442   7.573 -2.3969  0.6829 -0.4880
  139OSM   C18F15246   5.536   7.410   7.467  0.0330 -0.3451 -0.1729
  139OSM   H18F15247   5.585   7.382   7.562  2.1736  0.2651 -1.0567
  139OSM   H18G15248   5.549   7.520   7.462 -3.0835  0.0659 -0.5058
  139OSM   H18H15249   5.577   7.341   7.390 -0.3910 -1.3728  0.5051
  140OSM      N15250   0.930   1.780   5.374 -0.0176 -0.1919 -0.0129
  140OSM    C1515251   0.857   1.862   5.280 -0.6711  0.3916  0.4780
  140OSM   H15A15252   0.765   1.810   5.257  0.0855 -0.1552 -1.4505
  140OSM   H15B15253   0.923   1.881   5.197  0.2572  1.1204  1.3685
  140OSM   H15C15254   0.838   1.957   5.327 -1.9707 -0.1013  0.9647
  140OSM    C1415255   0.987   1.669   5.287  0.8632 -0.1356 -0.2405
  140OSM   H14A15256   1.018   1.705   5.190 -2.2288  2.2202 -0.4199
  140OSM   H14B15257   0.906   1.598   5.272 -0.5654  1.0854  1.4794
  140OSM   H14C15258   1.055   1.602   5.337 -0.1743 -1.5721 -0.6970
  140OSM    C1315259   1.043   1.858   5.424  0.7348 -0.4858 -0.0182
  140OSM   H13A15260   1.121   1.872   5.351  0.7074 -0.6676 -0.0844
  140OSM   H13B15261   1.097   1.811   5.505  0.6316  1.5722  1.2785
  140OSM   H13C15262   1.010   1.956   5.456  1.0866 -0.2213 -0.4639
  140OSM    C1215263   0.841   1.735   5.488 -0.1660 -0.1944  0.4837
  140OSM   H12A15264   0.748   1.690   5.456  0.4752 -1.4096  0.3021
  140OSM   H12B15265   0.805   1.827   5.532  0.5918 -0.1045  0.9348
  140OSM    C1115266   0.902   1.641   5.587  0.0690 -0.6047 -0.1463
  140OSM   H11A15267   0.822   1.607   5.656  0.4690 -0.9693  0.1463
  140OSM   H11B15268   0.986   1.690   5.641 -0.9696  1.9954 -0.8474
  140OSM      P15269   1.007   1.404   5.619  0.3747 -0.1660 -0.1877
  140OSM    O1315270   0.906   1.298   5.590  0.0075 -0.5938  0.0046
  140OSM    O1415271   1.148   1.377   5.589  0.2347  0.2665 -0.0908
  140OSM    O1115272   0.993   1.455   5.772  0.0020 -0.2917  0.7811
  140OSM    O1215273   0.953   1.524   5.528 -0.7517 -0.4489 -0.0822
  140OSM    C1S15274   1.033   1.367   5.877  0.1671  1.1161 -0.5858
  140OSM    H1S15275   1.137   1.365   5.915  0.2001  1.3043 -0.6640
  140OSM    H1T15276   1.011   1.262   5.851  1.1147  0.8552 -0.3259
  140OSM     NF15277   1.017   1.327   6.123 -0.0716  0.0427 -0.2347
  140OSM    HNF15278   0.963   1.251   6.159  1.1130 -1.3719 -1.3769
  140OSM    C2S15279   0.959   1.399   6.009  0.9708  0.8114 -0.9642
  140OSM    H2S15280   0.970   1.508   6.025  3.4370  0.3886  0.4074
  140OSM    C3S15281   0.811   1.360   5.997  0.4543  0.0250  0.4522
  140OSM    H3S15282   0.803   1.251   5.976  0.2951  0.3250 -1.1049
  140OSM     O315283   0.746   1.424   5.890  0.6289  0.6810  0.5447
  140OSM    HO315284   0.815   1.448   5.827 -0.5327  1.1471 -0.5890
  140OSM    C4S15285   0.738   1.384   6.127 -0.8993 -0.3257 -0.1010
  140OSM    H4S15286   0.718   1.287   6.175 -0.6856  0.9607  2.6774
  140OSM    C5S15287   0.701   1.501   6.183 -0.2301  0.1242 -0.2975
  140OSM    H5S15288   0.734   1.597   6.141 -0.1307 -0.4867 -1.6393
  140OSM    C6S15289   0.636   1.503   6.320 -0.0792  0.5123 -0.1986
  140OSM    H6S15290   0.595   1.407   6.358 -0.0536  1.0164  1.1459
  140OSM    H6T15291   0.562   1.584   6.303  2.6304  2.7083 -2.0059
  140OSM    C7S15292   0.734   1.541   6.436 -0.1764  0.7251 -0.1409
  140OSM    H7S15293   0.667   1.586   6.513 -1.4050 -0.9819 -0.2037
  140OSM    H7T15294   0.810   1.618   6.409  0.1398  0.2469 -0.6153
  140OSM    C8S15295   0.809   1.416   6.485 -0.3628 -0.2453  0.5813
  140OSM    H8S15296   0.836   1.337   6.412  0.4562 -1.2859  1.9683
  140OSM    H8T15297   0.751   1.373   6.570  0.1622 -0.2906  0.9229
  140OSM    C9S15298   0.945   1.450   6.551 -0.3025 -0.3764  0.0636
  140OSM    H9S15299   1.018   1.483   6.475 -0.5937 -3.3103 -1.5455
  140OSM    H9T15300   0.981   1.355   6.595  0.4663 -1.3133 -2.5043
  140OSM   C10S15301   0.941   1.547   6.666  0.4530  0.1037  0.1709
  140OSM   H10S15302   0.910   1.648   6.632  1.0939  0.0385 -0.6205
  140OSM   H10T15303   1.043   1.555   6.712  0.2571  0.3850  0.5666
  140OSM   C11S15304   0.843   1.512   6.782 -0.1285  0.0921 -0.2600
  140OSM   H11S15305   0.835   1.401   6.785 -1.6636  0.2031  0.9325
  140OSM   H11T15306   0.747   1.556   6.748 -0.7148  0.3455  1.6212
  140OSM   C12S15307   0.889   1.573   6.911  0.4489 -0.3330  0.4719
  140OSM   H12S15308   0.912   1.679   6.890 -1.2387 -0.4752 -2.4970
  140OSM   H12T15309   0.977   1.517   6.946 -0.3615 -1.3505  0.9108
  140OSM   C13S15310   0.791   1.567   7.022 -0.3593 -0.8358  0.4723
  140OSM   H13S15311   0.781   1.463   7.059 -0.8210 -1.5725 -1.6592
  140OSM   H13T15312   0.687   1.593   6.995 -0.6877 -1.5499  1.0519
  140OSM   C14S15313   0.834   1.644   7.156 -0.0828 -0.2847 -0.1673
  140OSM   H14S15314   0.832   1.752   7.131  0.1842  0.0277  1.1518
  140OSM   H14T15315   0.938   1.629   7.191  0.0416 -1.1982 -0.9056
  140OSM   C15S15316   0.753   1.602   7.278  0.1896 -1.0952  0.3945
  140OSM   H15S15317   0.707   1.501   7.268 -0.9254 -0.8147  2.4151
  140OSM   H15T15318   0.676   1.682   7.278 -2.6227 -3.6894 -0.8891
  140OSM   C16S15319   0.831   1.619   7.410 -0.6777  0.4253  0.3122
  140OSM   H16S15320   0.886   1.714   7.393 -0.1008 -0.3080 -2.0143
  140OSM   H16T15321   0.914   1.546   7.418 -0.5456  0.5614  0.1827
  140OSM   C17S15322   0.751   1.639   7.541  0.2509 -1.1683  0.5969
  140OSM   H17S15323   0.815   1.637   7.631  1.1297 -1.4545 -0.0324
  140OSM   H17T15324   0.672   1.562   7.556  0.4183 -1.4860 -0.1307
  140OSM   C18S15325   0.659   1.763   7.552  0.1669 -0.2908  0.2135
  140OSM   H18S15326   0.575   1.767   7.479  1.1114 -2.4412 -1.0372
  140OSM   H18T15327   0.720   1.852   7.529  0.2436  0.2492  2.3523
  140OSM   H18U15328   0.626   1.780   7.657 -1.2277  0.4731 -0.3322
  140OSM    C1F15329   1.129   1.351   6.177 -0.6142 -0.3471  0.0613
  140OSM     OF15330   1.205   1.433   6.126  0.5232  0.3270 -0.7297
  140OSM    C2F15331   1.158   1.281   6.303 -0.1226 -0.1901 -0.0403
  140OSM    H2F15332   1.190   1.177   6.280 -2.6005 -1.3441  1.4988
  140OSM    H2G15333   1.063   1.283   6.361 -0.3811 -1.0928 -0.4214
  140OSM    C3F15334   1.256   1.362   6.387 -1.1083  0.5748  0.8080
  140OSM    H3F15335   1.226   1.469   6.385 -0.7974  0.6578  0.3970
  140OSM    H3G15336   1.350   1.376   6.329 -1.2375  1.7731  0.8670
  140OSM    C4F15337   1.285   1.328   6.529  0.0521 -0.3299 -0.3075
  140OSM    H4F15338   1.318   1.222   6.535 -1.1590 -0.7471 -0.9797
  140OSM    H4G15339   1.192   1.331   6.590  0.7120  0.5677  0.6845
  140OSM    C5F15340   1.377   1.433   6.586 -0.2477 -0.6853  0.7295
  140OSM    H5F15341   1.332   1.534   6.580  1.0714 -0.0506  1.2429
  140OSM    H5G15342   1.473   1.432   6.530 -0.1681 -2.0964  0.8757
  140OSM    C6F15343   1.415   1.394   6.734  0.9040 -0.3280  0.5348
  140OSM    H6F15344   1.492   1.465   6.771 -0.0521  0.6862  0.6240
  140OSM    H6G15345   1.459   1.292   6.733  0.1094 -0.7243  2.7260
  140OSM    C7F15346   1.300   1.414   6.833  0.3114 -0.5388  0.0380
  140OSM    H7F15347   1.220   1.337   6.822 -0.9188  0.7529 -0.1961
  140OSM    H7G15348   1.263   1.517   6.815  2.3011  0.4484  1.3886
  140OSM    C8F15349   1.351   1.410   6.983  0.1415 -0.1659 -0.0704
  140OSM    H8F15350   1.439   1.478   6.994 -0.9904  1.4654 -0.8518
  140OSM    H8G15351   1.396   1.310   7.003 -0.7275 -0.9141 -1.7333
  140OSM    C9F15352   1.247   1.466   7.076  0.5307 -0.2722  0.0822
  140OSM    H9F15353   1.201   1.559   7.038  2.9959  0.6081 -0.8841
  140OSM   C10F15354   1.210   1.409   7.190  0.1791 -0.4042 -1.0522
  140OSM   H10F15355   1.135   1.460   7.253  0.2773 -0.2490 -1.0604
  140OSM   C11F15356   1.260   1.283   7.254 -0.6415  0.4265  0.2372
  140OSM   H11F15357   1.343   1.227   7.206 -2.1923 -0.3572 -1.6082
  140OSM   H11G15358   1.176   1.210   7.263 -0.8337  0.9505  3.2822
  140OSM   C12F15359   1.299   1.298   7.406  0.3413  0.0361  0.1839
  140OSM   H12F15360   1.213   1.343   7.460  0.6766  0.2629  0.5355
  140OSM   H12G15361   1.392   1.359   7.409  1.0303 -1.0410  1.5369
  140OSM   C13F15362   1.324   1.162   7.468  0.5695  0.4449  0.5252
  140OSM   H13F15363   1.402   1.117   7.402 -1.2234  0.6472 -1.7711
  140OSM   H13G15364   1.232   1.101   7.457  0.8852 -0.2376  1.5889
  140OSM   C14F15365   1.369   1.166   7.621 -0.3459  0.6150  1.0902
  140OSM   H14F15366   1.272   1.170   7.675 -1.6422 -0.5660 -1.0712
  140OSM   H14G15367   1.430   1.255   7.648  2.5635 -0.7460 -0.7192
  140OSM   C15F15368   1.441   1.038   7.676  0.2833  0.2892 -0.0928
  140OSM   H15F15369   1.534   1.015   7.621  0.3025  2.5530 -1.0450
  140OSM   H15G15370   1.375   0.949   7.671  1.5931 -0.6597 -0.5144
  140OSM   C16F15371   1.481   1.061   7.818 -0.5330  0.4604  0.0444
  140OSM   H16F15372   1.389   1.045   7.878  0.2341 -0.6955  0.9365
  140OSM   H16G15373   1.515   1.164   7.840 -1.1675  0.7752 -0.4499
  140OSM   C17F15374   1.600   0.970   7.865  0.0341 -0.0565  0.0234
  140OSM   H17F15375   1.690   1.023   7.829 -2.2566  3.7520 -0.4005
  140OSM   H17G15376   1.604   0.869   7.820 -2.0769  0.2874 -1.0051
  140OSM   C18F15377   1.620   0.960   8.020 -0.2345  0.5746 -0.4783
  140OSM   H18F15378   1.620   0.854   8.054  1.1911  0.4085 -0.9933
  140OSM   H18G15379   1.538   1.009   8.078  0.8200 -1.3538  2.7794
  140OSM   H18H15380   1.721   0.993   8.049 -0.5619 -0.3159  1.7888
  141OSM      N15381   0.016   5.575   5.407 -0.3713 -0.6461 -0.5881
  141OSM    C1515382   0.141   5.575   5.328  0.2606 -0.8336  1.0943
  141OSM   H15A15383   0.213   5.505   5.367  1.6361 -0.7301 -1.1547
  141OSM   H15B15384   0.180   5.671   5.297 -0.6070 -1.1190 -0.9572
  141OSM   H15C15385   0.123   5.521   5.236 -2.4366 -0.8901  1.6131
  141OSM    C1415386  -0.060   5.693   5.368 -0.6273  0.3428  0.2652
  141OSM   H14A15387  -0.090   5.683   5.265  0.7578  0.4847 -0.1696
  141OSM   H14B15388  -0.010   5.788   5.379 -2.2014  1.0970  1.0990
  141OSM   H14C15389  -0.153   5.692   5.422 -0.6999  2.3278  0.2097
  141OSM    C1315390  -0.059   5.451   5.376  0.0997 -0.1214  0.3126
  141OSM   H13A15391  -0.135   5.432   5.451 -0.2822  1.1440  0.2517
  141OSM   H13B15392  -0.000   5.360   5.373  1.4813  0.7380  0.9940
  141OSM   H13C15393  -0.100   5.445   5.277 -1.4771 -0.1742  0.9495
  141OSM    C1215394   0.045   5.595   5.551 -0.3151  0.3726  0.1771
  141OSM   H12A15395   0.086   5.693   5.571 -0.9382  0.5079  0.8280
  141OSM   H12B15396   0.126   5.529   5.579 -0.6287 -0.5468 -1.0632
  141OSM    C1115397  -0.067   5.562   5.655  0.0171  0.3620 -0.3273
  141OSM   H11A15398  -0.144   5.639   5.633 -0.7883 -0.3345 -0.0024
  141OSM   H11B15399  -0.025   5.575   5.757  0.4430 -0.1739 -0.4337
  141OSM      P15400  -0.239   5.368   5.719 -0.1107 -0.1223  0.2475
  141OSM    O1315401  -0.354   5.464   5.707 -0.5079 -0.0044 -0.0581
  141OSM    O1415402  -0.267   5.223   5.692  0.6826 -0.0970 -0.8803
  141OSM    O1115403  -0.186   5.381   5.872  1.0659 -0.3881  0.3171
  141OSM    O1215404  -0.122   5.424   5.632 -0.1063 -0.5924 -0.4263
  141OSM    C1S15405  -0.286   5.333   5.967  0.2833 -0.3988  0.1354
  141OSM    H1S15406  -0.390   5.348   5.932 -0.2674  0.9791  2.2404
  141OSM    H1T15407  -0.283   5.389   6.064 -0.2458  0.2993 -0.2518
  141OSM     NF15408  -0.356   5.147   6.116 -0.1006 -0.3231  0.7810
  141OSM    HNF15409  -0.320   5.125   6.206 -0.0478 -1.2835  0.5307
  141OSM    C2S15410  -0.270   5.185   6.007  0.0146  0.9573 -0.4642
  141OSM    H2S15411  -0.293   5.123   5.917 -2.4186 -1.1665  1.5421
  141OSM    C3S15412  -0.117   5.154   6.046 -0.0040  0.2403  0.0324
  141OSM    H3S15413  -0.100   5.207   6.142 -2.6944  0.8475  0.2148
  141OSM     O315414  -0.023   5.203   5.952  0.8179  0.1520 -0.4310
  141OSM    HO315415  -0.065   5.280   5.913 -0.7787 -0.1778  0.5956
  141OSM    C4S15416  -0.098   5.011   6.061 -0.4923 -0.8184 -0.2742
  141OSM    H4S15417  -0.113   4.953   5.969 -0.9872 -0.3777 -0.4713
  141OSM    C5S15418  -0.064   4.943   6.177 -0.5618 -0.3681  0.1507
  141OSM    H5S15419  -0.037   5.000   6.267 -2.0984 -0.2051  0.5319
  141OSM    C6S15420  -0.051   4.796   6.192  0.2046  0.8688 -0.1558
  141OSM    H6S15421  -0.122   4.749   6.120 -1.4864  2.2110  0.5798
  141OSM    H6T15422  -0.085   4.767   6.293 -1.5406  2.4439 -0.2541
  141OSM    C7S15423   0.090   4.743   6.165 -0.3310  0.7481 -0.3628
  141OSM    H7S15424   0.122   4.769   6.062  0.5328  1.7139  0.1428
  141OSM    H7T15425   0.084   4.632   6.152  2.5700  0.5782 -0.5944
  141OSM    C8S15426   0.201   4.785   6.265 -1.0261 -0.2294 -0.7028
  141OSM    H8S15427   0.195   4.895   6.279 -1.2352 -0.2693 -0.4654
  141OSM    H8T15428   0.294   4.766   6.208 -0.1981 -1.3173  0.9747
  141OSM    C9S15429   0.203   4.722   6.399  0.6369 -0.6622 -0.8400
  141OSM    H9S15430   0.200   4.611   6.397 -3.2820 -0.6553 -0.1178
  141OSM    H9T15431   0.107   4.754   6.447 -0.9091 -0.0008 -4.2201
  141OSM   C10S15432   0.322   4.761   6.490 -0.3762 -0.1617 -0.2887
  141OSM   H10S15433   0.322   4.872   6.502  1.1993 -0.3518  1.6974
  141OSM   H10T15434   0.417   4.730   6.441 -0.3030 -0.6705  0.1810
  141OSM   C11S15435   0.321   4.689   6.615  0.6566  0.3897 -0.2266
  141OSM   H11S15436   0.343   4.581   6.604 -2.8758 -0.4177  0.1149
  141OSM   H11T15437   0.216   4.695   6.652  1.0157 -0.5835  0.9660
  141OSM   C12S15438   0.414   4.755   6.720 -0.6067 -0.1357 -0.1647
  141OSM   H12S15439   0.378   4.859   6.734  1.5360  0.8961 -1.9782
  141OSM   H12T15440   0.514   4.762   6.672 -0.4402  2.5700  0.5091
  141OSM   C13S15441   0.404   4.674   6.852  0.6141 -0.2211 -0.8708
  141OSM   H13S15442   0.484   4.597   6.854  0.0770 -0.7960 -1.4200
  141OSM   H13T15443   0.313   4.610   6.849  1.5068 -1.5248 -0.4168
  141OSM   C14S15444   0.406   4.756   6.983  0.2781 -0.2772 -0.1663
  141OSM   H14S15445   0.311   4.813   6.973 -1.9872 -3.5943  1.5259
  141OSM   H14T15446   0.501   4.814   6.985 -0.3223  0.7376 -0.6168
  141OSM   C15S15447   0.403   4.662   7.101 -0.1593 -0.9436 -0.8881
  141OSM   H15S15448   0.492   4.596   7.101  0.1049 -0.6002  0.3795
  141OSM   H15T15449   0.309   4.603   7.102 -0.1903 -0.8723  1.1452
  141OSM   C16S15450   0.396   4.740   7.234  0.0811  0.1333  0.0363
  141OSM   H16S15451   0.314   4.814   7.228  0.1432  0.1400 -0.7397
  141OSM   H16T15452   0.488   4.802   7.230  0.0696  0.1648  0.2278
  141OSM   C17S15453   0.379   4.653   7.358  0.0357 -0.2281  0.5264
  141OSM   H17S15454   0.281   4.602   7.370  0.4014 -0.7619  1.3052
  141OSM   H17T15455   0.392   4.724   7.442 -2.2767  0.4114  0.3886
  141OSM   C18S15456   0.475   4.541   7.376 -0.1321  0.3739 -0.0030
  141OSM   H18S15457   0.481   4.485   7.280  1.9756 -1.1748  0.9894
  141OSM   H18T15458   0.444   4.473   7.458 -0.3667  1.5913  0.9238
  141OSM   H18U15459   0.581   4.565   7.398 -0.0959 -0.3171  0.6206
  141OSM    C1F15460  -0.480   5.134   6.086  0.2462 -0.1475 -0.0516
  141OSM     OF15461  -0.513   5.132   5.969  0.4902  0.3098 -0.2367
  141OSM    C2F15462  -0.579   5.115   6.195  1.1090 -0.1142  0.8003
  141OSM    H2F15463  -0.644   5.031   6.161  0.7761 -0.0938  1.3583
  141OSM    H2G15464  -0.644   5.205   6.191 -0.9390 -1.5811 -0.1102
  141OSM    C3F15465  -0.516   5.088   6.339  0.1973 -0.4861 -0.0161
  141OSM    H3F15466  -0.446   5.002   6.342  1.8960  0.8890  1.8724
  141OSM    H3G15467  -0.603   5.067   6.404 -1.4931 -0.4669 -2.2267
  141OSM    C4F15468  -0.455   5.213   6.404 -0.3462 -0.4694  0.2245
  141OSM    H4F15469  -0.537   5.288   6.419  0.4287  0.0545  2.0614
  141OSM    H4G15470  -0.385   5.255   6.329 -0.3024 -1.3101 -0.2087
  141OSM    C5F15471  -0.373   5.191   6.537  0.0681 -0.0915  0.4730
  141OSM    H5F15472  -0.425   5.133   6.616  0.0541  0.2749  0.7355
  141OSM    H5G15473  -0.351   5.291   6.580 -1.0109  0.8229 -1.0578
  141OSM    C6F15474  -0.245   5.108   6.514  0.4022  0.8357 -0.2140
  141OSM    H6F15475  -0.188   5.157   6.433  2.2596 -0.4742  0.2613
  141OSM    H6G15476  -0.267   5.006   6.474  4.4422  0.3011 -1.2472
  141OSM    C7F15477  -0.147   5.092   6.629 -0.1272 -0.0214  0.3996
  141OSM    H7F15478  -0.200   5.019   6.694  2.3291 -0.2129  2.2674
  141OSM    H7G15479  -0.128   5.179   6.696  0.1803 -0.5279  0.9792
  141OSM    C8F15480  -0.013   5.027   6.580  0.1844  0.4122  0.5321
  141OSM    H8F15481   0.027   5.068   6.485 -0.6984  2.7317  1.1310
  141OSM    H8G15482  -0.047   4.924   6.558  1.5519  0.7165 -3.2821
  141OSM    C9F15483   0.094   5.030   6.690  0.0562 -0.4468  0.1571
  141OSM    H9F15484   0.152   5.122   6.708  0.8369 -1.1278  1.0899
  141OSM   C10F15485   0.115   4.935   6.789 -0.5482 -0.1362  0.3480
  141OSM   H10F15486   0.196   4.936   6.863 -0.0507  0.8102 -0.2026
  141OSM   C11F15487   0.030   4.809   6.809  0.3045 -0.3841  0.0261
  141OSM   H11F15488   0.098   4.721   6.805 -0.3348 -0.8835  0.0927
  141OSM   H11G15489  -0.041   4.779   6.729 -0.6511 -5.3961  2.5681
  141OSM   C12F15490  -0.049   4.808   6.942  0.2421  0.6071  0.0330
  141OSM   H12F15491  -0.136   4.740   6.939  0.7541 -0.1260  1.3401
  141OSM   H12G15492  -0.096   4.907   6.960 -0.4584  0.1958  0.4450
  141OSM   C13F15493   0.041   4.781   7.064 -0.4219 -0.8319 -0.4863
  141OSM   H13F15494   0.122   4.857   7.071  0.5025 -1.9425  1.4057
  141OSM   H13G15495   0.100   4.689   7.048  1.4064  0.5012 -1.5795
  141OSM   C14F15496  -0.021   4.788   7.201  0.6155 -0.6132 -0.3678
  141OSM   H14F15497  -0.066   4.889   7.207 -0.2439 -1.0902  1.7357
  141OSM   H14G15498   0.054   4.781   7.283  1.7093 -2.1643 -1.4574
  141OSM   C15F15499  -0.141   4.697   7.232  0.2210  0.1883 -0.1097
  141OSM   H15F15500  -0.098   4.595   7.220  1.1324  0.4224  1.0490
  141OSM   H15G15501  -0.228   4.720   7.167 -0.1647  0.3864  0.4775
  141OSM   C16F15502  -0.181   4.710   7.378  0.1702  0.8118  0.8484
  141OSM   H16F15503  -0.252   4.795   7.387  0.2291  1.0001 -0.3284
  141OSM   H16G15504  -0.094   4.732   7.444  0.6166 -0.1792  0.5926
  141OSM   C17F15505  -0.249   4.579   7.437  0.3236 -0.0093 -0.0717
  141OSM   H17F15506  -0.180   4.493   7.441  0.7559  0.3478  0.1218
  141OSM   H17G15507  -0.334   4.537   7.379 -1.1063 -2.6868  3.7492
  141OSM   C18F15508  -0.298   4.606   7.581 -0.3995 -0.7874  0.1595
  141OSM   H18F15509  -0.386   4.675   7.581 -1.1039 -1.6453  2.0035
  141OSM   H18G15510  -0.215   4.639   7.648 -1.0127  0.5342  0.2847
  141OSM   H18H15511  -0.331   4.508   7.621  3.5092 -1.1017  2.8533
  142OSM      N15512   0.350   6.345   5.718 -0.1876 -0.2609 -0.4515
  142OSM    C1515513   0.310   6.463   5.630  0.3253  0.1437 -0.2751
  142OSM   H15A15514   0.394   6.486   5.566  0.9127  1.4768  0.9520
  142OSM   H15B15515   0.283   6.541   5.699  0.5525 -0.9629  1.0926
  142OSM   H15C15516   0.223   6.435   5.573 -1.2563  0.1606  2.0861
  142OSM    C1415517   0.413   6.240   5.632  0.3643 -0.0790  0.1843
  142OSM   H14A15518   0.341   6.191   5.568  1.0212 -2.2213  1.0658
  142OSM   H14B15519   0.448   6.162   5.698  0.0368  0.0898  0.5619
  142OSM   H14C15520   0.502   6.280   5.585  0.8323 -1.7075 -0.3172
  142OSM    C1315521   0.456   6.388   5.818  0.1985  0.3218  1.3598
  142OSM   H13A15522   0.416   6.467   5.881  2.0635  2.1976  0.2436
  142OSM   H13B15523   0.547   6.426   5.776 -0.6490  1.7856  0.8022
  142OSM   H13C15524   0.479   6.306   5.884 -3.0097 -2.1886 -0.4598
  142OSM    C1215525   0.232   6.291   5.794 -0.2743  0.6554  0.9385
  142OSM   H12A15526   0.199   6.366   5.865  0.2602  2.0879 -0.2977
  142OSM   H12B15527   0.265   6.207   5.853 -1.9838 -1.3239 -0.8296
  142OSM    C1115528   0.111   6.234   5.721  0.0381 -0.0942 -0.0692
  142OSM   H11A15529   0.070   6.306   5.647 -1.5254 -3.4142 -2.5588
  142OSM   H11B15530   0.025   6.204   5.784  0.2203 -1.3862 -0.4241
  142OSM      P15531   0.153   5.982   5.707 -0.0757 -0.1887 -0.0728
  142OSM    O1315532   0.128   5.869   5.617  0.0740  0.0149 -0.2325
  142OSM    O1415533   0.279   5.984   5.791  0.1518  0.2503  0.0019
  142OSM    O1115534   0.032   5.979   5.811  0.0387  0.5039  0.1498
  142OSM    O1215535   0.145   6.127   5.639 -0.3002  0.3097 -0.2359
  142OSM    C1S15536   0.006   5.865   5.895  0.1072 -0.5592  0.4952
  142OSM    H1S15537   0.040   5.767   5.854 -1.9344 -0.2138 -2.0839
  142OSM    H1T15538  -0.103   5.874   5.914  0.0829 -2.4227  1.4000
  142OSM     NF15539   0.057   5.757   6.099  0.0350 -0.0180  0.0486
  142OSM    HNF15540  -0.018   5.754   6.165 -1.1372  0.3707 -1.2288
  142OSM    C2S15541   0.076   5.883   6.026  0.3018 -0.0956  0.7127
  142OSM    H2S15542   0.181   5.908   6.000 -0.6440  2.8110 -0.5012
  142OSM    C3S15543   0.017   5.993   6.110  0.3315 -0.3091  0.3937
  142OSM    H3S15544  -0.084   5.961   6.143  0.0792  0.0357 -0.0523
  142OSM     O315545   0.018   6.130   6.059 -0.5111  0.2166 -0.1751
  142OSM    HO315546   0.016   6.122   5.964  1.9446  1.4149 -0.3659
  142OSM    C4S15547   0.094   6.003   6.244  0.1136 -0.1304  0.2279
  142OSM    H4S15548   0.172   6.080   6.247  0.2429 -0.1852 -1.2088
  142OSM    C5S15549   0.056   5.948   6.358  0.7675 -0.2360 -0.1887
  142OSM    H5S15550  -0.048   5.913   6.364  0.3750  0.7931 -0.9229
  142OSM    C6S15551   0.135   5.968   6.486  0.7505 -0.1598  0.2842
  142OSM    H6S15552   0.095   5.903   6.567  1.3224  0.2759  0.9180
  142OSM    H6T15553   0.105   6.069   6.521 -0.4862 -0.9548  1.5563
  142OSM    C7S15554   0.286   5.936   6.462 -0.1664 -0.0111 -0.0041
  142OSM    H7S15555   0.337   5.944   6.560  0.2746 -2.0104 -0.0651
  142OSM    H7T15556   0.337   6.015   6.403  3.4791 -1.6249  0.8629
  142OSM    C8S15557   0.315   5.803   6.389 -0.2235  0.1111  0.1586
  142OSM    H8S15558   0.272   5.799   6.286 -0.9441  0.6590  0.4368
  142OSM    H8T15559   0.266   5.721   6.445 -0.7432  1.0292  1.0648
  142OSM    C9S15560   0.462   5.763   6.388 -0.7196  0.4649 -0.0354
  142OSM    H9S15561   0.521   5.834   6.326 -0.2621  0.7505  0.7148
  142OSM    H9T15562   0.458   5.666   6.335  1.3182 -0.2760  1.1209
  142OSM   C10S15563   0.530   5.751   6.531  1.3835  0.4543  0.6710
  142OSM   H10S15564   0.525   5.849   6.583 -2.4742  1.8796 -2.1370
  142OSM   H10T15565   0.638   5.726   6.524  0.9095 -1.3811 -0.4549
  142OSM   C11S15566   0.459   5.654   6.630  0.9883  0.3993  0.2715
  142OSM   H11S15567   0.450   5.558   6.574 -1.3534  1.5717 -1.4316
  142OSM   H11T15568   0.353   5.685   6.629  1.2203  1.2651 -3.2853
  142OSM   C12S15569   0.524   5.637   6.768 -0.1004 -0.7236  0.6773
  142OSM   H12S15570   0.631   5.611   6.751  0.7272  1.2825  2.6128
  142OSM   H12T15571   0.473   5.553   6.821 -0.2698 -1.3906 -0.5364
  142OSM   C13S15572   0.512   5.754   6.864  0.1911  0.1221  1.0385
  142OSM   H13S15573   0.407   5.789   6.864  0.4529  0.9131  1.5246
  142OSM   H13T15574   0.575   5.842   6.840 -0.2289 -0.4014 -2.1737
  142OSM   C14S15575   0.519   5.695   7.010  0.1795 -0.5176  0.4190
  142OSM   H14S15576   0.607   5.631   7.034 -0.4838 -0.5396  2.9351
  142OSM   H14T15577   0.435   5.623   7.018 -0.0460 -0.8108 -3.4280
  142OSM   C15S15578   0.505   5.811   7.108 -0.0383  0.2194  0.4799
  142OSM   H15S15579   0.413   5.865   7.078  0.1048  1.1438  1.6597
  142OSM   H15T15580   0.593   5.880   7.102  0.6012 -0.4601  1.8103
  142OSM   C16S15581   0.476   5.763   7.253 -0.2117 -0.5673 -0.3477
  142OSM   H16S15582   0.568   5.733   7.308 -0.2072  0.0897  0.0159
  142OSM   H16T15583   0.405   5.678   7.255 -1.4439  0.4558 -0.2056
  142OSM   C17S15584   0.414   5.887   7.333 -0.4186 -0.0672  0.5389
  142OSM   H17S15585   0.372   5.853   7.429 -0.7953 -0.3551  0.2753
  142OSM   H17T15586   0.328   5.918   7.271 -0.5479 -0.3081  0.5987
  142OSM   C18S15587   0.505   6.002   7.358  0.8592  0.2246  0.2879
  142OSM   H18S15588   0.576   5.986   7.442  1.5192 -1.3200 -0.5366
  142OSM   H18T15589   0.443   6.086   7.396  2.0104  1.1615  0.1138
  142OSM   H18U15590   0.557   6.032   7.264 -0.0510  2.6986  0.5330
  142OSM    C1F15591   0.102   5.637   6.071  0.4728 -0.3026 -0.3624
  142OSM     OF15592   0.177   5.610   5.975 -0.0035  0.1295 -0.0483
  142OSM    C2F15593   0.050   5.530   6.158 -0.1005  0.2685 -0.2120
  142OSM    H2F15594  -0.035   5.482   6.105  0.6044  0.1105 -1.2147
  142OSM    H2G15595   0.013   5.564   6.257  1.7481 -0.2547  0.6937
  142OSM    C3F15596   0.169   5.436   6.204  0.6656  0.4197  0.5492
  142OSM    H3F15597   0.240   5.493   6.268  1.2670  2.0583 -1.5191
  142OSM    H3G15598   0.222   5.391   6.117  1.1182  0.9117  0.5682
  142OSM    C4F15599   0.128   5.324   6.300 -0.5339 -0.3066 -0.5444
  142OSM    H4F15600   0.167   5.235   6.247  0.2367 -0.2264 -0.1151
  142OSM    H4G15601   0.019   5.325   6.318 -0.4611 -0.8374 -0.0887
  142OSM    C5F15602   0.177   5.331   6.446  0.0375 -0.1753 -0.4835
  142OSM    H5F15603   0.288   5.342   6.442  0.0612 -0.3739 -0.3900
  142OSM    H5G15604   0.151   5.243   6.509 -0.7622  0.4620  0.0833
  142OSM    C6F15605   0.110   5.454   6.518 -0.0687  1.2252  0.4121
  142OSM    H6F15606  -0.001   5.442   6.515 -0.0875  1.6148 -3.3683
  142OSM    H6G15607   0.147   5.544   6.465 -1.4245  1.4204 -0.2309
  142OSM    C7F15608   0.147   5.459   6.669 -0.6093 -0.3634 -0.1633
  142OSM    H7F15609   0.258   5.461   6.673 -0.4231 -2.3491 -2.9322
  142OSM    H7G15610   0.127   5.365   6.724  0.5503 -1.8857 -2.2386
  142OSM    C8F15611   0.090   5.583   6.733  0.5609  0.0178  0.3735
  142OSM    H8F15612  -0.018   5.566   6.754  0.6085 -0.9223 -0.1474
  142OSM    H8G15613   0.116   5.679   6.683  3.1341 -0.7162  0.2649
  142OSM    C9F15614   0.146   5.596   6.879 -0.3505  1.1875  0.8065
  142OSM    H9F15615   0.219   5.519   6.906  0.5502  2.1178  1.0493
  142OSM   C10F15616   0.135   5.703   6.955  0.1139  0.6512 -0.4923
  142OSM   H10F15617   0.191   5.697   7.050 -0.4101  2.2921 -0.0683
  142OSM   C11F15618   0.052   5.827   6.925  0.5821  0.4860  0.2972
  142OSM   H11F15619  -0.037   5.824   6.992  1.2367  1.2361  1.2210
  142OSM   H11G15620   0.007   5.830   6.824  0.7475 -1.0938  0.1632
  142OSM   C12F15621   0.135   5.957   6.934  0.4647  0.2111 -0.5472
  142OSM   H12F15622   0.223   5.944   6.867  1.1144  1.7871 -0.0339
  142OSM   H12G15623   0.166   5.979   7.039  1.6619  3.0248 -1.4194
  142OSM   C13F15624   0.044   6.079   6.902  0.5398  0.1415  0.0220
  142OSM   H13F15625  -0.026   6.052   6.820  1.6990  2.1936 -1.7074
  142OSM   H13G15626   0.097   6.174   6.878 -0.1037  0.5837  0.3145
  142OSM   C14F15627  -0.052   6.122   7.018  0.2426 -0.1219  0.2820
  142OSM   H14F15628  -0.131   6.045   7.027 -1.1037  1.1866  0.0051
  142OSM   H14G15629  -0.097   6.221   6.994  0.6187 -0.5241 -2.1459
  142OSM   C15F15630   0.024   6.134   7.159 -0.6367  0.1132  0.6357
  142OSM   H15F15631   0.125   6.178   7.141 -1.1099  0.1931 -2.1737
  142OSM   H15G15632   0.041   6.033   7.200  1.7781  0.2869  0.1165
  142OSM   C16F15633  -0.059   6.227   7.254 -0.3406  0.1430 -0.2278
  142OSM   H16F15634  -0.163   6.188   7.251 -0.3811  0.2434 -0.0709
  142OSM   H16G15635  -0.070   6.327   7.207 -1.7603  0.2217  0.2463
  142OSM   C17F15636  -0.004   6.232   7.395  0.3200  0.3369  0.3282
  142OSM   H17F15637  -0.050   6.318   7.448 -2.5262  0.1872 -1.8111
  142OSM   H17G15638   0.107   6.234   7.383  0.4983 -2.8256  1.1474
  142OSM   C18F15639  -0.025   6.101   7.469  0.6695 -0.2129  0.3097
  142OSM   H18F15640  -0.118   6.120   7.527  0.2338  0.0964 -0.4927
  142OSM   H18G15641   0.064   6.096   7.535  1.1079 -1.9955 -0.3851
  142OSM   H18H15642  -0.026   6.012   7.402  2.1083  1.2285 -1.6781
  143OSM      N15643   0.993   0.036   5.493 -0.5543  0.3952  0.0604
  143OSM    C1515644   0.883   0.119   5.442  1.5222 -0.0756  0.2764
  143OSM   H15A15645   0.884   0.223   5.472 -1.3814 -0.1541  0.7713
  143OSM   H15B15646   0.785   0.086   5.472  0.7847  3.3724  2.0037
  143OSM   H15C15647   0.881   0.119   5.334  1.3140  3.4972  0.2026
  143OSM    C1415648   0.997  -0.093   5.421 -0.4892  0.5953 -0.6421
  143OSM   H14A15649   0.896  -0.131   5.425 -0.2680  0.2570  3.2270
  143OSM   H14B15650   1.068  -0.166   5.457 -1.1597 -1.6126 -3.5492
  143OSM   H14C15651   1.023  -0.095   5.316  0.3526 -3.4230 -0.4460
  143OSM    C1315652   1.123   0.111   5.477 -0.5529  0.2953  0.9649
  143OSM   H13A15653   1.211   0.050   5.493  0.2334  1.2301  0.2716
  143OSM   H13B15654   1.125   0.194   5.546  0.8565 -0.0800  1.3949
  143OSM   H13C15655   1.131   0.154   5.378 -3.0314 -1.8511 -0.2295
  143OSM    C1215656   0.965   0.017   5.648 -0.5452 -1.3043 -0.0253
  143OSM   H12A15657   0.978   0.114   5.694  0.7137 -1.9614  1.0296
  143OSM   H12B15658   1.049  -0.037   5.689  1.7120  1.2246 -1.2241
  143OSM    C1115659   0.828  -0.048   5.696 -0.0150  0.0649 -0.5107
  143OSM   H11A15660   0.756  -0.013   5.619 -0.9808 -0.2018  0.2651
  143OSM   H11B15661   0.794  -0.028   5.800 -0.5173 -0.6127 -0.5420
  143OSM      P15662   0.912  -0.282   5.760  0.0382 -0.0232  0.2465
  143OSM    O1315663   0.871  -0.420   5.724  0.7033 -0.2776 -0.0990
  143OSM    O1415664   1.054  -0.242   5.758 -0.1914  0.2605 -1.0448
  143OSM    O1115665   0.850  -0.252   5.901  0.4731  0.2823 -0.2798
  143OSM    O1215666   0.834  -0.185   5.667  0.3464 -0.4290 -0.1611
  143OSM    C1S15667   0.903  -0.155   5.993  0.3217  0.0922  0.2332
  143OSM    H1S15668   0.846  -0.062   5.976  0.1428  0.4015  2.3713
  143OSM    H1T15669   1.010  -0.134   5.973  0.9994 -2.6007  0.8327
  143OSM     NF15670   0.891  -0.096   6.228 -0.5408  0.3913 -0.2787
  143OSM    HNF15671   0.974  -0.093   6.283 -1.0979 -0.5937  0.6582
  143OSM    C2S15672   0.887  -0.212   6.137  0.0329 -0.5355 -0.5463
  143OSM    H2S15673   0.789  -0.261   6.128  0.3802 -1.2470 -0.4572
  143OSM    C3S15674   0.993  -0.325   6.162  0.0196 -0.4827  0.3696
  143OSM    H3S15675   1.097  -0.288   6.146  0.4912 -2.6752 -1.8585
  143OSM     O315676   0.982  -0.431   6.071  0.0762  0.5287 -1.0366
  143OSM    HO315677   0.916  -0.417   6.002 -2.9526 -1.2243  1.3515
  143OSM    C4S15678   0.980  -0.383   6.303  1.0113  0.8000 -1.2313
  143OSM    H4S15679   0.902  -0.458   6.324  1.8848  0.1815 -0.1604
  143OSM    C5S15680   1.061  -0.341   6.403  0.1191  0.0259 -0.1640
  143OSM    H5S15681   1.131  -0.259   6.382  1.7338 -1.9462 -2.8338
  143OSM    C6S15682   1.053  -0.382   6.542  0.6489 -0.3255 -0.4968
  143OSM    H6S15683   1.154  -0.403   6.582  0.4603  1.0289  0.7325
  143OSM    H6T15684   0.997  -0.478   6.548  1.8534 -0.9748  0.7032
  143OSM    C7S15685   0.970  -0.301   6.642  0.7636  0.3158  0.1926
  143OSM    H7S15686   0.872  -0.268   6.600  0.1207  0.1555  1.5307
  143OSM    H7T15687   1.019  -0.206   6.673  3.5849 -0.8386 -0.6018
  143OSM    C8S15688   0.947  -0.384   6.771 -0.4710  0.5786 -0.8233
  143OSM    H8S15689   1.045  -0.405   6.819 -0.5891  1.6212 -0.1195
  143OSM    H8T15690   0.891  -0.479   6.755  1.0650 -0.4059 -0.4077
  143OSM    C9S15691   0.846  -0.320   6.874 -0.0912  0.0597  0.8406
  143OSM    H9S15692   0.741  -0.316   6.837  0.6430  2.9356 -1.1096
  143OSM    H9T15693   0.872  -0.213   6.888 -0.3681  0.1317  0.8024
  143OSM   C10S15694   0.827  -0.391   7.009 -0.7475  0.7837 -0.0762
  143OSM   H10S15695   0.812  -0.498   6.982  2.1829  0.5224 -0.8549
  143OSM   H10T15696   0.736  -0.350   7.057 -0.9598 -0.5438  0.6750
  143OSM   C11S15697   0.945  -0.386   7.098 -0.5410  0.7283  0.2237
  143OSM   H11S15698   0.947  -0.275   7.104 -1.8875  0.8227 -0.7764
  143OSM   H11T15699   1.040  -0.422   7.053  0.5413  2.2808  1.2097
  143OSM   C12S15700   0.905  -0.445   7.231  0.1281  0.0516 -0.0474
  143OSM   H12S15701   0.798  -0.431   7.256  0.0078 -0.7181 -0.1378
  143OSM   H12T15702   0.973  -0.386   7.297  0.9588 -0.4049 -0.4868
  143OSM   C13S15703   0.964  -0.590   7.245  0.5815 -0.0786  0.0075
  143OSM   H13S15704   1.055  -0.582   7.308  0.7966 -0.0080 -0.3109
  143OSM   H13T15705   1.010  -0.627   7.151 -0.7687  0.5057 -0.8921
  143OSM   C14S15706   0.871  -0.686   7.321  0.1666 -0.5000  0.2808
  143OSM   H14S15707   0.913  -0.789   7.322 -2.9509 -1.8049  1.7055
  143OSM   H14T15708   0.774  -0.696   7.268  0.0516 -2.1036  0.7417
  143OSM   C15S15709   0.853  -0.640   7.461 -0.2488  0.7263 -0.0196
  143OSM   H15S15710   0.812  -0.537   7.459  0.4708  1.0703  1.6364
  143OSM   H15T15711   0.949  -0.642   7.517 -1.1773 -1.5252  1.5831
  143OSM   C16S15712   0.761  -0.728   7.548  0.4854 -0.9437 -0.1427
  143OSM   H16S15713   0.785  -0.836   7.535  1.5362 -0.7409  0.0405
  143OSM   H16T15714   0.654  -0.720   7.518  0.4213 -0.4918  0.2098
  143OSM   C17S15715   0.768  -0.696   7.702  0.0716  0.8777  0.3266
  143OSM   H17S15716   0.872  -0.723   7.730  0.2903  2.0126  0.6653
  143OSM   H17T15717   0.695  -0.757   7.760 -0.6510 -0.3470 -1.8118
  143OSM   C18S15718   0.753  -0.547   7.749 -0.4062  0.2737  0.1587
  143OSM   H18S15719   0.788  -0.543   7.854  0.7951  3.2429 -0.3185
  143OSM   H18T15720   0.651  -0.502   7.748 -0.5420  0.0004  1.4052
  143OSM   H18U15721   0.825  -0.477   7.702  2.2770 -1.7427  1.1249
  143OSM    C1F15722   0.792  -0.006   6.238 -0.1457  0.4491 -0.2522
  143OSM     OF15723   0.682  -0.024   6.189  0.6518  0.6563 -0.4583
  143OSM    C2F15724   0.830   0.120   6.311  0.3456  0.0781 -0.0094
  143OSM    H2F15725   0.831   0.196   6.230 -0.5904  1.7697  1.5392
  143OSM    H2G15726   0.925   0.119   6.369  0.1956  1.5528  0.2958
  143OSM    C3F15727   0.723   0.141   6.425 -0.7537  0.4097  0.3330
  143OSM    H3F15728   0.623   0.110   6.389 -0.4327 -0.3552  0.0874
  143OSM    H3G15729   0.716   0.248   6.456 -2.8385 -0.0997  1.6843
  143OSM    C4F15730   0.756   0.057   6.548 -0.3639 -0.6913 -0.3576
  143OSM    H4F15731   0.846   0.094   6.602 -1.1369  0.5144  0.1226
  143OSM    H4G15732   0.770  -0.047   6.513 -1.6712 -0.1487 -2.5208
  143OSM    C5F15733   0.640   0.084   6.651  0.0911  0.0282  0.4712
  143OSM    H5F15734   0.544   0.043   6.613  0.4501 -0.9097  0.5850
  143OSM    H5G15735   0.632   0.194   6.666 -0.3008  0.3920 -2.1392
  143OSM    C6F15736   0.657   0.027   6.792 -0.4724 -0.2769  0.0807
  143OSM    H6F15737   0.698  -0.075   6.782  1.4316  0.2015  2.3184
  143OSM    H6G15738   0.558   0.010   6.839 -1.9831  0.4469 -2.7566
  143OSM    C7F15739   0.742   0.111   6.883 -0.1303 -0.1062  0.3755
  143OSM    H7F15740   0.712   0.217   6.895 -1.2571 -0.2858 -0.7832
  143OSM    H7G15741   0.844   0.114   6.838 -0.8355 -0.9869 -1.3174
  143OSM    C8F15742   0.759   0.054   7.021 -0.6884  0.1212  0.2281
  143OSM    H8F15743   0.842   0.116   7.063  0.3366 -0.3589 -1.0460
  143OSM    H8G15744   0.809  -0.046   7.015 -0.1683  0.4395 -0.8465
  143OSM    C9F15745   0.633   0.063   7.106  0.2413  0.1006  0.9657
  143OSM    H9F15746   0.540   0.049   7.048 -0.3551  0.3086  1.8659
  143OSM   C10F15747   0.623   0.078   7.239 -0.6612  0.4502 -0.2626
  143OSM   H10F15748   0.529   0.095   7.292 -1.9256  0.9391 -2.5792
  143OSM   C11F15749   0.746   0.095   7.326 -0.1124  0.0417  0.2023
  143OSM   H11F15750   0.735   0.184   7.392 -1.4865  0.2008 -0.2205
  143OSM   H11G15751   0.836   0.104   7.261  1.8639  0.9236  2.9724
  143OSM   C12F15752   0.768  -0.021   7.418  0.0793 -0.1995  0.1685
  143OSM   H12F15753   0.878  -0.022   7.436  0.6034  1.4537 -2.6455
  143OSM   H12G15754   0.746  -0.119   7.371 -1.0171  1.1791 -2.2724
  143OSM   C13F15755   0.685  -0.005   7.551 -0.1854  0.2712 -0.6414
  143OSM   H13F15756   0.576   0.004   7.533 -0.2055  2.6139  0.5214
  143OSM   H13G15757   0.709   0.086   7.610  0.0996  0.0151 -0.3613
  143OSM   C14F15758   0.706  -0.117   7.657 -0.3354  0.2815  0.0267
  143OSM   H14F15759   0.813  -0.110   7.688  0.6432  4.6274 -3.7398
  143OSM   H14G15760   0.687  -0.218   7.615  0.2531  0.3070 -0.3095
  143OSM   C15F15761   0.607  -0.097   7.777  0.5436 -0.0700 -0.2041
  143OSM   H15F15762   0.501  -0.102   7.742  0.2130 -2.4059  1.0417
  143OSM   H15G15763   0.624   0.004   7.818  0.3975 -1.4710  3.4744
  143OSM   C16F15764   0.615  -0.200   7.887 -0.8678  0.2156  0.7503
  143OSM   H16F15765   0.722  -0.225   7.902 -0.7657  0.3517  0.2596
  143OSM   H16G15766   0.556  -0.287   7.852  2.2038 -0.4283 -2.9981
  143OSM   C17F15767   0.553  -0.142   8.018 -0.0567 -0.2600  0.2579
  143OSM   H17F15768   0.455  -0.104   7.983 -0.2060  0.3151  1.3115
  143OSM   H17G15769   0.612  -0.055   8.054 -4.1691  2.5409  0.4553
  143OSM   C18F15770   0.523  -0.252   8.115  0.5281  0.2473  0.0915
  143OSM   H18F15771   0.484  -0.226   8.215 -1.8935  0.9835 -1.0160
  143OSM   H18G15772   0.614  -0.311   8.140  2.2231  3.1185  1.0206
  143OSM   H18H15773   0.450  -0.326   8.076 -1.5295  0.8276  2.7621
  144OSM      N15774   6.569   0.470   5.598 -0.5564  0.0667 -0.6172
  144OSM    C1515775   6.484   0.408   5.708  0.3845 -0.6137 -0.3542
  144OSM   H15A15776   6.379   0.433   5.699 -0.2341 -3.4023 -1.2052
  144OSM   H15B15777   6.514   0.442   5.807 -0.9964 -0.3358 -0.0260
  144OSM   H15C15778   6.504   0.302   5.703  2.7146 -0.0984 -3.4836
  144OSM    C1415779   6.707   0.412   5.610  0.3655  0.3447 -0.3224
  144OSM   H14A15780   6.747   0.438   5.706 -2.5714  1.8266  0.5712
  144OSM   H14B15781   6.776   0.469   5.549  0.1056  1.3112  0.2803
  144OSM   H14C15782   6.703   0.307   5.587 -1.6197  0.5049 -0.8169
  144OSM    C1315783   6.503   0.414   5.471 -0.8088 -0.3216  0.6408
  144OSM   H13A15784   6.556   0.437   5.380 -1.6227 -2.3331 -0.3681
  144OSM   H13B15785   6.401   0.448   5.466 -0.3591  0.7932 -1.4083
  144OSM   H13C15786   6.501   0.307   5.482 -2.2194 -0.4753 -0.9205
  144OSM    C1215787   6.568   0.621   5.595 -0.2109  0.1283 -0.0223
  144OSM   H12A15788   6.469   0.662   5.577 -0.6408 -0.4565  0.9776
  144OSM   H12B15789   6.625   0.655   5.510 -0.3713 -2.0128 -1.0285
  144OSM    C1115790   6.605   0.699   5.722  0.2489 -0.3885 -0.3761
  144OSM   H11A15791   6.539   0.668   5.805  1.1841  0.2608  0.6359
  144OSM   H11B15792   6.574   0.803   5.698 -1.5981 -1.3783 -2.4086
  144OSM      P15793   6.867   0.720   5.680  0.1465 -0.3827 -0.1914
  144OSM    O1315794   6.952   0.597   5.690 -0.0267 -0.1573 -0.1941
  144OSM    O1415795   6.831   0.768   5.545  0.4857  0.4370 -0.0511
  144OSM    O1115796   6.938   0.840   5.765 -0.4673 -0.0690  0.0133
  144OSM    O1215797   6.743   0.678   5.760  0.2263  0.4007 -0.5296
  144OSM    C1S15798   6.869   0.889   5.881  0.2370 -0.3467  0.0203
  144OSM    H1S15799   6.758   0.888   5.872  0.2986 -0.8580 -0.6741
  144OSM    H1T15800   6.896   0.994   5.907 -1.5468 -0.2293  1.4815
  144OSM     NF15801   6.834   0.876   6.124 -0.3537  0.0744  0.4124
  144OSM    HNF15802   6.884   0.951   6.167  0.3170  0.0775 -0.3669
  144OSM    C2S15803   6.907   0.814   6.013 -0.4958  0.0196 -0.0099
  144OSM    H2S15804   6.876   0.707   6.013  0.9853 -0.4344 -1.1100
  144OSM    C3S15805   7.064   0.826   6.033  0.8481 -0.2521  0.3821
  144OSM    H3S15806   7.087   0.935   6.036  2.0218 -0.3292 -3.2209
  144OSM     O315807   7.141   0.777   5.930 -0.1389 -0.1268 -0.0206
  144OSM    HO315808   7.088   0.802   5.854 -0.2667  0.2850  0.2036
  144OSM    C4S15809   7.102   0.765   6.167  0.0031  0.3563  0.2614
  144OSM    H4S15810   7.082   0.839   6.246  2.0850 -0.3728  1.4987
  144OSM    C5S15811   7.136   0.645   6.212 -0.3233  0.5074 -0.4650
  144OSM    H5S15812   7.137   0.554   6.150  1.0709 -0.4445  0.9042
  144OSM    C6S15813   7.154   0.612   6.355  0.7739  0.2754 -0.9301
  144OSM    H6S15814   7.259   0.641   6.379  1.0145 -1.0192 -0.3737
  144OSM    H6T15815   7.142   0.502   6.368  1.1450  0.3993  0.5615
  144OSM    C7S15816   7.065   0.677   6.458 -0.5236  0.3723  0.3462
  144OSM    H7S15817   6.961   0.647   6.431  0.3492 -1.2617 -1.3891
  144OSM    H7T15818   7.073   0.788   6.456 -0.6192  0.3636 -0.9039
  144OSM    C8S15819   7.098   0.628   6.597 -0.3049  0.0511 -0.3114
  144OSM    H8S15820   7.202   0.643   6.632 -1.3874  1.8862  2.2649
  144OSM    H8T15821   7.090   0.517   6.606 -4.0499  0.3492  1.0485
  144OSM    C9S15822   7.011   0.660   6.720  0.6581 -0.2978 -0.0552
  144OSM    H9S15823   7.033   0.757   6.770 -1.7515 -0.5811  1.6287
  144OSM    H9T15824   7.033   0.582   6.795  1.2858 -1.6875 -1.6491
  144OSM   C10S15825   6.860   0.650   6.697 -0.1243  0.6333 -0.0272
  144OSM   H10S15826   6.838   0.543   6.675 -1.4018  0.8982 -0.0424
  144OSM   H10T15827   6.827   0.706   6.607  0.4097  1.7219  0.4464
  144OSM   C11S15828   6.778   0.683   6.824 -0.1720  0.1757 -0.1587
  144OSM   H11S15829   6.787   0.791   6.846 -0.6633  0.1517  0.1583
  144OSM   H11T15830   6.827   0.630   6.908 -1.7745 -0.4792  0.3911
  144OSM   C12S15831   6.636   0.643   6.808  0.1583  0.0767  0.1761
  144OSM   H12S15832   6.635   0.537   6.774  2.2476 -0.3475  1.3633
  144OSM   H12T15833   6.600   0.716   6.732  0.7035  0.2676  0.1037
  144OSM   C13S15834   6.560   0.663   6.939 -0.1135  0.1449  0.0407
  144OSM   H13S15835   6.586   0.765   6.976 -1.3778  0.5635 -0.2132
  144OSM   H13T15836   6.593   0.587   7.013  1.5008  0.6901 -0.0934
  144OSM   C14S15837   6.404   0.649   6.917  0.3712  0.1259  0.3282
  144OSM   H14S15838   6.378   0.547   6.881  0.4488  0.9630 -2.1903
  144OSM   H14T15839   6.382   0.727   6.841  0.1450 -2.1741 -2.0710
  144OSM   C15S15840   6.314   0.666   7.046  0.4342  0.0793  0.5853
  144OSM   H15S15841   6.208   0.654   7.017  0.7819 -1.2266 -0.2102
  144OSM   H15T15842   6.342   0.768   7.079  2.2568 -0.9472  2.3276
  144OSM   C16S15843   6.343   0.560   7.164  0.6287  0.1672  0.7961
  144OSM   H16S15844   6.267   0.580   7.242  0.8062  0.7487  0.8169
  144OSM   H16T15845   6.433   0.599   7.216  0.5002  0.3423  0.8863
  144OSM   C17S15846   6.352   0.408   7.123  0.1767 -0.3754 -0.0463
  144OSM   H17S15847   6.453   0.380   7.087  0.9625  2.0421  0.2184
  144OSM   H17T15848   6.277   0.388   7.044 -0.1794 -2.1923  0.7168
  144OSM   C18S15849   6.311   0.309   7.233 -0.3887 -0.0630 -0.0126
  144OSM   H18S15850   6.224   0.251   7.195  1.0497 -2.1916 -0.1743
  144OSM   H18T15851   6.285   0.359   7.329  1.9683  0.8481  0.1850
  144OSM   H18U15852   6.381   0.226   7.256 -0.4422 -0.6400 -1.9246
  144OSM    C1F15853   6.702   0.864   6.126  0.4218 -0.4203 -0.3792
  144OSM     OF15854   6.643   0.782   6.059 -0.0978  0.2745 -0.0349
  144OSM    C2F15855   6.631   0.962   6.210 -0.1617 -0.5663  0.2955
  144OSM    H2F15856   6.556   1.010   6.143 -1.7626 -1.7516  1.2191
  144OSM    H2G15857   6.709   1.033   6.247  0.1814  0.2953 -1.9882
  144OSM    C3F15858   6.542   0.905   6.321 -0.0617  0.4054 -0.2197
  144OSM    H3F15859   6.584   0.809   6.356 -3.0439 -1.0656 -0.5422
  144OSM    H3G15860   6.439   0.886   6.285 -0.0895  0.6148 -0.2493
  144OSM    C4F15861   6.523   0.997   6.445  0.3174 -0.2538  0.0492
  144OSM    H4F15862   6.439   0.948   6.499 -0.1269  0.0590 -0.3537
  144OSM    H4G15863   6.486   1.096   6.411 -0.7513  0.2265  2.4871
  144OSM    C5F15864   6.632   0.979   6.546 -0.3891 -0.1656 -0.1397
  144OSM    H5F15865   6.726   0.997   6.490 -0.7514  0.4618 -0.5497
  144OSM    H5G15866   6.639   0.874   6.581  2.1790 -0.3864 -1.1310
  144OSM    C6F15867   6.628   1.078   6.664  0.1226  0.4018 -0.0092
  144OSM    H6F15868   6.590   1.178   6.634 -1.4050 -0.0077  0.4840
  144OSM    H6G15869   6.734   1.097   6.689  1.0940  2.2264 -4.9628
  144OSM    C7F15870   6.550   1.032   6.788 -0.2717  0.5487 -0.8220
  144OSM    H7F15871   6.583   0.926   6.802  0.4709  0.9214  0.2692
  144OSM    H7G15872   6.445   1.016   6.756  0.0673 -1.1398 -1.1856
  144OSM    C8F15873   6.555   1.128   6.916 -0.4538 -0.0334  0.3884
  144OSM    H8F15874   6.485   1.209   6.886  0.2130 -0.1793 -1.6321
  144OSM    H8G15875   6.661   1.162   6.914 -0.0119 -1.2095  2.3212
  144OSM    C9F15876   6.507   1.061   7.048 -0.6481 -0.5700  0.4622
  144OSM    H9F15877   6.400   1.049   7.074 -0.3147 -5.4453 -0.0367
  144OSM   C10F15878   6.593   1.006   7.134  0.1544 -0.2899 -0.6180
  144OSM   H10F15879   6.551   0.966   7.228 -2.7373  0.2344 -1.6402
  144OSM   C11F15880   6.740   1.016   7.117 -0.2188  0.6474 -0.5506
  144OSM   H11F15881   6.774   1.119   7.142 -0.8925  1.3280 -2.3262
  144OSM   H11G15882   6.775   0.994   7.014 -0.5410  1.2311 -0.7900
  144OSM   C12F15883   6.817   0.927   7.214  0.0982 -0.3177  0.4875
  144OSM   H12F15884   6.797   0.820   7.193  2.8518 -0.8569  0.3237
  144OSM   H12G15885   6.791   0.946   7.320 -2.5020 -1.5662  0.0934
  144OSM   C13F15886   6.964   0.955   7.201  0.0056  0.1292  0.6148
  144OSM   H13F15887   6.974   1.061   7.231 -2.0590  1.0410 -1.7546
  144OSM   H13G15888   6.999   0.936   7.098 -0.8009 -0.8666  0.5144
  144OSM   C14F15889   7.055   0.869   7.289  0.2161  0.0187 -0.0557
  144OSM   H14F15890   7.151   0.917   7.261  1.2662 -0.4111  2.6244
  144OSM   H14G15891   7.048   0.768   7.243 -0.1826  0.4963 -1.0540
  144OSM   C15F15892   7.024   0.859   7.443 -0.4025 -0.1771 -0.3693
  144OSM   H15F15893   6.920   0.824   7.461 -0.3290 -0.0479  0.3462
  144OSM   H15G15894   7.011   0.960   7.487 -1.5932 -0.1919 -0.6684
  144OSM   C16F15895   7.134   0.788   7.518 -0.3700  0.2603 -0.1348
  144OSM   H16F15896   7.115   0.789   7.627 -0.2894  1.9610 -0.1216
  144OSM   H16G15897   7.235   0.835   7.529  0.9225 -2.7265  1.1309
  144OSM   C17F15898   7.169   0.654   7.458 -0.6516  0.3673  0.0482
  144OSM   H17F15899   7.222   0.664   7.360 -1.4005  1.4196 -0.2671
  144OSM   H17G15900   7.073   0.602   7.437  0.1571 -1.6277  1.2107
  144OSM   C18F15901   7.255   0.572   7.559 -0.3672 -0.3465 -0.5773
  144OSM   H18F15902   7.190   0.528   7.638  0.8404  0.2223  0.7346
  144OSM   H18G15903   7.333   0.636   7.604 -1.6564  0.0414  1.1770
  144OSM   H18H15904   7.306   0.490   7.504  2.4018  1.4606 -0.7767
  145SAPE     N15905   2.166   3.384   9.765 -0.5388 -0.5591  0.4394
  145SAPE   HN115906   2.253   3.423   9.724  0.7556 -1.3796  2.3387
  145SAPE   HN215907   2.135   3.303   9.706  0.1194 -1.3655  1.1874
  145SAPE   HN315908   2.091   3.454   9.777 -0.3480 -0.6134  2.1101
  145SAPE   C1215909   2.225   3.354   9.905  0.2158 -0.4129  0.4315
  145SAPE  H12A15910   2.138   3.368   9.973  0.6084  1.8498  0.5229
  145SAPE  H12B15911   2.299   3.433   9.930 -1.8208  2.1697 -1.3877
  145SAPE   C1115912   2.277   3.212   9.915  0.1489  0.1195  0.0352
  145SAPE  H11A15913   2.192   3.142   9.903 -0.0144  0.1512  0.9252
  145SAPE  H11B15914   2.309   3.196  10.021 -0.9016 -3.3485 -0.1076
  145SAPE     P15915   2.466   3.060   9.840 -0.3477 -0.1682 -0.1163
  145SAPE   O1315916   2.575   3.099   9.940 -0.5316  0.3206  0.6064
  145SAPE   O1415917   2.380   2.945   9.873 -1.1041 -0.0674 -0.3205
  145SAPE   O1215918   2.375   3.188   9.814 -0.0441  0.6106  0.1968
  145SAPE   O1115919   2.534   3.038   9.701  0.2705  0.9025  0.4776
  145SAPE    C115920   2.555   3.144   9.604 -0.5272  0.2260 -0.1292
  145SAPE    HA15921   2.525   3.250   9.623  2.9616  1.2335  0.2305
  145SAPE    HB15922   2.666   3.158   9.602 -0.4849 -0.3965 -2.8194
  145SAPE    C215923   2.525   3.099   9.461 -0.5580 -1.2444  0.6111
  145SAPE    HS15924   2.584   3.008   9.437  1.8098  0.5527 -0.5285
  145SAPE   O2115925   2.563   3.215   9.387  0.0432  0.2182 -0.2037
  145SAPE   C2115926   2.642   3.199   9.290  0.2621 -0.6204  0.0184
  145SAPE   O2215927   2.695   3.087   9.266 -0.2155 -0.0574 -0.1319
  145SAPE   C2215928   2.659   3.320   9.198  0.0067 -0.3174 -0.3409
  145SAPE   H2R15929   2.739   3.391   9.230 -1.0741  1.0160 -0.5569
  145SAPE   H2S15930   2.685   3.280   9.098  0.8874 -1.6596  0.4128
  145SAPE    C315931   2.373   3.073   9.445  0.4920 -0.0755  0.3982
  145SAPE    HX15932   2.319   3.155   9.497 -3.3020 -1.4732 -1.2084
  145SAPE    HY15933   2.340   2.985   9.504  0.8469  0.7421  1.8652
  145SAPE   O3115934   2.323   3.064   9.304 -0.0173 -0.0694 -0.3529
  145SAPE   C3115935   2.355   2.954   9.249 -0.2381  0.5465 -1.0895
  145SAPE   O3215936   2.424   2.869   9.301  0.0583  0.0200  0.1927
  145SAPE   C3215937   2.279   2.942   9.118  0.2025 -0.3680 -0.1674
  145SAPE   H2X15938   2.172   2.915   9.135  0.0520 -1.6496 -2.8285
  145SAPE   H2Y15939   2.333   2.862   9.064 -1.0018 -1.8408  0.7887
  145SAPE   C2315940   2.530   3.408   9.196 -0.0686  0.2666  0.7067
  145SAPE   H3R15941   2.507   3.453   9.294 -0.1357 -1.5197  1.5323
  145SAPE   H3S15942   2.448   3.342   9.160 -1.4015  2.5417 -0.5368
  145SAPE   C2415943   2.538   3.517   9.086 -0.0230 -0.0215 -0.5008
  145SAPE   H4R15944   2.595   3.605   9.123 -0.5855  0.4441 -0.7334
  145SAPE   H4S15945   2.438   3.563   9.071  0.3817  0.7194 -1.0340
  145SAPE   C2515946   2.592   3.482   8.951 -0.4767 -0.9278  0.0664
  145SAPE   H5R15947   2.701   3.476   8.942 -0.6233 -0.9137 -1.7956
  145SAPE   C2615948   2.520   3.481   8.835  0.3874 -0.2403  0.1453
  145SAPE   H6R15949   2.578   3.447   8.748  0.6938 -1.4127  0.7911
  145SAPE   C2715950   2.368   3.501   8.812  0.3056 -0.0515  0.4050
  145SAPE   H7R15951   2.330   3.567   8.893 -0.0399 -0.1827  0.3467
  145SAPE   H7S15952   2.317   3.404   8.832 -1.0321  0.1089 -2.0712
  145SAPE   C2815953   2.349   3.548   8.670  0.4078  0.1006 -0.0325
  145SAPE   H8R15954   2.375   3.654   8.656  1.3653 -0.3012 -1.3881
  145SAPE   C2915955   2.335   3.475   8.557 -0.3209  0.0293 -0.5151
  145SAPE   H9R15956   2.318   3.527   8.462 -1.6872 -0.6891 -0.6724
  145SAPE  C21015957   2.318   3.324   8.556  0.5271  0.6936 -0.2526
  145SAPE  H10R15958   2.283   3.301   8.658 -1.0785  0.5221 -0.8303
  145SAPE  H10S15959   2.419   3.279   8.542  0.1233 -0.1214 -0.6288
  145SAPE  C21115960   2.227   3.261   8.455 -0.3298  0.0117 -0.0243
  145SAPE  H11R15961   2.141   3.205   8.493  1.6068 -2.4229  0.9385
  145SAPE  C21215962   2.237   3.251   8.321  0.3604  1.0835 -0.5840
  145SAPE  H12R15963   2.156   3.204   8.263  0.6796 -0.3515  0.1324
  145SAPE  C21315964   2.361   3.305   8.246 -0.4029 -0.0994 -1.0814
  145SAPE  H13R15965   2.454   3.318   8.306 -0.7347  1.6540 -0.8975
  145SAPE  H13S15966   2.347   3.403   8.195  0.3431 -0.1231 -1.3351
  145SAPE  C21415967   2.397   3.203   8.139  0.1793  0.2487 -0.3126
  145SAPE  H14R15968   2.467   3.121   8.162  0.2897  0.3003 -0.4662
  145SAPE  C21515969   2.339   3.201   8.017  0.1345  0.9233 -0.1504
  145SAPE  H15R15970   2.372   3.132   7.938  1.8827 -0.0463  1.3774
  145SAPE  C21615971   2.235   3.299   7.975 -0.6413 -0.0344  0.2850
  145SAPE  H16R15972   2.275   3.369   7.899 -3.6482  0.3444 -0.9873
  145SAPE  H16S15973   2.209   3.370   8.057 -1.2026  1.3437 -1.0785
  145SAPE  C21715974   2.101   3.234   7.929  0.2934  0.0150 -1.1947
  145SAPE  H17R15975   2.023   3.311   7.907 -0.3294  0.8422  3.4895
  145SAPE  H17S15976   2.067   3.181   8.021 -1.7199  2.6048 -0.3908
  145SAPE  C21815977   2.104   3.156   7.793 -0.1048  0.0981 -0.8174
  145SAPE  H18R15978   2.179   3.074   7.803 -0.8115 -0.2706  1.8245
  145SAPE  H18S15979   2.138   3.233   7.721 -1.2943 -1.1588 -2.7732
  145SAPE  C21915980   1.958   3.129   7.760 -0.2482  0.2598  0.4378
  145SAPE  H19R15981   1.962   3.094   7.655 -1.7625 -0.6085  0.6596
  145SAPE  H19S15982   1.896   3.221   7.757  0.1752  0.5097 -1.3823
  145SAPE  C22015983   1.891   3.024   7.849  0.2251 -0.0141 -0.1584
  145SAPE  H20R15984   1.966   2.944   7.868 -0.3241 -0.7821 -1.1706
  145SAPE  H20S15985   1.801   2.978   7.803  0.6920  0.5023 -1.6095
  145SAPE  H20T15986   1.863   3.072   7.945 -0.3451  0.9048 -0.7790
  145SAPE   C3315987   2.269   3.070   9.033  0.9616  0.2498  0.0499
  145SAPE   H3X15988   2.218   3.151   9.090  2.0852  0.2224  1.1065
  145SAPE   H3Y15989   2.208   3.052   8.942  2.1506 -2.8556 -0.2204
  145SAPE   C3415990   2.409   3.124   8.987 -0.4512 -0.2890  0.5533
  145SAPE   H4X15991   2.469   3.150   9.077 -1.9077  0.6788  1.2703
  145SAPE   H4Y15992   2.387   3.222   8.940 -2.1840 -0.6862  0.5078
  145SAPE   C3515993   2.472   3.017   8.894  1.1729  0.0167 -0.1192
  145SAPE   H5X15994   2.395   2.971   8.829  0.1043 -0.6199  1.5785
  145SAPE   H5Y15995   2.516   2.930   8.946 -0.1533 -0.3722  0.3499
  145SAPE   C3615996   2.594   3.077   8.821 -0.8652  0.0789 -0.6296
  145SAPE   H6X15997   2.670   3.101   8.898 -1.0605  0.6442 -0.6124
  145SAPE   H6Y15998   2.576   3.170   8.764 -0.5126 -0.9531 -2.4530
  145SAPE   C3715999   2.637   2.975   8.712 -0.1668  0.4643  0.5023
  145SAPE   H7X16000   2.605   2.876   8.752  0.9257  0.8693  2.4450
  145SAPE   H7Y16001   2.748   2.979   8.706  0.0795 -2.8634  1.8178
  145SAPE   C3816002   2.566   3.002   8.581 -0.1876 -0.2779 -0.6084
  145SAPE   H8X16003   2.620   3.085   8.530  1.3886 -0.8810  0.0524
  145SAPE   H8Y16004   2.459   3.020   8.602 -0.1413  1.3057 -1.6954
  145SAPE   C3916005   2.589   2.885   8.486 -0.2118 -0.4474 -0.0459
  145SAPE   H9X16006   2.535   2.799   8.530 -0.4675 -0.4966 -0.4502
  145SAPE   H9Y16007   2.694   2.859   8.461 -0.6098 -1.4639 -0.6960
  145SAPE  C31016008   2.533   2.920   8.350 -0.1648 -0.0487 -0.2417
  145SAPE  H10X16009   2.588   3.006   8.305 -0.7932  0.2320 -0.4755
  145SAPE  H10Y16010   2.429   2.957   8.361 -0.2530 -0.2193 -0.4896
  145SAPE  C31116011   2.513   2.796   8.251 -0.2797  0.9368  0.1404
  145SAPE  H11X16012   2.471   2.709   8.305  0.2618  0.1978 -0.6286
  145SAPE  H11Y16013   2.609   2.751   8.219  0.5920  1.0362  2.5342
  145SAPE  C31216014   2.436   2.820   8.122 -0.6685  0.7937 -0.0398
  145SAPE  H12X16015   2.496   2.881   8.051  1.7545  0.7292  1.9108
  145SAPE  H12Y16016   2.346   2.878   8.153 -3.4464 -1.9562 -2.6244
  145SAPE  C31316017   2.401   2.697   8.056  0.7392  0.1698  0.4532
  145SAPE  H13X16018   2.341   2.630   8.121  1.8350  0.7478  2.0894
  145SAPE  H13Y16019   2.489   2.631   8.042  0.9668  0.0211  2.5387
  145SAPE  C31416020   2.334   2.709   7.915  0.6761 -0.0238 -0.5120
  145SAPE  H14X16021   2.387   2.773   7.841  1.8736  0.8454  1.0679
  145SAPE  H14Y16022   2.242   2.771   7.929  2.0600  2.3376 -1.4862
  145SAPE  C31516023   2.290   2.570   7.857  0.0965  0.1210 -0.0644
  145SAPE  H15X16024   2.215   2.535   7.932 -0.3711 -1.7427 -1.3607
  145SAPE  H15Y16025   2.379   2.504   7.865 -0.4364 -0.3317  2.6432
  145SAPE  C31616026   2.237   2.569   7.719 -0.0291  0.2719 -0.5719
  145SAPE  H16X16027   2.187   2.473   7.695  3.5364 -2.4319  2.0934
  145SAPE  H16Y16028   2.328   2.573   7.655  1.3368 -0.0231  1.3090
  145SAPE  C31716029   2.133   2.671   7.687  0.4559 -0.5578  0.6613
  145SAPE  H17X16030   2.168   2.773   7.713  1.2760 -0.5266 -0.5247
  145SAPE  H17Y16031   2.038   2.665   7.744  0.9315 -2.5959  1.2527
  145SAPE  C31816032   2.096   2.666   7.536 -0.1596 -0.1549  0.1439
  145SAPE  H18X16033   2.185   2.677   7.470  2.5875 -1.6267  3.4457
  145SAPE  H18Y16034   2.033   2.753   7.510  2.9533  1.2047 -3.4440
  145SAPE  H18Z16035   2.030   2.579   7.516 -0.3625  0.0474 -0.0609
  146SAPE     N16036   2.470   2.661   9.476  0.5358 -0.2342 -0.6216
  146SAPE   HN116037   2.564   2.650   9.519  0.2311  0.4052  0.2038
  146SAPE   HN216038   2.465   2.741   9.410 -1.6133 -0.0910 -0.3199
  146SAPE   HN316039   2.415   2.686   9.560  1.7878  2.2148 -0.5046
  146SAPE   C1216040   2.415   2.543   9.412  0.2199 -0.2367  0.1627
  146SAPE  H12A16041   2.476   2.518   9.323 -0.3279 -2.5360  0.4160
  146SAPE  H12B16042   2.311   2.577   9.394  1.1418  1.4927 -2.1769
  146SAPE   C1116043   2.406   2.426   9.512 -0.0994 -0.0339 -0.3103
  146SAPE  H11A16044   2.507   2.396   9.547 -0.1211  1.7848  1.3623
  146SAPE  H11B16045   2.358   2.338   9.463 -1.0133  0.8709 -1.0490
  146SAPE     P16046   2.174   2.395   9.646 -0.3782 -0.0889 -0.2775
  146SAPE   O1316047   2.206   2.264   9.715 -0.4131  0.1684 -0.0716
  146SAPE   O1416048   2.108   2.503   9.729  0.2122  0.5052 -0.6426
  146SAPE   O1216049   2.314   2.455   9.621  0.5827  0.2968 -0.2676
  146SAPE   O1116050   2.114   2.376   9.500 -0.3898 -0.2221 -0.3110
  146SAPE    C116051   2.057   2.481   9.424  0.0190  0.5491  0.5257
  146SAPE    HA16052   2.078   2.583   9.462 -0.4865  1.2449 -1.0216
  146SAPE    HB16053   2.094   2.473   9.320  0.2128  0.9268  0.5654
  146SAPE    C216054   1.904   2.474   9.429 -0.2925  0.0529 -0.1889
  146SAPE    HS16055   1.875   2.478   9.537  2.2982 -2.9746  0.6858
  146SAPE   O2116056   1.855   2.359   9.369 -0.6595  0.2365  0.1640
  146SAPE   C2116057   1.844   2.248   9.442  0.0728  0.3860 -0.8720
  146SAPE   O2216058   1.860   2.246   9.563  0.1720  0.5054 -0.8586
  146SAPE   C2216059   1.802   2.129   9.350  0.2728 -0.7607 -0.6250
  146SAPE   H2R16060   1.700   2.158   9.316  1.2024  2.2399 -1.0039
  146SAPE   H2S16061   1.867   2.126   9.260 -1.7685 -0.4864 -2.1693
  146SAPE    C316062   1.837   2.594   9.363 -0.6702 -0.3497  0.5650
  146SAPE    HX16063   1.853   2.686   9.423  2.7473  0.2561 -1.1380
  146SAPE    HY16064   1.727   2.578   9.371 -0.4401 -2.9819 -1.1661
  146SAPE   O3116065   1.863   2.609   9.226 -0.3268 -0.0369 -0.0384
  146SAPE   C3116066   1.946   2.700   9.185 -0.2899 -0.4230  0.4094
  146SAPE   O3216067   1.994   2.786   9.260 -0.3436 -0.1624 -0.2458
  146SAPE   C3216068   1.986   2.672   9.043  0.0414  0.1039 -0.0112
  146SAPE   H2X16069   1.986   2.775   9.002  0.7729  0.3340  0.5543
  146SAPE   H2Y16070   1.912   2.608   8.991 -1.1210  1.1097  0.3869
  146SAPE   C2316071   1.787   1.991   9.412  0.4980  0.1822  0.4206
  146SAPE   H3R16072   1.699   1.984   9.479  0.3226  0.0243  0.1720
  146SAPE   H3S16073   1.869   1.976   9.486  0.6653  2.1744  0.6520
  146SAPE   C2416074   1.805   1.878   9.315  0.2100 -0.2295  0.2488
  146SAPE   H4R16075   1.800   1.782   9.372 -2.8036 -0.3877 -0.2152
  146SAPE   H4S16076   1.908   1.885   9.275  0.4585 -0.1822  0.8906
  146SAPE   C2516077   1.702   1.880   9.209  0.0055  0.2409 -0.0352
  146SAPE   H5R16078   1.599   1.888   9.248 -0.1849 -0.7795 -0.2964
  146SAPE   C2616079   1.714   1.842   9.083  0.1898 -0.4778  0.6999
  146SAPE   H6R16080   1.616   1.849   9.032 -0.9954 -0.9411  2.8316
  146SAPE   C2716081   1.828   1.776   9.009  0.1585  0.9243 -0.2518
  146SAPE   H7R16082   1.897   1.712   9.069 -0.5457  0.0647 -0.3549
  146SAPE   H7S16083   1.895   1.856   8.970  1.6731  0.1821  0.7708
  146SAPE   C2816084   1.780   1.683   8.895  0.1944 -0.4556 -0.6899
  146SAPE   H8R16085   1.706   1.608   8.926 -2.0023  1.5839 -0.8954
  146SAPE   C2916086   1.824   1.679   8.766  0.2955  0.4597  0.1350
  146SAPE   H9R16087   1.796   1.606   8.688  0.7319  0.1849  0.2294
  146SAPE  C21016088   1.940   1.763   8.719 -0.2607  1.0372  0.3840
  146SAPE  H10R16089   1.995   1.704   8.643  0.7006  0.6652  1.3535
  146SAPE  H10S16090   2.011   1.780   8.803  1.1273 -0.9907 -0.3385
  146SAPE  C21116091   1.911   1.896   8.658 -0.3101 -0.4135  0.1552
  146SAPE  H11R16092   1.863   1.947   8.743 -1.0214 -1.3965  0.3487
  146SAPE  C21216093   1.940   1.956   8.539  0.0023  0.0139 -0.7335
  146SAPE  H12R16094   1.901   2.057   8.521  0.5975  0.2475 -0.6954
  146SAPE  C21316095   2.021   1.903   8.422 -0.3236 -0.2882  0.0394
  146SAPE  H13R16096   2.114   1.856   8.461 -1.0223 -2.3634 -0.7017
  146SAPE  H13S16097   2.050   1.995   8.368 -0.4844 -0.5810 -0.5552
  146SAPE  C21416098   1.948   1.818   8.329  0.4900 -0.6828  0.1565
  146SAPE  H14R16099   1.908   1.731   8.383  1.0975 -1.1528 -0.1496
  146SAPE  C21516100   1.946   1.821   8.196  0.1750  0.7636 -0.1146
  146SAPE  H15R16101   1.894   1.744   8.136 -0.9313  0.5317  1.1217
  146SAPE  C21616102   2.019   1.919   8.109  0.1947  0.2145  0.0797
  146SAPE  H16R16103   2.104   1.879   8.050 -0.7688  1.1870 -2.0160
  146SAPE  H16S16104   2.072   1.998   8.167 -0.4030  1.2705 -0.7722
  146SAPE  C21716105   1.936   1.993   8.010  0.4739  0.2690  0.4332
  146SAPE  H17R16106   1.844   2.040   8.050 -0.0636  0.8632 -1.4574
  146SAPE  H17S16107   1.897   1.918   7.937  0.7472 -0.5402  1.1011
  146SAPE  C21816108   2.004   2.091   7.907 -0.5363  0.9946  0.4848
  146SAPE  H18R16109   1.926   2.135   7.841  0.1685  1.4055 -0.0691
  146SAPE  H18S16110   2.070   2.031   7.841 -2.2756  0.8990 -1.2282
  146SAPE  C21916111   2.092   2.198   7.975  0.1568  0.2352  0.1938
  146SAPE  H19R16112   2.146   2.252   7.894 -0.8066  0.6726 -0.1747
  146SAPE  H19S16113   2.166   2.153   8.044 -0.9403  0.5871  1.6335
  146SAPE  C22016114   2.023   2.310   8.052 -0.1668 -0.0110 -0.2346
  146SAPE  H20R16115   1.975   2.385   7.986  0.7300  0.0278 -0.8549
  146SAPE  H20S16116   2.092   2.368   8.117 -1.1766  0.5912  0.3093
  146SAPE  H20T16117   1.948   2.266   8.122  1.5073 -0.9997  1.0025
  146SAPE   C3316118   2.129   2.617   9.017 -0.3430  0.6149 -0.1518
  146SAPE   H3X16119   2.134   2.509   9.043 -0.1549  0.6198 -0.1657
  146SAPE   H3Y16120   2.201   2.682   9.070 -1.1386  1.8049 -0.5155
  146SAPE   C3416121   2.173   2.633   8.874  0.0993  0.3639  0.3802
  146SAPE   H4X16122   2.174   2.742   8.849  1.3209  0.3670  0.3899
  146SAPE   H4Y16123   2.101   2.586   8.803  1.3666  0.8920 -1.3113
  146SAPE   C3516124   2.312   2.567   8.841 -0.4340 -0.4292  0.0918
  146SAPE   H5X16125   2.307   2.456   8.852 -0.3605 -0.3806  0.6524
  146SAPE   H5Y16126   2.380   2.612   8.917 -0.5098  1.9690 -1.2124
  146SAPE   C3616127   2.374   2.596   8.700 -0.4118 -0.1086  0.1654
  146SAPE   H6X16128   2.392   2.706   8.693 -0.5244 -0.1443 -0.7884
  146SAPE   H6Y16129   2.306   2.561   8.619 -2.5440  3.2942  0.3607
  146SAPE   C3716130   2.505   2.528   8.677 -0.4534  0.1860  0.0973
  146SAPE   H7X16131   2.509   2.428   8.727  0.6453  0.1312 -0.0974
  146SAPE   H7Y16132   2.589   2.584   8.722  1.2925 -0.8342 -1.7769
  146SAPE   C3816133   2.542   2.508   8.532 -0.0910  0.9560  0.1786
  146SAPE   H8X16134   2.647   2.475   8.517 -1.1339 -2.3602 -0.2676
  146SAPE   H8Y16135   2.521   2.601   8.476  0.2733  1.4276  0.8193
  146SAPE   C3916136   2.468   2.387   8.462  0.2387 -0.3049  0.3115
  146SAPE   H9X16137   2.363   2.422   8.453  0.6875  0.7971 -0.7748
  146SAPE   H9Y16138   2.475   2.286   8.506 -0.1081  0.2029  1.5648
  146SAPE  C31016139   2.550   2.367   8.328 -0.6449 -0.2811 -0.4142
  146SAPE  H10X16140   2.647   2.316   8.348 -0.7421 -0.2785  0.0749
  146SAPE  H10Y16141   2.557   2.465   8.277  1.2022  0.1228  0.5512
  146SAPE  C31116142   2.472   2.284   8.224 -1.0403  0.0974 -0.2280
  146SAPE  H11X16143   2.403   2.342   8.160  0.0014 -0.2692 -1.7146
  146SAPE  H11Y16144   2.437   2.190   8.272  0.8213 -1.3227 -1.5416
  146SAPE  C31216145   2.566   2.245   8.107 -0.3788 -0.2655  0.9950
  146SAPE  H12X16146   2.609   2.335   8.058 -2.3328 -0.0485 -0.3851
  146SAPE  H12Y16147   2.501   2.192   8.034 -0.1993  0.4573  0.3052
  146SAPE  C31316148   2.687   2.157   8.141  0.2196  0.5554 -0.1971
  146SAPE  H13X16149   2.652   2.099   8.229 -1.4212  1.8702  0.0555
  146SAPE  H13Y16150   2.774   2.223   8.165 -0.2695  1.4153 -0.7494
  146SAPE  C31416151   2.726   2.060   8.037  0.2322  0.3102  0.3129
  146SAPE  H14X16152   2.714   2.097   7.933 -0.6575 -0.6478  0.0623
  146SAPE  H14Y16153   2.654   1.975   8.040  3.0512 -2.2266 -0.4837
  146SAPE  C31516154   2.869   2.011   8.072 -0.2198  0.4390  0.2538
  146SAPE  H15X16155   2.942   2.086   8.038  0.9244 -0.3306  0.9851
  146SAPE  H15Y16156   2.899   1.922   8.013 -1.1241 -0.2413  0.8080
  146SAPE  C31616157   2.895   1.962   8.214  0.3703 -0.1811 -0.0298
  146SAPE  H16X16158   2.810   1.909   8.263 -1.5921  1.5495 -1.4330
  146SAPE  H16Y16159   2.920   2.062   8.256  1.4166  0.4420 -2.0996
  146SAPE  C31716160   3.004   1.866   8.222 -0.9148  0.1599  0.3746
  146SAPE  H17X16161   2.983   1.780   8.155  0.6850 -2.6763  3.3673
  146SAPE  H17Y16162   3.007   1.835   8.328 -0.5725  2.5819  1.0977
  146SAPE  C31816163   3.141   1.916   8.171  0.1596  0.1310  0.4744
  146SAPE  H18X16164   3.155   2.019   8.211 -0.1183 -0.7064  2.8538
  146SAPE  H18Y16165   3.135   1.926   8.061 -1.0824 -1.7501  0.3474
  146SAPE  H18Z16166   3.220   1.850   8.213  0.4349 -0.7574 -1.3801
  147SAPE     N16167   4.647   5.724   9.963 -0.2518  0.5984 -0.0837
  147SAPE   HN116168   4.727   5.750   9.901 -0.3544 -2.6031 -1.6653
  147SAPE   HN216169   4.685   5.661  10.037  0.4644  1.8977  0.6736
  147SAPE   HN316170   4.581   5.673   9.900  1.5367 -0.7452 -0.9399
  147SAPE   C1216171   4.582   5.847  10.020 -0.6636 -0.4916 -0.1795
  147SAPE  H12A16172   4.662   5.900  10.076 -1.1328 -0.9139  0.9127
  147SAPE  H12B16173   4.503   5.814  10.090  0.8390 -2.2174  0.7328
  147SAPE   C1116174   4.524   5.932   9.906 -0.0300 -0.0922  0.3211
  147SAPE  H11A16175   4.443   5.993   9.951  0.9178  1.0477  0.5085
  147SAPE  H11B16176   4.463   5.874   9.833  1.3254 -0.1998 -0.7422
  147SAPE     P16177   4.581   6.099   9.720 -0.3446  0.1597  0.3385
  147SAPE   O1316178   4.450   6.160   9.743 -0.2678 -0.0777 -0.0366
  147SAPE   O1416179   4.696   6.189   9.705  0.5428 -0.1002  0.3205
  147SAPE   O1216180   4.627   6.004   9.841  0.7149 -0.0531  0.1582
  147SAPE   O1116181   4.584   6.005   9.599  0.5429  0.3803 -0.1513
  147SAPE    C116182   4.465   5.934   9.555 -0.7202  0.6586  0.6447
  147SAPE    HA16183   4.406   5.888   9.638 -1.4499  0.4350  0.0106
  147SAPE    HB16184   4.396   6.005   9.505  1.3292  1.6702 -0.7807
  147SAPE    C216185   4.485   5.805   9.462  0.5260  0.4761  0.0744
  147SAPE    HS16186   4.547   5.740   9.527 -1.7415 -2.1090 -0.2925
  147SAPE   O2116187   4.544   5.842   9.344  0.2497  0.5363 -1.2897
  147SAPE   C2116188   4.596   5.734   9.282  0.5913  0.4771 -0.0534
  147SAPE   O2216189   4.637   5.636   9.341  0.2013 -0.0178 -0.9115
  147SAPE   C2216190   4.633   5.759   9.131 -0.4591  0.3059  0.0587
  147SAPE   H2R16191   4.674   5.664   9.092 -3.2335 -0.4800 -1.0862
  147SAPE   H2S16192   4.538   5.782   9.078 -1.4870 -2.2764  0.7404
  147SAPE    C316193   4.351   5.735   9.443 -0.5207  0.5388 -0.1660
  147SAPE    HX16194   4.329   5.698   9.545  1.4457  1.4510  0.6207
  147SAPE    HY16195   4.364   5.644   9.381 -0.1785  1.8320 -2.0272
  147SAPE   O3116196   4.247   5.826   9.407  0.1055  0.8431 -0.2470
  147SAPE   C3116197   4.246   5.847   9.272 -0.1425  0.8322 -0.2140
  147SAPE   O3216198   4.310   5.786   9.190  0.0341 -0.1402  0.1556
  147SAPE   C3216199   4.137   5.955   9.253 -0.3953 -0.0475  0.2822
  147SAPE   H2X16200   4.147   6.021   9.342 -1.4313  1.6036 -0.8065
  147SAPE   H2Y16201   4.037   5.908   9.256 -0.1040 -0.6564  0.6572
  147SAPE   C2316202   4.745   5.875   9.117  1.0532  0.2087 -0.2237
  147SAPE   H3R16203   4.841   5.828   9.145  0.3680 -1.8566 -1.2549
  147SAPE   H3S16204   4.742   5.963   9.185  1.7711 -1.8883  2.6294
  147SAPE   C2416205   4.754   5.940   8.976 -0.1782 -0.2673  0.4829
  147SAPE   H4R16206   4.833   6.018   8.986  0.5685 -0.8849 -0.3901
  147SAPE   H4S16207   4.658   5.985   8.943  2.0150  1.2528 -4.4018
  147SAPE   C2516208   4.818   5.848   8.872  0.1492  0.5106  0.1485
  147SAPE   H5R16209   4.926   5.835   8.888  0.1396 -0.0375 -0.2250
  147SAPE   C2616210   4.755   5.800   8.768 -0.0763  0.4953 -0.1601
  147SAPE   H6R16211   4.804   5.719   8.711  0.8332  0.4553  0.6700
  147SAPE   C2716212   4.611   5.817   8.733 -0.3085 -0.1341  0.0735
  147SAPE   H7R16213   4.561   5.886   8.804 -0.2177 -0.1957  0.1960
  147SAPE   H7S16214   4.578   5.713   8.752  0.0055 -0.1563  0.5066
  147SAPE   C2816215   4.585   5.858   8.591 -0.3715  0.3331  0.0028
  147SAPE   H8R16216   4.677   5.896   8.545  0.6525 -1.4798  0.5305
  147SAPE   C2916217   4.460   5.883   8.545 -1.2542 -0.1972 -0.3331
  147SAPE   H9R16218   4.453   5.937   8.450 -1.3848  1.3076  0.5101
  147SAPE  C21016219   4.333   5.865   8.625  0.1042  0.1233 -0.0238
  147SAPE  H10R16220   4.311   5.958   8.681 -3.0148 -1.5370  1.5875
  147SAPE  H10S16221   4.348   5.803   8.716 -1.1982  1.9597  1.4764
  147SAPE  C21116222   4.222   5.831   8.527  0.1101  0.4066 -0.0790
  147SAPE  H11R16223   4.203   5.724   8.514 -0.4566  0.7430 -2.1403
  147SAPE  C21216224   4.134   5.920   8.483  0.3287  0.1488  0.5796
  147SAPE  H12R16225   4.053   5.884   8.418 -1.0426 -1.3085  3.0093
  147SAPE  C21316226   4.137   6.065   8.518  0.8824 -0.1056 -0.5700
  147SAPE  H13R16227   4.229   6.096   8.573 -0.1093  0.6047  0.7148
  147SAPE  H13S16228   4.057   6.092   8.589  0.3218  0.4886 -1.4140
  147SAPE  C21416229   4.128   6.142   8.384  0.6581  0.2141 -0.4245
  147SAPE  H14R16230   4.223   6.186   8.349  1.5702 -1.6871 -0.4135
  147SAPE  C21516231   4.015   6.148   8.304  0.9599 -0.0061 -0.6438
  147SAPE  H15R16232   4.019   6.224   8.225 -1.4492 -1.1959 -1.9528
  147SAPE  C21616233   3.881   6.091   8.339  0.0568 -0.1675 -0.4530
  147SAPE  H16R16234   3.844   6.111   8.442  0.5018  1.1279 -0.5430
  147SAPE  H16S16235   3.883   5.980   8.329 -0.1047 -0.5564  3.2156
  147SAPE  C21716236   3.775   6.138   8.242  0.5292  0.2056  0.1326
  147SAPE  H17R16237   3.799   6.111   8.137 -2.8771  4.1835 -1.7839
  147SAPE  H17S16238   3.782   6.248   8.229  1.3106  0.0989 -0.3286
  147SAPE  C21816239   3.633   6.087   8.276  0.2948  0.1471 -1.1621
  147SAPE  H18R16240   3.567   6.143   8.207  0.7642  2.5510  0.2886
  147SAPE  H18S16241   3.608   6.117   8.380  1.4613  0.2559 -0.9054
  147SAPE  C21916242   3.606   5.936   8.262  0.4105  0.4040  0.0867
  147SAPE  H19R16243   3.685   5.882   8.319  0.1089 -1.2964 -1.0595
  147SAPE  H19S16244   3.608   5.902   8.157  1.5647  1.1538 -0.1521
  147SAPE  C22016245   3.473   5.895   8.327 -0.8053 -0.4791  0.2954
  147SAPE  H20R16246   3.453   5.937   8.428 -0.3288 -0.7016  0.4839
  147SAPE  H20S16247   3.474   5.784   8.327  0.2449 -0.4795 -0.6596
  147SAPE  H20T16248   3.385   5.925   8.266 -0.0709 -0.1196 -0.6074
  147SAPE   C3316249   4.145   6.033   9.124  0.0826  0.4926  0.4385
  147SAPE   H3X16250   4.244   6.075   9.096  1.1628 -0.8368  2.1817
  147SAPE   H3Y16251   4.093   6.130   9.139 -0.5355  0.3686 -0.8665
  147SAPE   C3416252   4.090   5.947   9.013 -0.2543 -1.2771 -0.3644
  147SAPE   H4X16253   4.004   5.888   9.051 -2.0645 -0.4593 -3.0137
  147SAPE   H4Y16254   4.163   5.869   8.985 -1.9628 -2.7388 -0.8693
  147SAPE   C3516255   4.070   6.036   8.889  0.3034  0.1573  0.5545
  147SAPE   H5X16256   4.048   5.977   8.797 -0.5364  0.1910  0.7323
  147SAPE   H5Y16257   4.160   6.099   8.879  0.8104 -0.8706 -1.6742
  147SAPE   C3616258   3.953   6.125   8.915  0.0778 -0.1335 -0.4065
  147SAPE   H6X16259   3.993   6.212   8.972 -1.9241  0.8029 -0.3796
  147SAPE   H6Y16260   3.867   6.076   8.966  1.5685 -2.0675  0.3014
  147SAPE   C3716261   3.886   6.189   8.786 -0.0720 -0.1872 -0.0335
  147SAPE   H7X16262   3.846   6.115   8.713  1.6205  1.1971 -2.4331
  147SAPE   H7Y16263   3.973   6.224   8.727  1.9089 -2.7271  1.2733
  147SAPE   C3816264   3.792   6.308   8.817 -0.2306 -0.3959  0.0355
  147SAPE   H8X16265   3.857   6.383   8.867  0.7218 -0.1659 -1.5313
  147SAPE   H8Y16266   3.722   6.262   8.890 -2.2445  0.0159 -1.5961
  147SAPE   C3916267   3.718   6.350   8.689  0.5550  0.2663 -0.1350
  147SAPE   H9X16268   3.630   6.413   8.713  1.6127  1.9326 -0.5177
  147SAPE   H9Y16269   3.672   6.257   8.648  1.4667  0.9723 -2.8632
  147SAPE  C31016270   3.809   6.423   8.578 -0.0499  0.3120 -0.0160
  147SAPE  H10X16271   3.880   6.350   8.533 -0.5786  0.5779 -1.3001
  147SAPE  H10Y16272   3.873   6.500   8.626  0.6707  0.5871 -1.3790
  147SAPE  C31116273   3.731   6.474   8.450  0.0935  0.2236 -0.5258
  147SAPE  H11X16274   3.653   6.546   8.482  0.6950  0.4981  0.3553
  147SAPE  H11Y16275   3.684   6.387   8.398  1.3780  0.2378 -1.7462
  147SAPE  C31216276   3.817   6.552   8.351 -0.8755 -0.5752 -0.1050
  147SAPE  H12X16277   3.920   6.510   8.350 -0.1850  1.0619 -0.5404
  147SAPE  H12Y16278   3.844   6.652   8.393 -2.1992  0.6052 -2.0315
  147SAPE  C31316279   3.776   6.555   8.207 -0.1207 -0.2959  0.3481
  147SAPE  H13X16280   3.668   6.581   8.197 -0.5644 -2.0458  0.4469
  147SAPE  H13Y16281   3.787   6.448   8.181  1.1965 -0.1684  0.3656
  147SAPE  C31416282   3.858   6.633   8.116 -0.8108 -0.4304  0.3261
  147SAPE  H14X16283   3.831   6.604   8.013  1.5072  0.5284 -0.5790
  147SAPE  H14Y16284   3.964   6.605   8.127 -0.7694 -0.8248 -0.9826
  147SAPE  C31516285   3.842   6.785   8.122 -0.4050 -0.0117 -0.0397
  147SAPE  H15X16286   3.878   6.817   8.223 -0.8972 -0.1825  0.1901
  147SAPE  H15Y16287   3.741   6.831   8.121 -0.2271  0.5842  3.2016
  147SAPE  C31616288   3.939   6.855   8.025 -0.3856  0.8039 -0.2075
  147SAPE  H16X16289   4.042   6.824   8.053 -0.4966  0.4604 -0.1831
  147SAPE  H16Y16290   3.924   6.965   8.034  0.2164  0.9583 -1.0874
  147SAPE  C31716291   3.917   6.822   7.876  0.5411 -0.1723 -0.4264
  147SAPE  H17X16292   3.823   6.874   7.849  0.2263 -0.1285  0.7063
  147SAPE  H17Y16293   3.904   6.714   7.850  0.4883 -0.4077  0.5434
  147SAPE  C31816294   4.019   6.890   7.780 -0.1944 -0.6005  0.6155
  147SAPE  H18X16295   3.987   6.909   7.675  2.1396  0.1302  0.0023
  147SAPE  H18Y16296   4.112   6.830   7.787  1.0982  1.2869  0.1221
  147SAPE  H18Z16297   4.047   6.991   7.817 -0.7276 -0.7716  1.5038
  148SAPE     N16298   3.189   0.969  10.024  0.1084  0.6035  0.7521
  148SAPE   HN116299   3.140   0.881  10.053 -0.9882  1.5868  1.9382
  148SAPE   HN216300   3.278   0.925   9.993 -1.3679 -1.4306 -0.7309
  148SAPE   HN316301   3.202   1.028  10.108  1.1469  0.5326  0.6452
  148SAPE   C1216302   3.132   1.041   9.902  0.0264  0.2569  0.4709
  148SAPE  H12A16303   3.021   1.044   9.908  0.0691 -0.1732  1.6244
  148SAPE  H12B16304   3.157   0.978   9.814 -2.5591  2.9652 -2.2934
  148SAPE   C1116305   3.204   1.172   9.877  0.1061 -0.4134  0.5014
  148SAPE  H11A16306   3.176   1.237   9.963  1.0849 -1.2548  1.4596
  148SAPE  H11B16307   3.165   1.216   9.783  1.0456 -0.5865  0.0302
  148SAPE     P16308   3.446   1.145   9.771  0.0908  0.5285 -0.4048
  148SAPE   O1316309   3.537   1.256   9.793  0.0018  0.3651 -0.4250
  148SAPE   O1416310   3.504   1.011   9.757  0.8363 -0.0958  0.3088
  148SAPE   O1216311   3.342   1.143   9.888 -0.0800  0.3880 -0.0333
  148SAPE   O1116312   3.362   1.179   9.641 -0.2291  0.0476 -0.2536
  148SAPE    C116313   3.344   1.310   9.583 -0.6054  0.7239 -1.1088
  148SAPE    HA16314   3.347   1.384   9.665  1.9163  0.1539 -0.6629
  148SAPE    HB16315   3.427   1.319   9.510  1.7336 -4.3087  0.6946
  148SAPE    C216316   3.210   1.344   9.514 -0.3413  0.1006 -0.2051
  148SAPE    HS16317   3.139   1.355   9.599 -0.2453 -2.7228  0.2795
  148SAPE   O2116318   3.180   1.249   9.409 -0.1312  0.8698 -0.2066
  148SAPE   C2116319   3.132   1.132   9.449  0.4723 -0.6711 -0.2249
  148SAPE   O2216320   3.079   1.104   9.553 -0.4789 -0.2122 -0.1766
  148SAPE   C2216321   3.135   1.032   9.331  0.2831 -0.0522  0.6110
  148SAPE   H2R16322   3.049   1.046   9.262  0.5096  1.2562  0.5865
  148SAPE   H2S16323   3.228   1.048   9.272 -0.4474  0.0843 -0.5323
  148SAPE    C316324   3.229   1.494   9.459  0.4917 -0.5959  0.3736
  148SAPE    HX16325   3.262   1.556   9.545 -0.6341 -1.8680  1.7628
  148SAPE    HY16326   3.128   1.534   9.434  0.8140 -0.4009 -0.6239
  148SAPE   O3116327   3.325   1.494   9.350 -0.7226  0.0976  0.4884
  148SAPE   C3116328   3.270   1.518   9.226  1.1820  0.7014 -0.6952
  148SAPE   O3216329   3.148   1.517   9.203 -0.0594  0.0011  0.6858
  148SAPE   C3216330   3.378   1.567   9.137 -0.2333 -0.2857  0.3825
  148SAPE   H2X16331   3.481   1.563   9.178 -1.3183 -0.9567  3.1700
  148SAPE   H2Y16332   3.343   1.669   9.110  0.5580 -0.1464 -0.1120
  148SAPE   C2316333   3.129   0.888   9.389  0.0737 -0.5016 -0.0302
  148SAPE   H3R16334   3.025   0.877   9.426 -0.2942 -1.0370 -1.2190
  148SAPE   H3S16335   3.196   0.865   9.475  0.0744 -2.9171 -0.6383
  148SAPE   C2416336   3.144   0.773   9.287  0.4550 -0.0122 -0.8089
  148SAPE   H4R16337   3.122   0.684   9.351  0.0318  1.9777  1.9068
  148SAPE   H4S16338   3.248   0.778   9.247  0.1033 -1.4331 -1.9244
  148SAPE   C2516339   3.044   0.771   9.172  0.3107 -0.2327  0.0275
  148SAPE   H5R16340   2.944   0.739   9.204  0.5482 -2.4808 -1.3873
  148SAPE   C2616341   3.054   0.838   9.054  0.5295 -0.5277 -0.1234
  148SAPE   H6R16342   2.968   0.840   8.984 -0.2541  1.7060  0.8685
  148SAPE   C2716343   3.168   0.917   8.994  0.0335  0.2931 -0.1724
  148SAPE   H7R16344   3.193   0.884   8.890  2.4975 -0.2670  0.5580
  148SAPE   H7S16345   3.261   0.901   9.052 -0.6414 -0.4824  0.7184
  148SAPE   C2816346   3.131   1.061   8.988  0.8572 -0.0939 -0.0460
  148SAPE   H8R16347   3.159   1.133   9.066 -0.3750 -0.2461  0.5444
  148SAPE   C2916348   3.077   1.122   8.883 -0.7652  0.0819  0.0724
  148SAPE   H9R16349   3.064   1.231   8.878 -0.3169  0.1778  0.9596
  148SAPE  C21016350   3.019   1.062   8.756 -0.3736 -0.3603  0.3033
  148SAPE  H10R16351   2.909   1.069   8.770 -0.2965  0.0536  0.6968
  148SAPE  H10S16352   3.061   0.961   8.738  1.9424  0.2678  2.0214
  148SAPE  C21116353   3.060   1.140   8.625  0.5705  0.5924  0.4033
  148SAPE  H11R16354   3.093   1.245   8.634  0.1027  0.9134 -1.3954
  148SAPE  C21216355   3.064   1.086   8.502 -0.3113  0.1858  0.2441
  148SAPE  H12R16356   3.092   1.156   8.421 -2.1903  2.2036  1.2733
  148SAPE  C21316357   3.034   0.951   8.451 -0.4375 -0.3218  0.2824
  148SAPE  H13R16358   2.970   0.957   8.361 -1.7167  1.4256  1.2805
  148SAPE  H13S16359   2.974   0.898   8.528 -2.8705 -0.9076 -1.9404
  148SAPE  C21416360   3.159   0.872   8.413  0.5786 -0.0752 -0.2669
  148SAPE  H14R16361   3.205   0.819   8.498  1.2731 -0.4054 -0.8450
  148SAPE  C21516362   3.215   0.851   8.293 -0.0509  0.0000  0.7889
  148SAPE  H15R16363   3.308   0.792   8.287  0.2862  0.4956  1.0600
  148SAPE  C21616364   3.182   0.901   8.157  0.5407 -0.2538  0.1063
  148SAPE  H16R16365   3.083   0.951   8.170 -0.2453 -2.1138  1.6434
  148SAPE  H16S16366   3.177   0.810   8.094  0.4519  1.0061 -1.7481
  148SAPE  C21716367   3.274   1.002   8.093 -0.0113 -0.6631  0.0784
  148SAPE  H17R16368   3.381   0.980   8.111  0.5995  1.0014 -1.3748
  148SAPE  H17S16369   3.254   1.105   8.130  1.4941 -0.3504  0.0356
  148SAPE  C21816370   3.260   1.015   7.941  0.0571  0.1806 -0.2369
  148SAPE  H18R16371   3.151   1.006   7.919  0.1645  0.6042 -0.9379
  148SAPE  H18S16372   3.299   0.929   7.882  1.4330  0.6557 -0.0365
  148SAPE  C21916373   3.316   1.145   7.888  0.4887  0.1012 -0.2588
  148SAPE  H19R16374   3.421   1.162   7.920 -0.0117 -0.0335  1.4865
  148SAPE  H19S16375   3.257   1.228   7.931  0.5057 -0.7636  1.4634
  148SAPE  C22016376   3.292   1.153   7.735  1.2569  0.1095  0.1736
  148SAPE  H20R16377   3.182   1.140   7.722  0.8893  1.2009  2.0592
  148SAPE  H20S16378   3.351   1.075   7.684  0.5444 -1.3362  1.5401
  148SAPE  H20T16379   3.306   1.253   7.688  0.5368 -0.0784 -0.4574
  148SAPE   C3316380   3.390   1.493   9.006 -0.4458  0.3970  0.7196
  148SAPE   H3X16381   3.461   1.533   8.930 -0.4801 -0.7429  0.0862
  148SAPE   H3Y16382   3.295   1.481   8.950  0.7314 -0.3816 -1.1632
  148SAPE   C3416383   3.455   1.353   9.027 -0.5752 -0.0414  0.5335
  148SAPE   H4X16384   3.395   1.302   9.104 -1.4886 -0.7643 -0.6450
  148SAPE   H4Y16385   3.558   1.360   9.068  0.0373  0.5392 -1.0454
  148SAPE   C3516386   3.448   1.270   8.900 -0.0009  0.6306 -0.5697
  148SAPE   H5X16387   3.472   1.336   8.814 -0.4923  1.0354 -0.3974
  148SAPE   H5Y16388   3.346   1.230   8.881 -0.3921  1.6043 -0.5485
  148SAPE   C3616389   3.550   1.152   8.911 -0.1745 -0.1141  0.0973
  148SAPE   H6X16390   3.529   1.095   9.004  1.7320 -2.0964 -0.6376
  148SAPE   H6Y16391   3.652   1.197   8.907  0.6829 -2.0480 -0.2314
  148SAPE   C3716392   3.536   1.060   8.794  0.1611 -0.0649  0.1666
  148SAPE   H7X16393   3.427   1.036   8.795  0.2683 -0.7049 -1.5575
  148SAPE   H7Y16394   3.593   0.964   8.801 -0.5093 -0.5258 -0.5638
  148SAPE   C3816395   3.555   1.115   8.651  0.4433 -0.5274 -0.0645
  148SAPE   H8X16396   3.665   1.096   8.643  0.6937  0.3920  1.0542
  148SAPE   H8Y16397   3.525   1.221   8.654  2.5709  0.2761 -3.5197
  148SAPE   C3916398   3.480   1.044   8.534  0.9996 -0.0251 -0.0510
  148SAPE   H9X16399   3.375   1.049   8.569  1.3638 -2.5507  1.4909
  148SAPE   H9Y16400   3.503   0.937   8.518  2.2649  0.2360 -0.1007
  148SAPE  C31016401   3.504   1.111   8.395  0.1807  0.3366 -0.1919
  148SAPE  H10X16402   3.469   1.217   8.404 -2.2404 -0.4524  0.0710
  148SAPE  H10Y16403   3.438   1.067   8.317 -0.9240 -0.0592  0.9481
  148SAPE  C31116404   3.645   1.099   8.330  0.8351  0.2164  0.5853
  148SAPE  H11X16405   3.688   0.999   8.353  1.0438  0.8775  3.2052
  148SAPE  H11Y16406   3.708   1.180   8.372 -0.5511  0.5173  2.1531
  148SAPE  C31216407   3.634   1.107   8.175 -0.1545 -0.2606  1.0162
  148SAPE  H12X16408   3.603   1.212   8.155 -0.0927 -0.2025  1.2184
  148SAPE  H12Y16409   3.558   1.037   8.135  0.0548  0.3665 -0.5117
  148SAPE  C31316410   3.764   1.093   8.096 -0.1663  0.1258 -0.6450
  148SAPE  H13X16411   3.823   1.006   8.133 -0.2099  0.1313 -0.5596
  148SAPE  H13Y16412   3.828   1.180   8.121 -0.7595  0.6013 -0.7856
  148SAPE  C31416413   3.734   1.080   7.946  0.6354  1.0796  0.0934
  148SAPE  H14X16414   3.669   1.166   7.916 -1.1344  0.0466  0.8762
  148SAPE  H14Y16415   3.670   0.991   7.928  2.5605 -0.2854 -0.1644
  148SAPE  C31516416   3.854   1.067   7.854 -0.3959 -0.0061  0.2498
  148SAPE  H15X16417   3.884   0.960   7.847 -1.0043 -0.0646 -1.4595
  148SAPE  H15Y16418   3.945   1.119   7.893 -0.0282 -1.4443  1.3532
  148SAPE  C31616419   3.826   1.103   7.703  0.0933 -0.2881  0.1398
  148SAPE  H16X16420   3.844   1.212   7.688  0.0120 -0.4424 -1.2124
  148SAPE  H16Y16421   3.725   1.079   7.662 -1.1821  0.9867  2.4507
  148SAPE  C31716422   3.931   1.047   7.605 -0.7047  0.2032  0.1650
  148SAPE  H17X16423   3.921   0.941   7.572  1.2322  0.8809 -2.8121
  148SAPE  H17Y16424   4.030   1.064   7.652 -0.6214  0.1438  0.0122
  148SAPE  C31816425   3.941   1.132   7.469  0.7743  0.2164  0.2927
  148SAPE  H18X16426   3.834   1.143   7.442  0.1255  0.0403  2.6856
  148SAPE  H18Y16427   4.002   1.075   7.396  0.4767  0.4944 -0.1760
  148SAPE  H18Z16428   3.978   1.232   7.499  0.6335  0.7814 -1.3735
  149SAPE     N16429   0.746   4.124   9.782 -0.0119  0.7181 -0.3787
  149SAPE   HN116430   0.705   4.219   9.783 -0.6045  0.5226 -2.4434
  149SAPE   HN216431   0.841   4.117   9.824  0.5014  0.4748 -1.5601
  149SAPE   HN316432   0.760   4.097   9.682 -0.5533  1.6649 -0.7223
  149SAPE   C1216433   0.630   4.043   9.845  0.2746  0.0138  0.4541
  149SAPE  H12A16434   0.546   4.055   9.773  0.3874 -1.1276  0.1273
  149SAPE  H12B16435   0.592   4.085   9.941  3.1336 -1.7264  2.4053
  149SAPE   C1116436   0.666   3.893   9.844 -0.4111 -0.4310 -0.2597
  149SAPE  H11A16437   0.572   3.847   9.881 -1.9698  1.7146 -1.4595
  149SAPE  H11B16438   0.740   3.869   9.924 -1.2164 -2.4333 -0.0872
  149SAPE     P16439   0.797   3.709   9.706 -0.2512  0.1951 -0.2677
  149SAPE   O1316440   0.933   3.765   9.729 -0.1373 -0.0097  0.2874
  149SAPE   O1416441   0.754   3.601   9.797  0.4739  0.2017  0.0745
  149SAPE   O1216442   0.693   3.831   9.716 -0.0899  0.3665 -0.2576
  149SAPE   O1116443   0.777   3.660   9.554 -0.0809 -0.1928  0.4023
  149SAPE    C116444   0.876   3.599   9.472 -0.0410  0.3007 -0.2589
  149SAPE    HA16445   0.830   3.570   9.374 -0.5329 -0.4028  0.1705
  149SAPE    HB16446   0.948   3.673   9.433 -0.6654  0.2009 -1.6712
  149SAPE    C216447   0.934   3.466   9.524  0.8093 -0.1523  0.4783
  149SAPE    HS16448   0.979   3.481   9.624 -2.6296 -0.0387  2.0595
  149SAPE   O2116449   1.034   3.434   9.433 -0.7842 -0.4404  0.5382
  149SAPE   C2116450   1.155   3.402   9.483 -0.9120  0.0894  1.2333
  149SAPE   O2216451   1.177   3.379   9.598  0.4975  0.0430 -0.0862
  149SAPE   C2216452   1.255   3.418   9.371  0.2909  0.0636 -0.7258
  149SAPE   H2R16453   1.250   3.521   9.332 -0.5381 -0.3629 -1.7602
  149SAPE   H2S16454   1.356   3.399   9.414  0.3173 -0.0636 -0.8435
  149SAPE    C316455   0.814   3.363   9.530 -0.4394  0.1650  0.4337
  149SAPE    HX16456   0.744   3.393   9.611 -0.2253 -0.5035  0.8740
  149SAPE    HY16457   0.849   3.272   9.583 -0.9872  0.3803  1.1769
  149SAPE   O3116458   0.746   3.335   9.408 -0.5066  0.3630  0.5766
  149SAPE   C3116459   0.794   3.240   9.339 -0.0215 -0.3884 -0.5334
  149SAPE   O3216460   0.890   3.163   9.369  0.2541 -0.2820 -0.2566
  149SAPE   C3216461   0.693   3.218   9.225 -0.0520 -0.2100 -0.2269
  149SAPE   H2X16462   0.603   3.284   9.231  1.0236  1.2665  0.0153
  149SAPE   H2Y16463   0.646   3.118   9.236  0.4289 -0.4477 -0.3019
  149SAPE   C2316464   1.250   3.307   9.257 -0.1963 -0.4400 -0.4748
  149SAPE   H3R16465   1.153   3.332   9.207 -1.0405  1.9171  2.2159
  149SAPE   H3S16466   1.235   3.206   9.301  2.0603 -1.1962 -1.3612
  149SAPE   C2416467   1.374   3.304   9.158  0.1307  0.3536  0.4047
  149SAPE   H4R16468   1.462   3.285   9.223  0.8597 -0.6423 -0.8593
  149SAPE   H4S16469   1.382   3.408   9.119  1.6269 -0.1015 -0.5312
  149SAPE   C2516470   1.346   3.208   9.045  0.1070  0.1665 -0.4879
  149SAPE   H5R16471   1.284   3.121   9.075  1.5635 -0.5811  0.4010
  149SAPE   C2616472   1.387   3.219   8.921 -0.4021  0.2304 -1.0518
  149SAPE   H6R16473   1.356   3.147   8.843 -1.1501  2.3374 -2.7335
  149SAPE   C2716474   1.469   3.334   8.869 -0.0923 -0.7959 -0.0263
  149SAPE   H7R16475   1.575   3.317   8.896  0.2439 -0.4252 -1.0829
  149SAPE   H7S16476   1.445   3.429   8.921 -2.9365 -1.7623  0.5057
  149SAPE   C2816477   1.445   3.361   8.725 -0.4903 -0.1423 -0.1682
  149SAPE   H8R16478   1.527   3.324   8.662  1.2943  1.4921  1.1286
  149SAPE   C2916479   1.327   3.410   8.679 -0.4358  0.5123  0.4454
  149SAPE   H9R16480   1.314   3.427   8.571  2.4530  0.0642  0.0120
  149SAPE  C21016481   1.208   3.460   8.755  0.1379  0.1267 -0.1426
  149SAPE  H10R16482   1.227   3.566   8.782 -1.6060  0.0069  1.6324
  149SAPE  H10S16483   1.201   3.417   8.857 -1.0040 -0.3888 -0.4318
  149SAPE  C21116484   1.074   3.445   8.683  0.3259 -0.6185  0.8810
  149SAPE  H11R16485   1.003   3.384   8.740 -0.9530 -1.9094 -2.0198
  149SAPE  C21216486   1.037   3.508   8.563  1.3118 -0.4212 -0.0676
  149SAPE  H12R16487   0.935   3.499   8.524  0.1370  0.5208  2.6375
  149SAPE  C21316488   1.123   3.606   8.484 -0.2053  0.3975 -0.3384
  149SAPE  H13R16489   1.139   3.559   8.385  1.3708 -0.9060  0.5169
  149SAPE  H13S16490   1.222   3.623   8.531  0.4067  0.5879 -1.6807
  149SAPE  C21416491   1.046   3.730   8.464  0.3956  0.7357  0.7842
  149SAPE  H14R16492   1.041   3.801   8.548 -1.5772 -0.5441  1.7878
  149SAPE  C21516493   0.956   3.742   8.358  0.2362 -0.2451 -0.4443
  149SAPE  H15R16494   0.887   3.828   8.354  1.8070  0.9485 -4.4231
  149SAPE  C21616495   0.919   3.667   8.232  0.1078  0.5150  1.1190
  149SAPE  H16R16496   0.810   3.665   8.211 -0.0104 -1.3793  1.7374
  149SAPE  H16S16497   0.941   3.558   8.241 -0.3310  0.3438  0.1452
  149SAPE  C21716498   0.979   3.726   8.104  0.1070  0.4095 -0.7187
  149SAPE  H17R16499   1.089   3.729   8.120 -0.2991 -0.2048  2.5456
  149SAPE  H17S16500   0.938   3.828   8.087  1.2552  0.8127 -1.1501
  149SAPE  C21816501   0.930   3.645   7.979  0.0582  0.3478 -0.6787
  149SAPE  H18R16502   0.823   3.619   7.988  0.7065 -2.2914 -0.2143
  149SAPE  H18S16503   0.988   3.552   7.961  0.1836 -0.1555  2.0862
  149SAPE  C21916504   0.927   3.729   7.852 -0.0635  0.5744  0.3379
  149SAPE  H19R16505   1.033   3.752   7.827 -1.0083  2.4839 -2.0018
  149SAPE  H19S16506   0.902   3.835   7.873  1.3161  1.4654 -2.3303
  149SAPE  C22016507   0.870   3.671   7.724  0.5366  0.4805  0.7310
  149SAPE  H20R16508   0.768   3.634   7.748  0.5436  0.1962  0.3184
  149SAPE  H20S16509   0.934   3.601   7.666  0.2487  2.7533 -2.4718
  149SAPE  H20T16510   0.850   3.757   7.656 -0.1028 -0.0094  0.2962
  149SAPE   C3316511   0.762   3.216   9.085  0.4228  0.4010 -0.0557
  149SAPE   H3X16512   0.694   3.162   9.016  1.6926 -1.5271  0.1436
  149SAPE   H3Y16513   0.859   3.163   9.076 -0.7708 -1.7095 -0.9845
  149SAPE   C3416514   0.796   3.353   9.026  0.5504 -0.5305 -0.2443
  149SAPE   H4X16515   0.874   3.339   8.949  0.2824  1.7512 -0.9631
  149SAPE   H4Y16516   0.849   3.407   9.108  0.9662 -1.5349  0.1531
  149SAPE   C3516517   0.685   3.440   8.973 -0.1329 -0.0455  0.8226
  149SAPE   H5X16518   0.729   3.529   8.923 -0.4048 -0.4482 -0.1511
  149SAPE   H5Y16519   0.609   3.472   9.048 -0.8835 -1.4187  0.6769
  149SAPE   C3616520   0.597   3.378   8.861  0.4195 -0.7041  0.6230
  149SAPE   H6X16521   0.526   3.459   8.837  2.1480  0.4305 -0.8157
  149SAPE   H6Y16522   0.534   3.297   8.903  0.1788 -0.6099  0.4386
  149SAPE   C3716523   0.674   3.326   8.743 -0.1528 -0.1971  0.4649
  149SAPE   H7X16524   0.718   3.226   8.757  1.2186  0.2725 -0.4340
  149SAPE   H7Y16525   0.753   3.399   8.714 -0.5264 -0.2114 -0.6268
  149SAPE   C3816526   0.580   3.300   8.615 -0.3061 -0.6524  0.0067
  149SAPE   H8X16527   0.495   3.236   8.649 -2.3318  0.3363 -2.9514
  149SAPE   H8Y16528   0.637   3.247   8.536  0.6256  2.2908 -1.3734
  149SAPE   C3916529   0.531   3.422   8.540  0.0344 -0.1963 -0.8333
  149SAPE   H9X16530   0.612   3.496   8.521  1.5508 -0.8514  2.5991
  149SAPE   H9Y16531   0.466   3.475   8.613  2.7923 -0.6621  2.1116
  149SAPE  C31016532   0.451   3.394   8.407 -0.7148  0.2286 -0.0027
  149SAPE  H10X16533   0.372   3.471   8.401 -0.4215  0.5612  0.3939
  149SAPE  H10Y16534   0.393   3.299   8.413  0.5581 -0.5538  0.0476
  149SAPE  C31116535   0.544   3.404   8.283  0.2628  0.3745  0.0858
  149SAPE  H11X16536   0.629   3.334   8.293  0.1394  0.2229  0.0839
  149SAPE  H11Y16537   0.583   3.505   8.260  1.9854 -0.2529  0.2011
  149SAPE  C31216538   0.475   3.357   8.149 -0.6555  0.5159 -0.3809
  149SAPE  H12X16539   0.389   3.425   8.130 -0.8353  0.5110  0.3932
  149SAPE  H12Y16540   0.443   3.251   8.156  1.1430  0.0445  1.1529
  149SAPE  C31316541   0.563   3.357   8.025 -0.1149  0.3271  0.7837
  149SAPE  H13X16542   0.596   3.462   8.006 -2.0208  0.8961  0.4252
  149SAPE  H13Y16543   0.507   3.321   7.936  0.7517 -1.8353  1.0939
  149SAPE  C31416544   0.690   3.268   8.018 -0.3839 -0.3510  0.2148
  149SAPE  H14X16545   0.669   3.159   8.008 -0.5085 -0.2537 -0.6291
  149SAPE  H14Y16546   0.755   3.295   8.104  1.7962  0.5919 -1.6609
  149SAPE  C31516547   0.779   3.316   7.906  0.7062  0.9909 -0.3182
  149SAPE  H15X16548   0.822   3.415   7.930  1.2884  0.3421  1.3963
  149SAPE  H15Y16549   0.712   3.324   7.818 -1.4834 -0.6726  1.1327
  149SAPE  C31616550   0.891   3.226   7.860 -0.3878  0.3429  0.4025
  149SAPE  H16X16551   0.862   3.124   7.826 -0.2557  0.1784  0.7838
  149SAPE  H16Y16552   0.958   3.203   7.946 -1.3231 -0.0230  1.0400
  149SAPE  C31716553   0.977   3.296   7.751 -0.8811 -0.1900  0.7038
  149SAPE  H17X16554   1.016   3.392   7.792 -1.4484  1.5385 -2.6130
  149SAPE  H17Y16555   0.923   3.310   7.655 -1.8746  1.3552  1.4692
  149SAPE  C31816556   1.099   3.216   7.714  0.1731  0.9905  0.2028
  149SAPE  H18X16557   1.183   3.234   7.785  0.8625  2.0980 -0.8784
  149SAPE  H18Y16558   1.138   3.243   7.614  0.8290 -0.3260  0.0876
  149SAPE  H18Z16559   1.080   3.106   7.715 -3.2918  1.5428  2.1851
  150SAPE     N16560   1.783   1.194   9.890  0.2130 -0.3458  0.1231
  150SAPE   HN116561   1.868   1.151   9.932 -0.3092 -2.2670 -0.7483
  150SAPE   HN216562   1.695   1.158   9.934 -0.5438 -0.6630 -1.6220
  150SAPE   HN316563   1.775   1.179   9.788  1.3048 -4.1755  0.5192
  150SAPE   C1216564   1.787   1.344   9.911 -0.1005 -0.1738  0.5191
  150SAPE  H12A16565   1.858   1.362   9.995  0.8753  0.2937 -0.3951
  150SAPE  H12B16566   1.687   1.378   9.945  1.3506  2.9143  1.8794
  150SAPE   C1116567   1.851   1.426   9.793  0.5843  0.7886 -0.4945
  150SAPE  H11A16568   1.865   1.530   9.828  1.0272  0.4502  0.3527
  150SAPE  H11B16569   1.773   1.420   9.713 -0.2710 -3.0980  0.5072
  150SAPE     P16570   2.103   1.444   9.719 -0.1372 -0.5051  0.1056
  150SAPE   O1316571   2.148   1.494   9.849 -0.2513 -0.9620 -0.1972
  150SAPE   O1416572   2.197   1.362   9.646  0.3483  0.6966 -0.3301
  150SAPE   O1216573   1.971   1.360   9.750 -0.5815 -0.2986 -0.0203
  150SAPE   O1116574   2.070   1.572   9.634 -0.6939 -0.2188  0.2820
  150SAPE    C116575   1.984   1.575   9.524 -0.8636 -0.3757  0.1294
  150SAPE    HA16576   1.886   1.532   9.551 -2.1594  1.3923 -1.6461
  150SAPE    HB16577   1.969   1.679   9.486 -0.4768 -0.7726 -1.1331
  150SAPE    C216578   2.044   1.502   9.402  0.1808  0.0847  0.0495
  150SAPE    HS16579   2.046   1.394   9.428  0.4117  0.5265  1.9415
  150SAPE   O2116580   2.169   1.556   9.362 -0.1180 -0.6991 -0.1462
  150SAPE   C2116581   2.241   1.474   9.295 -0.1171 -0.4408  0.9339
  150SAPE   O2216582   2.209   1.358   9.269  0.3712  0.1534 -0.3014
  150SAPE   C2216583   2.365   1.541   9.250 -0.3972 -0.1650  0.5308
  150SAPE   H2R16584   2.351   1.650   9.262  0.4452 -0.1023  0.9813
  150SAPE   H2S16585   2.441   1.496   9.317 -0.8423 -1.4424  0.1978
  150SAPE    C316586   1.929   1.511   9.289 -0.5322 -0.1450 -0.8366
  150SAPE    HX16587   1.921   1.621   9.276  0.1860  0.3206  2.1917
  150SAPE    HY16588   1.839   1.462   9.332  0.5871 -2.7896 -1.4098
  150SAPE   O3116589   1.972   1.452   9.164 -0.0324 -0.3028 -0.2918
  150SAPE   C3116590   1.936   1.325   9.139 -0.1844 -0.7952 -0.2479
  150SAPE   O3216591   1.859   1.261   9.209  0.2393 -0.4048  0.1399
  150SAPE   C3216592   2.012   1.273   9.021 -0.0916  0.3125  0.2406
  150SAPE   H2X16593   2.045   1.170   9.043 -0.5137  0.2588  0.6331
  150SAPE   H2Y16594   2.096   1.345   9.009 -1.4468  1.5941 -2.0054
  150SAPE   C2316595   2.415   1.503   9.104 -0.2219  0.1520  0.6852
  150SAPE   H3R16596   2.372   1.402   9.085 -0.2214  0.0547  1.1922
  150SAPE   H3S16597   2.526   1.496   9.114 -0.2035 -0.5058  0.0836
  150SAPE   C2416598   2.391   1.609   8.992 -0.3167  0.5799 -0.6231
  150SAPE   H4R16599   2.458   1.574   8.911  0.9666  0.9613  0.2586
  150SAPE   H4S16600   2.421   1.707   9.038  3.1778 -0.4323 -0.5771
  150SAPE   C2516601   2.246   1.600   8.946  0.4449 -1.1175 -0.1679
  150SAPE   H5R16602   2.172   1.649   9.011  0.9923 -1.2548  0.5792
  150SAPE   C2616603   2.200   1.544   8.833  0.5615  0.4680  0.0540
  150SAPE   H6R16604   2.091   1.547   8.821  0.8262  1.2636 -2.2912
  150SAPE   C2716605   2.263   1.473   8.712 -1.0995  0.4509  0.9090
  150SAPE   H7R16606   2.205   1.382   8.691 -0.4270  0.9227 -3.4901
  150SAPE   H7S16607   2.370   1.443   8.724 -1.0667  0.4484  0.5991
  150SAPE   C2816608   2.232   1.542   8.583  0.0085  0.0562 -0.3632
  150SAPE   H8R16609   2.199   1.647   8.591  2.0393  0.6482  0.4251
  150SAPE   C2916610   2.241   1.492   8.455 -0.7568 -0.2695 -0.1186
  150SAPE   H9R16611   2.202   1.543   8.365  3.2984  0.1923 -1.7323
  150SAPE  C21016612   2.295   1.356   8.418 -0.2810  1.0873 -0.5606
  150SAPE  H10R16613   2.329   1.298   8.506 -3.2511  1.0666  0.6207
  150SAPE  H10S16614   2.386   1.358   8.354  1.1245 -2.1691  1.1944
  150SAPE  C21116615   2.186   1.280   8.347 -0.1326  0.3650  0.5675
  150SAPE  H11R16616   2.128   1.218   8.417  0.6382  0.7265  1.5320
  150SAPE  C21216617   2.158   1.288   8.215  0.4205  0.2911  0.8801
  150SAPE  H12R16618   2.080   1.225   8.171  1.1311  0.9742 -1.4434
  150SAPE  C21316619   2.223   1.370   8.105 -0.4553 -0.4772  0.4676
  150SAPE  H13R16620   2.333   1.374   8.121 -0.5549  1.3039  0.8331
  150SAPE  H13S16621   2.188   1.475   8.118  1.2614  0.0382  1.1755
  150SAPE  C21416622   2.207   1.311   7.964 -0.8770 -0.5099  0.3689
  150SAPE  H14R16623   2.194   1.202   7.963 -0.4823 -0.5588  0.6799
  150SAPE  C21516624   2.201   1.381   7.849  0.0883  0.3782  0.3149
  150SAPE  H15R16625   2.199   1.318   7.759  1.0126 -0.2156  0.7029
  150SAPE  C21616626   2.187   1.529   7.818 -0.0481 -0.2064 -0.0361
  150SAPE  H16R16627   2.284   1.569   7.781 -0.5953  0.2392 -1.0075
  150SAPE  H16S16628   2.166   1.590   7.908  1.4095 -0.8784  0.7696
  150SAPE  C21716629   2.076   1.567   7.715 -0.6210  0.2757  0.0390
  150SAPE  H17R16630   1.974   1.544   7.753 -1.3649  0.5692 -1.7541
  150SAPE  H17S16631   2.087   1.518   7.616  1.3963  0.0073  0.3809
  150SAPE  C21816632   2.093   1.718   7.682 -0.2334  0.3845  0.1364
  150SAPE  H18R16633   2.197   1.741   7.648  0.6212 -0.3545  2.1830
  150SAPE  H18S16634   2.077   1.782   7.771 -0.5542 -1.1348  1.1817
  150SAPE  C21916635   1.997   1.761   7.570 -0.0860 -1.1684  0.2299
  150SAPE  H19R16636   1.892   1.743   7.599 -0.8604  3.9288  1.0195
  150SAPE  H19S16637   2.015   1.705   7.476  0.1015  0.6191 -0.8141
  150SAPE  C22016638   2.004   1.914   7.544 -0.5123 -0.4809 -0.7040
  150SAPE  H20R16639   2.110   1.947   7.546 -0.5868 -0.2163 -1.1120
  150SAPE  H20S16640   1.956   1.969   7.628 -0.2516 -1.1915 -0.0910
  150SAPE  H20T16641   1.957   1.944   7.447  0.2421  3.2184 -0.0103
  150SAPE   C3316642   1.946   1.279   8.881  0.5993  0.1840 -0.2944
  150SAPE   H3X16643   2.028   1.286   8.806  1.6483 -2.1154  0.6043
  150SAPE   H3Y16644   1.877   1.366   8.875  0.9594  0.4835 -0.1832
  150SAPE   C3416645   1.858   1.152   8.851  0.9137 -0.4395 -0.1478
  150SAPE   H4X16646   1.795   1.136   8.941  2.0173 -3.2874  0.1724
  150SAPE   H4Y16647   1.924   1.063   8.843  0.8047 -0.4015 -1.6108
  150SAPE   C3516648   1.759   1.180   8.735 -0.7421  0.4868 -0.4824
  150SAPE   H5X16649   1.697   1.268   8.763  0.2191  1.8977 -2.6248
  150SAPE   H5Y16650   1.700   1.089   8.714  0.7405 -0.9556  1.3604
  150SAPE   C3616651   1.834   1.225   8.610  0.2509 -0.3494  0.1113
  150SAPE   H6X16652   1.904   1.147   8.575 -0.8184 -1.4586  0.3891
  150SAPE   H6Y16653   1.891   1.315   8.640 -4.7096  2.9407  0.3985
  150SAPE   C3716654   1.737   1.261   8.494  0.6069 -0.2952  0.3331
  150SAPE   H7X16655   1.666   1.344   8.514  0.5865 -0.0247 -0.8087
  150SAPE   H7Y16656   1.668   1.175   8.482  0.4899 -0.0249 -1.0459
  150SAPE   C3816657   1.819   1.297   8.372  0.4338  0.1503 -0.6446
  150SAPE   H8X16658   1.907   1.231   8.355  0.9960  0.8545 -0.5248
  150SAPE   H8Y16659   1.862   1.396   8.399  1.0274 -0.7862  2.0271
  150SAPE   C3916660   1.739   1.324   8.245  0.2994  0.3337 -0.2546
  150SAPE   H9X16661   1.659   1.396   8.274 -0.0593 -0.1058 -0.1433
  150SAPE   H9Y16662   1.695   1.228   8.210  0.6374  0.1179 -0.0794
  150SAPE  C31016663   1.821   1.394   8.135 -0.2356  0.2261  0.5786
  150SAPE  H10X16664   1.875   1.313   8.080 -1.1165  0.5302 -0.7597
  150SAPE  H10Y16665   1.881   1.472   8.187 -1.0828  0.5361  1.0903
  150SAPE  C31116666   1.737   1.463   8.023  0.1727  0.2262  0.0685
  150SAPE  H11X16667   1.676   1.389   7.966 -0.0624 -0.1635  0.8226
  150SAPE  H11Y16668   1.811   1.500   7.949  0.1471  0.1000 -0.0231
  150SAPE  C31216669   1.657   1.584   8.068  0.1894 -0.5128  0.6427
  150SAPE  H12X16670   1.707   1.664   8.125 -0.6195  0.7647 -0.4082
  150SAPE  H12Y16671   1.583   1.539   8.137 -0.5584  1.4842  1.1853
  150SAPE  C31316672   1.573   1.641   7.949  0.3920 -0.0105  0.0450
  150SAPE  H13X16673   1.511   1.726   7.984 -0.3914  0.3609 -2.1634
  150SAPE  H13Y16674   1.502   1.561   7.919  0.6471 -0.5283  0.7941
  150SAPE  C31416675   1.651   1.684   7.822  0.9271  0.2381 -0.3056
  150SAPE  H14X16676   1.684   1.593   7.767  1.6318  1.0125 -1.1517
  150SAPE  H14Y16677   1.743   1.735   7.858  1.7465  0.3224 -2.4755
  150SAPE  C31516678   1.570   1.764   7.716 -0.4438 -0.7693 -0.0337
  150SAPE  H15X16679   1.479   1.705   7.692 -1.3291  1.5682 -2.7369
  150SAPE  H15Y16680   1.633   1.756   7.625  0.4066  1.9253  0.2602
  150SAPE  C31616681   1.539   1.915   7.745  0.1008  0.0531 -0.4090
  150SAPE  H16X16682   1.628   1.957   7.796 -0.6116  1.3703 -0.2339
  150SAPE  H16Y16683   1.456   1.927   7.818  1.2185 -0.4205  0.9524
  150SAPE  C31716684   1.503   2.000   7.622  0.1126  0.4498  0.5779
  150SAPE  H17X16685   1.480   2.103   7.655  3.2173  1.3287  0.1101
  150SAPE  H17Y16686   1.409   1.962   7.575  0.2979 -0.4680  0.9380
  150SAPE  C31816687   1.611   2.002   7.511 -0.0684 -0.6539 -0.0836
  150SAPE  H18X16688   1.618   1.902   7.462 -0.4925 -0.0246 -1.4266
  150SAPE  H18Y16689   1.707   2.025   7.562 -0.0426 -2.0818  0.5343
  150SAPE  H18Z16690   1.599   2.083   7.436  0.7661 -0.2796  0.1848
  151SAPE     N16691   5.726   5.317   9.727  0.5888 -0.3146 -0.0240
  151SAPE   HN116692   5.801   5.323   9.655 -1.4185  3.1990 -1.9395
  151SAPE   HN216693   5.658   5.240   9.708  0.6252 -0.3703  0.0652
  151SAPE   HN316694   5.671   5.404   9.739 -1.1755 -1.7128  2.5139
  151SAPE   C1216695   5.786   5.271   9.858  0.0135  0.5532 -0.0708
  151SAPE  H12A16696   5.725   5.320   9.938 -1.9889 -1.4400 -0.3093
  151SAPE  H12B16697   5.883   5.324   9.864  0.3968 -0.1256 -0.2406
  151SAPE   C1116698   5.787   5.115   9.876  0.3658 -0.7636 -0.2212
  151SAPE  H11A16699   5.683   5.076   9.874 -0.7304  1.9306  1.6636
  151SAPE  H11B16700   5.839   5.079   9.968 -0.3522  0.8587  0.8405
  151SAPE     P16701   5.845   4.904   9.722  0.2852  0.5397  0.1550
  151SAPE   O1316702   5.873   4.829   9.838  0.0036  1.0826  0.4106
  151SAPE   O1416703   5.710   4.883   9.652 -0.0759  0.1989  0.3640
  151SAPE   O1216704   5.849   5.056   9.760  0.0356 -0.1843 -0.0362
  151SAPE   O1116705   5.967   4.885   9.623  0.1379 -0.2349  0.0220
  151SAPE    C116706   6.063   4.990   9.613 -0.3333 -0.9306  0.1767
  151SAPE    HA16707   6.077   5.045   9.708 -0.8941 -0.3463 -0.0692
  151SAPE    HB16708   6.162   4.944   9.594  0.6721  1.9480 -2.0136
  151SAPE    C216709   6.024   5.090   9.501  0.5226  0.4998  0.2304
  151SAPE    HS16710   5.931   5.144   9.529 -0.9937 -0.8038 -2.1853
  151SAPE   O2116711   5.994   5.010   9.387  0.4210  0.2639 -0.1737
  151SAPE   C2116712   5.904   5.051   9.309 -0.4491 -0.1976  0.1014
  151SAPE   O2216713   5.845   5.158   9.316  0.4663  0.1994  0.5106
  151SAPE   C2216714   5.907   4.963   9.191 -0.1299 -0.0945  0.3679
  151SAPE   H2R16715   5.924   5.023   9.099 -0.2306 -1.2647 -0.4271
  151SAPE   H2S16716   5.994   4.894   9.190  0.2288  0.3640 -0.3448
  151SAPE    C316717   6.139   5.187   9.465 -0.3482  0.2147 -0.0100
  151SAPE    HX16718   6.165   5.250   9.554 -0.4226  0.2621 -0.0223
  151SAPE    HY16719   6.108   5.265   9.392  2.7380  0.3630 -1.2391
  151SAPE   O3116720   6.261   5.130   9.419 -0.0525  0.0801  0.3268
  151SAPE   C3116721   6.284   5.107   9.296 -0.8232 -0.4126 -0.2291
  151SAPE   O3216722   6.209   5.103   9.200 -0.0946  0.7000  0.0367
  151SAPE   C3216723   6.432   5.092   9.276 -0.3430  0.5976  0.2707
  151SAPE   H2X16724   6.480   5.008   9.330  0.3392  1.1720  0.5684
  151SAPE   H2Y16725   6.481   5.181   9.322  0.6999  0.2612 -0.1762
  151SAPE   C2316726   5.778   4.884   9.176  0.2851  0.0387  0.2941
  151SAPE   H3R16727   5.700   4.961   9.158  0.0112 -0.0526  1.0863
  151SAPE   H3S16728   5.751   4.826   9.267 -1.0627  0.0939 -0.0690
  151SAPE   C2416729   5.755   4.787   9.053 -0.6528 -0.1068  0.6591
  151SAPE   H4R16730   5.828   4.705   9.070  0.1397  0.8548  2.0101
  151SAPE   H4S16731   5.784   4.836   8.958 -1.8942 -1.5829 -0.5083
  151SAPE   C2516732   5.615   4.727   9.036 -0.5029 -0.6724  0.3272
  151SAPE   H5R16733   5.587   4.645   9.105 -0.4476 -2.4059 -1.6558
  151SAPE   C2616734   5.544   4.764   8.930  0.3539 -0.4828  0.7021
  151SAPE   H6R16735   5.443   4.722   8.916 -0.3378  1.9856 -2.2078
  151SAPE   C2716736   5.577   4.879   8.835 -0.2455  0.7391  0.3042
  151SAPE   H7R16737   5.673   4.855   8.784 -1.2540 -0.0473 -1.2452
  151SAPE   H7S16738   5.599   4.966   8.902  1.2942 -0.7501  1.8113
  151SAPE   C2816739   5.466   4.916   8.738 -0.7781 -0.4497  0.2684
  151SAPE   H8R16740   5.361   4.897   8.766 -1.2756  0.4969 -0.9100
  151SAPE   C2916741   5.479   4.998   8.640  0.2075  0.1882 -0.4390
  151SAPE   H9R16742   5.388   5.016   8.582 -1.4016  0.1961  2.0435
  151SAPE  C21016743   5.609   5.065   8.596  0.3639 -0.1615 -0.1132
  151SAPE  H10R16744   5.695   5.037   8.659 -0.3729 -1.0156  0.5374
  151SAPE  H10S16745   5.590   5.173   8.616  0.3601 -0.2956  0.6114
  151SAPE  C21116746   5.647   5.041   8.449 -0.7479 -0.2051  0.5085
  151SAPE  H11R16747   5.741   4.983   8.446 -1.4966 -1.3983 -1.6623
  151SAPE  C21216748   5.612   5.104   8.334  0.1246  0.2601  0.3720
  151SAPE  H12R16749   5.658   5.075   8.238  0.4786  0.1046  0.5895
  151SAPE  C21316750   5.511   5.221   8.334 -0.2313  0.2490  0.6646
  151SAPE  H13R16751   5.458   5.214   8.432 -2.9446 -1.8000 -0.8644
  151SAPE  H13S16752   5.431   5.192   8.262 -1.5033  0.2495  2.0389
  151SAPE  C21416753   5.559   5.358   8.323  0.0495  0.4368 -0.3822
  151SAPE  H14R16754   5.665   5.371   8.351  0.4702  0.2706 -1.8961
  151SAPE  C21516755   5.481   5.458   8.270 -0.3111 -0.1278  0.1547
  151SAPE  H15R16756   5.533   5.554   8.258  0.1812 -0.4334 -0.2286
  151SAPE  C21616757   5.335   5.457   8.231  0.2296 -0.0814  0.4536
  151SAPE  H16R16758   5.287   5.368   8.278  1.3832 -1.3504 -0.6928
  151SAPE  H16S16759   5.334   5.439   8.122  1.2795  0.9642  0.2619
  151SAPE  C21716760   5.249   5.574   8.281 -0.4359 -0.5653 -0.3186
  151SAPE  H17R16761   5.293   5.672   8.251 -0.2531 -0.5144  0.1122
  151SAPE  H17S16762   5.260   5.563   8.391 -1.6584  0.3569 -0.0846
  151SAPE  C21816763   5.106   5.571   8.227 -0.1133  0.0547  0.5102
  151SAPE  H18R16764   5.054   5.476   8.250  0.5301 -0.5076 -0.3173
  151SAPE  H18S16765   5.110   5.588   8.117 -2.5167 -1.3807  0.1658
  151SAPE  C21916766   5.017   5.680   8.296 -0.2393  0.2381  0.6415
  151SAPE  H19R16767   4.909   5.673   8.272 -0.5907  3.2213  1.1905
  151SAPE  H19S16768   5.046   5.783   8.266  1.3385  0.0688  1.5275
  151SAPE  C22016769   5.024   5.677   8.446 -0.0027  0.0074  0.6077
  151SAPE  H20R16770   4.948   5.737   8.500  0.2534 -0.2042  1.2053
  151SAPE  H20S16771   5.125   5.717   8.470 -0.0468  2.1321 -2.4601
  151SAPE  H20T16772   5.007   5.572   8.477  0.5714 -0.1390  0.4502
  151SAPE   C3316773   6.485   5.078   9.130  0.4560  1.0730 -1.0888
  151SAPE   H3X16774   6.462   5.158   9.057 -0.7330  0.4919 -1.3669
  151SAPE   H3Y16775   6.448   4.979   9.097  1.3083  0.2588  0.3178
  151SAPE   C3416776   6.629   5.034   9.118 -0.1225 -0.5228  0.1246
  151SAPE   H4X16777   6.667   4.980   9.207  0.1462  1.0797  1.0053
  151SAPE   H4Y16778   6.691   5.126   9.126 -1.6019  0.8338 -3.2889
  151SAPE   C3516779   6.662   4.979   8.977  0.4184 -0.5636  0.6084
  151SAPE   H5X16780   6.574   4.922   8.941  1.0789 -0.9181 -0.4844
  151SAPE   H5Y16781   6.755   4.918   8.974  1.0732  0.4864 -1.0391
  151SAPE   C3616782   6.679   5.093   8.871  0.1334  0.2163 -0.0581
  151SAPE   H6X16783   6.746   5.172   8.913  0.8078 -1.9117  3.0266
  151SAPE   H6Y16784   6.576   5.132   8.857  0.1991  0.1431 -0.7610
  151SAPE   C3716785   6.726   5.040   8.742 -0.1088 -0.2033 -0.6499
  151SAPE   H7X16786   6.817   4.978   8.758 -0.0434 -0.3848 -1.6541
  151SAPE   H7Y16787   6.759   5.129   8.683 -0.6848 -0.8256 -1.9370
  151SAPE   C3816788   6.624   4.957   8.670 -0.2657 -0.3830  0.3385
  151SAPE   H8X16789   6.522   4.998   8.685  0.3958  1.8154 -1.0024
  151SAPE   H8Y16790   6.624   4.859   8.722  2.8688 -0.6404 -0.0436
  151SAPE   C3916791   6.654   4.934   8.516 -0.6602 -0.3045 -0.2615
  151SAPE   H9X16792   6.758   4.898   8.500 -0.3688  0.3465  0.1469
  151SAPE   H9Y16793   6.650   5.040   8.485  1.1776 -0.0147  0.4480
  151SAPE  C31016794   6.562   4.855   8.428 -0.5365  0.6280 -0.4587
  151SAPE  H10X16795   6.456   4.872   8.456 -0.1933 -0.2780  1.4930
  151SAPE  H10Y16796   6.572   4.747   8.456 -2.8054  0.4506 -0.2257
  151SAPE  C31116797   6.584   4.882   8.280 -0.6027 -0.7846 -0.4349
  151SAPE  H11X16798   6.689   4.856   8.255  0.2600  0.8134  1.4638
  151SAPE  H11Y16799   6.582   4.992   8.265 -1.2639 -0.5378  1.3420
  151SAPE  C31216800   6.483   4.811   8.183  0.6168  0.1615 -0.0755
  151SAPE  H12X16801   6.383   4.857   8.170  1.2911  1.3476 -1.2155
  151SAPE  H12Y16802   6.473   4.704   8.210 -3.9684  0.4197 -0.3896
  151SAPE  C31316803   6.540   4.812   8.039 -0.1214  0.7642  0.2737
  151SAPE  H13X16804   6.641   4.767   8.042 -1.0920 -1.5095 -0.2922
  151SAPE  H13Y16805   6.559   4.917   8.007  0.2850 -0.0200 -2.1314
  151SAPE  C31416806   6.455   4.730   7.932  0.0216 -0.0690 -0.0098
  151SAPE  H14X16807   6.379   4.805   7.903  0.6901  0.5987 -0.0363
  151SAPE  H14Y16808   6.405   4.655   7.998 -0.4340  0.6422  0.4579
  151SAPE  C31516809   6.531   4.683   7.817  0.2392 -0.1180  0.2823
  151SAPE  H15X16810   6.629   4.641   7.848  0.1272 -0.1609  0.5749
  151SAPE  H15Y16811   6.564   4.764   7.749 -0.3730 -1.3860 -1.5630
  151SAPE  C31616812   6.443   4.589   7.735  0.1009 -0.1303 -0.7958
  151SAPE  H16X16813   6.417   4.495   7.788 -2.8806  1.1834  0.1736
  151SAPE  H16Y16814   6.490   4.554   7.641  1.9608  0.3298 -0.0490
  151SAPE  C31716815   6.304   4.642   7.696  0.4482  0.2531 -0.0202
  151SAPE  H17X16816   6.253   4.670   7.790  0.0705  0.5448 -0.3093
  151SAPE  H17Y16817   6.259   4.557   7.639  0.9988  1.3117 -2.0850
  151SAPE  C31816818   6.306   4.780   7.624 -0.0472 -0.3070  0.6677
  151SAPE  H18X16819   6.330   4.860   7.698 -1.6500 -0.4481  1.3618
  151SAPE  H18Y16820   6.200   4.804   7.602 -0.1052 -0.5136  0.7232
  151SAPE  H18Z16821   6.378   4.777   7.540 -3.1351 -0.3809 -2.0883
  152SAPE     N16822   0.020   4.969   9.662  0.0892  0.0324 -0.4035
  152SAPE   HN116823  -0.082   4.982   9.677  0.1561  0.3956 -0.2520
  152SAPE   HN216824   0.047   5.070   9.660 -1.9563  0.6069 -0.5198
  152SAPE   HN316825   0.048   4.936   9.568 -0.1810  1.1015 -0.8680
  152SAPE   C1216826   0.091   4.904   9.777  0.0645  0.5577 -0.5145
  152SAPE  H12A16827   0.052   4.800   9.779  0.6967  0.3123 -0.9564
  152SAPE  H12B16828   0.058   4.949   9.873 -0.6160 -1.8212  0.4077
  152SAPE   C1116829   0.242   4.906   9.764 -0.1197 -0.4190 -0.3146
  152SAPE  H11A16830   0.275   4.864   9.666  0.5619 -1.4788  0.3599
  152SAPE  H11B16831   0.273   4.824   9.833 -0.7093 -0.6267 -0.2982
  152SAPE     P16832   0.329   5.150   9.715  0.0384 -0.3627  0.3487
  152SAPE   O1316833   0.194   5.182   9.653  0.0441  0.0242  0.1596
  152SAPE   O1416834   0.395   5.253   9.789 -0.4381  0.3238 -0.0478
  152SAPE   O1216835   0.314   5.024   9.801  0.2190  0.7014  0.2436
  152SAPE   O1116836   0.432   5.100   9.603 -0.4731 -0.7279  0.0981
  152SAPE    C116837   0.530   5.004   9.621  0.4708  0.0553 -0.5677
  152SAPE    HA16838   0.613   5.056   9.675 -1.4257  1.2636  1.2721
  152SAPE    HB16839   0.493   4.915   9.676 -0.3774 -0.0305 -1.2726
  152SAPE    C216840   0.579   4.944   9.490 -0.3423  0.0147 -0.1402
  152SAPE    HS16841   0.667   4.879   9.508  0.8199  1.0291 -1.9291
  152SAPE   O2116842   0.626   5.055   9.404  0.0428  0.2961 -0.1706
  152SAPE   C2116843   0.740   5.108   9.448 -0.7910 -0.0496  0.2372
  152SAPE   O2216844   0.810   5.068   9.541 -0.0873 -0.1649 -0.0822
  152SAPE   C2216845   0.773   5.230   9.351 -0.3234 -0.0906  0.0718
  152SAPE   H2R16846   0.688   5.230   9.279  1.8690  2.6145 -2.6510
  152SAPE   H2S16847   0.794   5.320   9.412  1.6937 -0.9532  0.6808
  152SAPE    C316848   0.475   4.849   9.421  0.8174  0.1630 -0.2381
  152SAPE    HX16849   0.384   4.913   9.421 -1.3060 -2.7158  0.8399
  152SAPE    HY16850   0.452   4.762   9.487 -1.3330  0.2744 -0.7924
  152SAPE   O3116851   0.529   4.825   9.290  0.1734  0.1309 -0.4636
  152SAPE   C3116852   0.442   4.848   9.186  0.3386  0.3573  0.1396
  152SAPE   O3216853   0.328   4.886   9.197 -0.5382  0.8400  0.6268
  152SAPE   C3216854   0.509   4.813   9.059  0.5466 -0.4908  0.1846
  152SAPE   H2X16855   0.499   4.703   9.050 -0.2191 -0.2858 -1.7059
  152SAPE   H2Y16856   0.616   4.845   9.058 -0.0132  1.4234 -0.0947
  152SAPE   C2316857   0.901   5.212   9.275 -0.0505  0.1079 -0.2545
  152SAPE   H3R16858   0.977   5.185   9.351 -0.5721 -0.4551  0.0715
  152SAPE   H3S16859   0.925   5.312   9.233 -1.6982  0.7619  0.2952
  152SAPE   C2416860   0.895   5.092   9.169  0.4714  0.0253  0.6824
  152SAPE   H4R16861   0.883   4.997   9.225 -1.5293  0.3906  0.9431
  152SAPE   H4S16862   0.992   5.108   9.118 -0.5170  1.5317 -0.8000
  152SAPE   C2516863   0.792   5.111   9.062  0.9100 -0.1030 -0.1906
  152SAPE   H5R16864   0.690   5.076   9.087  1.5890 -0.8217  1.6530
  152SAPE   C2616865   0.800   5.175   8.944 -0.2933  0.0897 -0.1492
  152SAPE   H6R16866   0.713   5.174   8.876  0.8612  0.7350 -1.6753
  152SAPE   C2716867   0.909   5.258   8.884  0.1695  0.5442 -0.4504
  152SAPE   H7R16868   0.937   5.210   8.788 -0.6793 -1.2937  0.1896
  152SAPE   H7S16869   0.998   5.262   8.950  0.2679  1.0501 -0.6125
  152SAPE   C2816870   0.858   5.395   8.853  0.4437 -0.1381 -0.7944
  152SAPE   H8R16871   0.855   5.459   8.943 -0.6973 -1.0200 -0.1850
  152SAPE   C2916872   0.831   5.453   8.735  0.0372 -0.1083  0.4940
  152SAPE   H9R16873   0.798   5.558   8.735  0.5872  0.0692 -0.0120
  152SAPE  C21016874   0.854   5.391   8.598  0.2682 -0.4893  0.1462
  152SAPE  H10R16875   0.910   5.296   8.612  0.2796 -0.5730 -0.4595
  152SAPE  H10S16876   0.906   5.465   8.534 -1.9949  2.7166  1.9201
  152SAPE  C21116877   0.718   5.365   8.539  0.6432  0.0558  0.4285
  152SAPE  H11R16878   0.662   5.278   8.577 -0.8308  1.0342  0.5327
  152SAPE  C21216879   0.635   5.453   8.470 -0.7442 -0.0140 -0.3065
  152SAPE  H12R16880   0.536   5.423   8.433  0.2850 -2.4694 -1.1591
  152SAPE  C21316881   0.685   5.593   8.434  0.3931  0.5420  0.2263
  152SAPE  H13R16882   0.730   5.593   8.332 -0.7025 -0.2500 -0.2642
  152SAPE  H13S16883   0.773   5.635   8.489 -0.3084  2.4174 -0.0357
  152SAPE  C21416884   0.586   5.704   8.446  0.1990 -0.0176  1.1747
  152SAPE  H14R16885   0.577   5.755   8.542  1.1824  2.3618  0.0366
  152SAPE  C21516886   0.510   5.743   8.340  0.6233  0.5387 -0.0715
  152SAPE  H15R16887   0.436   5.824   8.343 -1.2580 -1.0263 -2.1605
  152SAPE  C21616888   0.526   5.689   8.198  0.4831  0.1942 -0.0224
  152SAPE  H16R16889   0.430   5.708   8.146 -0.0824 -0.4501  0.7784
  152SAPE  H16S16890   0.529   5.578   8.198 -1.1422  0.1377  2.0128
  152SAPE  C21716891   0.633   5.752   8.110  0.1081  0.0876  0.1373
  152SAPE  H17R16892   0.636   5.701   8.012 -0.8811 -2.2205  1.2943
  152SAPE  H17S16893   0.734   5.738   8.155  0.8998  0.0447 -1.6038
  152SAPE  C21816894   0.593   5.898   8.087  0.1316 -0.6907  0.4187
  152SAPE  H18R16895   0.574   5.958   8.178  0.1942  1.8318 -1.1734
  152SAPE  H18S16896   0.496   5.896   8.032  0.5800 -2.2498 -0.3528
  152SAPE  C21916897   0.703   5.948   7.998 -0.7034  0.4342 -0.0819
  152SAPE  H19R16898   0.731   5.873   7.920  0.0462  0.2047  0.3971
  152SAPE  H19S16899   0.794   5.966   8.059  0.7911 -0.3569 -2.0335
  152SAPE  C22016900   0.670   6.086   7.943 -0.8479 -0.0266 -0.3760
  152SAPE  H20R16901   0.644   6.160   8.022 -0.6231 -1.3291  0.9401
  152SAPE  H20S16902   0.593   6.089   7.863  0.3014 -2.2053 -1.6122
  152SAPE  H20T16903   0.765   6.128   7.903 -1.5986  0.8238 -1.2791
  152SAPE   C3316904   0.453   4.897   8.937  0.3241 -0.0637  0.2159
  152SAPE   H3X16905   0.413   4.995   8.971 -0.3794 -0.1473 -0.3661
  152SAPE   H3Y16906   0.362   4.843   8.904 -0.1495 -1.7501  4.0957
  152SAPE   C3416907   0.551   4.903   8.817  0.2273 -0.5110  0.3305
  152SAPE   H4X16908   0.574   4.802   8.776  0.7517 -0.4979  0.5821
  152SAPE   H4Y16909   0.646   4.949   8.852  1.6061 -4.1446  1.6391
  152SAPE   C3516910   0.493   5.000   8.706  0.1492 -0.4390 -0.1048
  152SAPE   H5X16911   0.501   5.104   8.742 -2.4714  0.0660 -0.8742
  152SAPE   H5Y16912   0.384   4.980   8.707  0.4580 -2.1985  1.4717
  152SAPE   C3616913   0.547   4.974   8.568  0.3461 -0.2558 -0.2611
  152SAPE   H6X16914   0.532   4.868   8.542 -0.8622 -0.2035  0.1814
  152SAPE   H6Y16915   0.655   4.999   8.567  0.3523 -0.2647  0.1317
  152SAPE   C3716916   0.461   5.059   8.465  0.2838  0.0031  0.1576
  152SAPE   H7X16917   0.467   5.165   8.496  1.7174 -0.2662  0.8652
  152SAPE   H7Y16918   0.354   5.031   8.468  0.4848 -0.7710  0.2309
  152SAPE   C3816919   0.513   5.029   8.324  0.6933 -0.2946  0.1376
  152SAPE   H8X16920   0.476   4.934   8.282  0.4010 -0.4289  0.6905
  152SAPE   H8Y16921   0.624   5.030   8.328  0.7142 -1.8941 -0.0733
  152SAPE   C3916922   0.475   5.140   8.225 -0.3029 -0.4452  0.0640
  152SAPE   H9X16923   0.512   5.241   8.254  1.8816 -1.7961  2.1465
  152SAPE   H9Y16924   0.365   5.158   8.228 -0.5425 -1.7447 -0.7189
  152SAPE  C31016925   0.519   5.113   8.078  0.5363  0.0340  0.6172
  152SAPE  H10X16926   0.459   5.028   8.039  0.5289 -0.0044  0.7135
  152SAPE  H10Y16927   0.627   5.088   8.078  0.2123 -1.4118  0.8893
  152SAPE  C31116928   0.488   5.237   7.994 -0.8673 -0.3507  0.5595
  152SAPE  H11X16929   0.539   5.326   8.038  1.0762 -0.3669 -1.5786
  152SAPE  H11Y16930   0.379   5.256   7.986 -1.1809 -0.9553  3.0657
  152SAPE  C31216931   0.554   5.224   7.855  0.7756  0.2781 -0.0422
  152SAPE  H12X16932   0.499   5.140   7.808 -0.4810  1.5173 -0.8645
  152SAPE  H12Y16933   0.661   5.200   7.869  0.2372 -1.3864  1.4616
  152SAPE  C31316934   0.515   5.341   7.760 -0.0446 -0.3830  0.1903
  152SAPE  H13X16935   0.562   5.436   7.792 -0.8056  0.7409 -1.9457
  152SAPE  H13Y16936   0.407   5.365   7.753 -0.0591 -0.8458 -1.3785
  152SAPE  C31416937   0.569   5.314   7.621 -0.6617  0.1174  0.3798
  152SAPE  H14X16938   0.547   5.209   7.593 -0.1947  0.2018 -0.3256
  152SAPE  H14Y16939   0.680   5.319   7.618 -0.6916  3.0127  1.9435
  152SAPE  C31516940   0.524   5.415   7.520  0.2990  0.4425 -0.1321
  152SAPE  H15X16941   0.565   5.515   7.547  1.9667 -0.0861 -0.6066
  152SAPE  H15Y16942   0.413   5.421   7.520  0.1249 -2.1814 -0.4240
  152SAPE  C31616943   0.570   5.390   7.376 -0.0897  0.3435 -0.5938
  152SAPE  H16X16944   0.494   5.438   7.311 -0.7007 -0.0598 -0.1814
  152SAPE  H16Y16945   0.565   5.281   7.352  0.2812 -0.0601  1.0949
  152SAPE  C31716946   0.706   5.445   7.341 -0.0724 -0.3157 -0.1385
  152SAPE  H17X16947   0.781   5.404   7.412  1.1444  2.2052  0.0739
  152SAPE  H17Y16948   0.708   5.553   7.367  2.4791 -0.2495 -0.4893
  152SAPE  C31816949   0.742   5.422   7.186  0.2309 -0.0003 -0.1459
  152SAPE  H18X16950   0.671   5.437   7.102 -0.0023  1.7130  0.3305
  152SAPE  H18Y16951   0.787   5.321   7.179  2.8763  0.9901  1.5151
  152SAPE  H18Z16952   0.830   5.488   7.170  1.7105 -1.6936  0.7817
  153SAPE     N16953   7.011   1.297   9.680 -0.0639 -0.3076  0.1029
  153SAPE   HN116954   6.965   1.217   9.631  0.1590 -0.5135  0.2323
  153SAPE   HN216955   7.022   1.363   9.600 -4.4222  0.9542  0.3811
  153SAPE   HN316956   7.100   1.276   9.728 -1.9425  1.7480  4.7905
  153SAPE   C1216957   6.948   1.367   9.795 -0.1918  0.0712  0.6450
  153SAPE  H12A16958   7.018   1.445   9.829  1.0298 -1.3509  1.4435
  153SAPE  H12B16959   6.927   1.283   9.864  1.1617 -2.3154 -1.7459
  153SAPE   C1116960   6.816   1.426   9.757  0.0057  0.3073  1.0456
  153SAPE  H11A16961   6.825   1.512   9.688 -2.4063 -1.6971 -1.8690
  153SAPE  H11B16962   6.774   1.468   9.851  0.7040  1.7824  0.7230
  153SAPE     P16963   6.621   1.259   9.778 -0.2018 -0.6973 -0.1797
  153SAPE   O1316964   6.678   1.133   9.827 -0.3215 -0.0599  0.5158
  153SAPE   O1416965   6.558   1.356   9.876 -0.2524 -0.0337  0.7138
  153SAPE   O1216966   6.725   1.337   9.688 -0.0159  0.0258  0.4418
  153SAPE   O1116967   6.521   1.226   9.666 -0.1500 -0.5804  0.8915
  153SAPE    C116968   6.552   1.165   9.544  0.3620 -0.4043  0.0111
  153SAPE    HA16969   6.491   1.208   9.462  1.1767  0.4738 -0.1450
  153SAPE    HB16970   6.648   1.195   9.498 -0.7165 -0.2285 -2.2005
  153SAPE    C216971   6.527   1.011   9.551 -0.3302 -0.1929 -0.2406
  153SAPE    HS16972   6.607   0.972   9.617  0.4355  1.2239 -0.3003
  153SAPE   O2116973   6.530   0.959   9.420 -0.2569 -0.3091 -0.1194
  153SAPE   C2116974   6.650   0.930   9.369  0.2278  0.3141 -0.4793
  153SAPE   O2216975   6.756   0.951   9.424 -0.2062  0.0412 -0.6524
  153SAPE   C2216976   6.630   0.882   9.226 -0.2445 -0.4016 -0.3326
  153SAPE   H2R16977   6.539   0.821   9.211  0.9685 -2.0150 -1.3180
  153SAPE   H2S16978   6.614   0.972   9.162  1.3048 -1.7472 -2.7163
  153SAPE    C316979   6.384   0.972   9.612  0.1949 -0.4688 -0.2587
  153SAPE    HX16980   6.377   1.021   9.711  0.8171  2.4738 -1.6174
  153SAPE    HY16981   6.369   0.862   9.621  1.0114 -0.9350 -3.7501
  153SAPE   O3116982   6.287   1.038   9.534  0.0683  0.1646 -0.0194
  153SAPE   C3116983   6.187   0.970   9.471  0.8507  0.3400  0.1642
  153SAPE   O3216984   6.168   0.854   9.480  0.1089  0.3523  0.2539
  153SAPE   C3216985   6.110   1.069   9.384 -0.1366  0.1869  0.5302
  153SAPE   H2X16986   6.057   1.133   9.458  0.0719 -1.7271  2.3568
  153SAPE   H2Y16987   6.033   1.015   9.326  0.0388  0.0239  0.4464
  153SAPE   C2316988   6.744   0.800   9.165 -0.5182  0.5353  0.3360
  153SAPE   H3R16989   6.772   0.717   9.233  0.9621  0.6758 -0.0975
  153SAPE   H3S16990   6.834   0.863   9.153 -0.5972  0.4255 -0.9322
  153SAPE   C2416991   6.708   0.748   9.019  0.4651  0.4863 -0.7182
  153SAPE   H4R16992   6.806   0.724   8.971  0.4232 -1.4428  0.1339
  153SAPE   H4S16993   6.658   0.832   8.966 -2.6366 -0.8539 -0.0015
  153SAPE   C2516994   6.619   0.630   9.001 -1.1291  0.0738 -0.9187
  153SAPE   H5R16995   6.584   0.577   9.090 -1.0399  0.3809 -0.7008
  153SAPE   C2616996   6.561   0.592   8.885 -0.3122  0.4698  0.5044
  153SAPE   H6R16997   6.504   0.498   8.889  0.1587  0.0956 -1.0649
  153SAPE   C2716998   6.565   0.656   8.752 -0.3569 -0.0277  0.1797
  153SAPE   H7R16999   6.504   0.748   8.746 -0.2043  0.0477 -0.1946
  153SAPE   H7S17000   6.513   0.585   8.684 -0.9766  1.7213 -1.2208
  153SAPE   C2817001   6.701   0.687   8.684 -0.0396 -0.5638 -0.1209
  153SAPE   H8R17002   6.796   0.683   8.740  0.9498  0.7565 -1.6702
  153SAPE   C2917003   6.726   0.728   8.555 -0.4138  0.5651  0.5925
  153SAPE   H9R17004   6.834   0.741   8.535 -0.0795 -0.7151  1.5341
  153SAPE  C21017005   6.631   0.753   8.440  0.3616  0.3350 -0.4059
  153SAPE  H10R17006   6.599   0.859   8.433  1.4558  0.5987 -1.6223
  153SAPE  H10S17007   6.532   0.703   8.443 -0.4945  1.8543 -2.0246
  153SAPE  C21117008   6.684   0.711   8.302 -0.1280 -0.1332 -0.0015
  153SAPE  H11R17009   6.768   0.640   8.302 -1.0432 -1.2360 -1.0656
  153SAPE  C21217010   6.625   0.740   8.182  0.6219 -1.0711  0.1404
  153SAPE  H12R17011   6.677   0.713   8.089 -0.1427 -0.1502 -0.5702
  153SAPE  C21317012   6.494   0.820   8.164 -0.1308 -0.6762  0.2446
  153SAPE  H13R17013   6.504   0.906   8.094 -2.2802  0.2263  1.0303
  153SAPE  H13S17014   6.469   0.887   8.249  1.7551  0.9026 -0.3847
  153SAPE  C21417015   6.374   0.737   8.133 -0.6782  0.4049  0.2499
  153SAPE  H14R17016   6.325   0.678   8.211 -1.4931 -0.2391 -0.7275
  153SAPE  C21517017   6.308   0.728   8.008 -0.2468  0.4731  0.2517
  153SAPE  H15R17018   6.219   0.663   8.008 -0.0020  0.1389  0.3245
  153SAPE  C21617019   6.341   0.802   7.878  0.5137  0.1029  0.1288
  153SAPE  H16R17020   6.386   0.899   7.908 -1.5706  1.5392 -1.2972
  153SAPE  H16S17021   6.244   0.840   7.839 -0.3790 -0.5092  1.6819
  153SAPE  C21717022   6.432   0.734   7.782 -0.4245 -0.4674 -0.3093
  153SAPE  H17R17023   6.383   0.635   7.770  0.1492 -0.7443 -0.3549
  153SAPE  H17S17024   6.527   0.714   7.836 -0.6493  1.1888  0.7334
  153SAPE  C21817025   6.450   0.804   7.653  0.7215  0.0794  0.3229
  153SAPE  H18R17026   6.481   0.903   7.692  0.7040 -0.3759  1.4960
  153SAPE  H18S17027   6.356   0.818   7.594 -0.5674 -2.6226  1.6752
  153SAPE  C21917028   6.552   0.729   7.570 -0.5779 -0.3069 -0.2004
  153SAPE  H19R17029   6.495   0.639   7.539  0.5072 -1.1958  0.3753
  153SAPE  H19S17030   6.637   0.695   7.632 -0.2150  0.4051 -0.3018
  153SAPE  C22017031   6.584   0.807   7.441  0.5293  0.1821 -1.3833
  153SAPE  H20R17032   6.616   0.738   7.360  1.1200 -0.6537 -0.4451
  153SAPE  H20S17033   6.671   0.874   7.456 -0.8053  1.7861 -0.7493
  153SAPE  H20T17034   6.505   0.881   7.413 -0.1721  0.0618  0.2538
  153SAPE   C3317035   6.208   1.152   9.294  0.5472 -0.3762  0.4093
  153SAPE   H3X17036   6.307   1.179   9.338  0.9387  2.1284 -1.9039
  153SAPE   H3Y17037   6.155   1.246   9.268 -0.7368 -1.1732  0.1469
  153SAPE   C3417038   6.238   1.059   9.173 -0.1195  0.1018  0.4705
  153SAPE   H4X17039   6.139   1.040   9.126 -0.7422  2.7734  0.6271
  153SAPE   H4Y17040   6.278   0.963   9.211  0.6241  0.0606 -0.3820
  153SAPE   C3517041   6.343   1.117   9.075 -0.5373  0.2992  0.3328
  153SAPE   H5X17042   6.436   1.144   9.130 -0.0991 -1.4024  0.4286
  153SAPE   H5Y17043   6.295   1.211   9.040 -0.6138 -0.2108 -0.9422
  153SAPE   C3617044   6.371   1.023   8.951 -0.4453 -0.4082  0.4114
  153SAPE   H6X17045   6.276   1.011   8.894 -0.1226 -1.0340 -0.0103
  153SAPE   H6Y17046   6.400   0.921   8.986 -1.9866 -0.1280  2.5405
  153SAPE   C3717047   6.489   1.071   8.855 -0.8390  0.0368  0.3941
  153SAPE   H7X17048   6.517   0.986   8.789 -1.1216 -0.3598  0.7749
  153SAPE   H7Y17049   6.572   1.110   8.918  0.8160 -1.9918 -0.4810
  153SAPE   C3817050   6.440   1.195   8.771 -0.0589  0.7543 -0.2249
  153SAPE   H8X17051   6.468   1.289   8.822  1.5156  0.5496 -0.6829
  153SAPE   H8Y17052   6.329   1.190   8.772  0.0014 -1.0256  1.5684
  153SAPE   C3917053   6.475   1.196   8.621 -0.7755  0.7646 -0.3120
  153SAPE   H9X17054   6.411   1.264   8.560 -2.2100 -0.5149 -0.2593
  153SAPE   H9Y17055   6.452   1.093   8.585  0.5512  0.3323  0.0618
  153SAPE  C31017056   6.624   1.223   8.593  0.2288 -0.3853  0.9000
  153SAPE  H10X17057   6.677   1.132   8.630  1.7044 -0.5744 -1.5751
  153SAPE  H10Y17058   6.663   1.312   8.646  1.4086 -0.2650 -0.1663
  153SAPE  C31117059   6.652   1.263   8.450  0.1013 -0.1968  0.9051
  153SAPE  H11X17060   6.743   1.325   8.439 -0.1759 -0.0479 -0.6920
  153SAPE  H11Y17061   6.574   1.326   8.403  0.2562 -2.0510 -1.9965
  153SAPE  C31217062   6.669   1.136   8.357  0.1001  0.0024 -0.1903
  153SAPE  H12X17063   6.563   1.102   8.353  0.2682 -0.4426 -0.9883
  153SAPE  H12Y17064   6.724   1.052   8.403 -1.7101 -1.9535 -1.4861
  153SAPE  C31317065   6.709   1.164   8.208 -0.0067 -0.3800  0.2349
  153SAPE  H13X17066   6.686   1.074   8.147  0.1699 -0.2913  0.0396
  153SAPE  H13Y17067   6.817   1.190   8.202 -0.1812 -0.0372 -1.5409
  153SAPE  C31417068   6.623   1.266   8.136 -0.3652 -0.6356  0.2838
  153SAPE  H14X17069   6.629   1.358   8.198  1.7793  0.2985 -1.2501
  153SAPE  H14Y17070   6.516   1.238   8.139 -0.9642  1.6277  1.4575
  153SAPE  C31517071   6.666   1.291   7.990  0.0841  0.2999 -0.1638
  153SAPE  H15X17072   6.671   1.189   7.944  0.3519 -0.4810  1.5567
  153SAPE  H15Y17073   6.775   1.314   7.987  0.2108 -0.1295  0.9112
  153SAPE  C31617074   6.572   1.384   7.914  0.4631  0.5164 -0.4555
  153SAPE  H16X17075   6.472   1.336   7.914  0.6560  0.1016  0.4162
  153SAPE  H16Y17076   6.619   1.383   7.813  2.5633 -2.8665  0.4873
  153SAPE  C31717077   6.565   1.523   7.981 -0.3897 -0.3982  0.3520
  153SAPE  H17X17078   6.672   1.550   7.992 -0.8585  1.8610 -0.4176
  153SAPE  H17Y17079   6.509   1.506   8.075  0.4841  1.9059  1.3053
  153SAPE  C31817080   6.499   1.617   7.881 -0.0954 -0.2239  0.1824
  153SAPE  H18X17081   6.550   1.623   7.783 -0.4547  0.8763  0.0573
  153SAPE  H18Y17082   6.492   1.721   7.919  0.5899  0.3778 -1.3234
  153SAPE  H18Z17083   6.396   1.587   7.851  0.0409  0.0205 -0.5391
  154SAPE     N17084   0.795   0.622   9.619 -1.0445 -0.8077  0.4632
  154SAPE   HN117085   0.864   0.678   9.565 -3.7662  0.4822 -1.8378
  154SAPE   HN217086   0.771   0.537   9.563  4.1565 -1.1539 -1.5246
  154SAPE   HN317087   0.720   0.694   9.625 -2.1868 -2.0173  0.8559
  154SAPE   C1217088   0.814   0.584   9.761  0.5946  0.1067 -0.2667
  154SAPE  H12A17089   0.753   0.497   9.794  0.2346 -0.4757 -2.4213
  154SAPE  H12B17090   0.791   0.675   9.821  0.4063 -0.8017  1.0824
  154SAPE   C1117091   0.966   0.560   9.800  1.1078 -0.2116 -0.1638
  154SAPE  H11A17092   1.003   0.474   9.742 -0.0061  0.8293 -2.4873
  154SAPE  H11B17093   0.964   0.521   9.904 -1.2068 -2.2332 -0.9206
  154SAPE     P17094   1.163   0.702   9.691 -0.1922 -0.2306 -0.3443
  154SAPE   O1317095   1.168   0.849   9.676 -0.0576 -0.9543 -0.1804
  154SAPE   O1417096   1.286   0.632   9.739  0.2213 -0.0650 -0.3234
  154SAPE   O1217097   1.046   0.679   9.797  0.0576 -0.6049 -0.4543
  154SAPE   O1117098   1.110   0.632   9.564 -0.1607 -0.2914  0.0187
  154SAPE    C117099   1.195   0.622   9.447 -0.8135  0.2369 -0.1557
  154SAPE    HA17100   1.239   0.714   9.402 -0.7189  0.2976  0.0605
  154SAPE    HB17101   1.290   0.568   9.465 -1.4814 -0.7047  0.5847
  154SAPE    C217102   1.116   0.544   9.338 -0.1998 -0.3735 -0.3857
  154SAPE    HS17103   1.167   0.532   9.240  1.3667 -1.8201  0.5923
  154SAPE   O2117104   0.986   0.602   9.321  0.9337  0.1313 -0.9660
  154SAPE   C2117105   0.985   0.713   9.250  0.1939  0.3407 -1.0227
  154SAPE   O2217106   1.081   0.765   9.202 -0.2943 -0.1598 -0.1041
  154SAPE   C2217107   0.838   0.754   9.236 -0.4734 -0.1326 -0.0961
  154SAPE   H2R17108   0.777   0.663   9.253  0.2157 -1.0549 -2.4348
  154SAPE   H2S17109   0.825   0.825   9.321 -0.3843 -0.0267 -0.1705
  154SAPE    C317110   1.090   0.399   9.392  0.1208 -0.4194  0.1061
  154SAPE    HX17111   0.998   0.386   9.454 -0.4893  0.1344 -0.6725
  154SAPE    HY17112   1.173   0.380   9.463 -0.9318 -1.1953  1.1673
  154SAPE   O3117113   1.089   0.308   9.275  0.1999  0.6363  0.1105
  154SAPE   C3117114   0.983   0.241   9.244 -0.3376 -0.2259  0.0036
  154SAPE   O3217115   0.884   0.227   9.318  0.0740 -0.2072  0.3469
  154SAPE   C3217116   0.996   0.181   9.098 -1.0247 -0.1281  0.2438
  154SAPE   H2X17117   1.026   0.076   9.116  0.7183  0.4889  1.0089
  154SAPE   H2Y17118   1.073   0.240   9.044 -0.8638  0.0992  0.7183
  154SAPE   C2317119   0.796   0.823   9.098  0.2796  0.0934  0.7364
  154SAPE   H3R17120   0.773   0.738   9.030  0.9179 -2.0076  3.0737
  154SAPE   H3S17121   0.880   0.885   9.059  0.1672 -0.7807 -0.9099
  154SAPE   C2417122   0.662   0.900   9.089 -0.2755  0.0284 -0.1772
  154SAPE   H4R17123   0.640   0.917   8.982  0.8902 -0.5287 -0.5115
  154SAPE   H4S17124   0.684   1.001   9.130 -1.0580  0.2089 -0.1846
  154SAPE   C2517125   0.546   0.834   9.160  0.3469  0.6334  0.0594
  154SAPE   H5R17126   0.555   0.820   9.269 -2.8809 -3.7671 -0.1276
  154SAPE   C2617127   0.453   0.766   9.094  0.1666 -0.6563  0.0931
  154SAPE   H6R17128   0.385   0.703   9.153  0.0437  0.6183  1.3252
  154SAPE   C2717129   0.426   0.753   8.946  0.6506 -0.3344  0.3236
  154SAPE   H7R17130   0.438   0.645   8.925 -0.2445 -0.7966  2.1294
  154SAPE   H7S17131   0.505   0.812   8.894 -1.4318  1.8965 -0.3937
  154SAPE   C2817132   0.298   0.790   8.897 -0.1388 -0.4631 -0.3384
  154SAPE   H8R17133   0.232   0.843   8.967  1.3908  0.0508  0.7594
  154SAPE   C2917134   0.254   0.774   8.769 -0.1458  0.1429 -1.1039
  154SAPE   H9R17135   0.145   0.783   8.752 -0.0609  0.8948 -1.2597
  154SAPE  C21017136   0.333   0.710   8.662 -0.2020 -0.1116 -0.2230
  154SAPE  H10R17137   0.317   0.601   8.675 -2.1119  0.1858 -0.0675
  154SAPE  H10S17138   0.444   0.715   8.672 -0.2233 -0.4839  0.2243
  154SAPE  C21117139   0.292   0.745   8.519 -0.1587 -0.1753  0.6767
  154SAPE  H11R17140   0.190   0.781   8.500  0.4796  0.3109 -2.0302
  154SAPE  C21217141   0.376   0.729   8.413 -0.2654 -0.4377 -0.7405
  154SAPE  H12R17142   0.334   0.752   8.313 -0.1528  4.0790  0.1813
  154SAPE  C21317143   0.510   0.665   8.407 -0.0893  0.5382  0.4050
  154SAPE  H13R17144   0.537   0.601   8.494 -2.6024 -0.3278  0.5922
  154SAPE  H13S17145   0.592   0.739   8.398  1.8317 -1.4825  0.7424
  154SAPE  C21417146   0.507   0.586   8.280  0.3708  0.1385 -0.0931
  154SAPE  H14R17147   0.466   0.484   8.280 -1.1957  0.7466 -1.1695
  154SAPE  C21517148   0.557   0.614   8.156  0.2179  0.0229 -0.9193
  154SAPE  H15R17149   0.563   0.532   8.083  0.5484 -0.5724 -0.2353
  154SAPE  C21617150   0.620   0.748   8.118 -0.5118 -0.3069  0.5019
  154SAPE  H16R17151   0.722   0.741   8.076 -0.5216 -2.1912  0.7415
  154SAPE  H16S17152   0.628   0.816   8.205 -0.0863 -1.4198  1.3423
  154SAPE  C21717153   0.517   0.816   8.020  0.8797 -0.0259  0.8721
  154SAPE  H17R17154   0.509   0.755   7.928  2.2524 -1.9126  1.9717
  154SAPE  H17S17155   0.569   0.909   7.988 -0.6854  0.2293 -0.9885
  154SAPE  C21817156   0.375   0.844   8.066  0.0007  0.2621 -0.2614
  154SAPE  H18R17157   0.373   0.915   8.151  4.2722  1.9392 -1.4301
  154SAPE  H18S17158   0.319   0.751   8.091  0.8017  0.0853  0.8702
  154SAPE  C21917159   0.288   0.904   7.951 -0.0493  0.2918  0.9241
  154SAPE  H19R17160   0.185   0.911   7.991 -0.0854  1.7497  0.6214
  154SAPE  H19S17161   0.292   0.824   7.875  0.2784 -0.5945  1.8552
  154SAPE  C22017162   0.337   1.030   7.875 -0.3382 -1.0339  0.2173
  154SAPE  H20R17163   0.249   1.059   7.813 -0.7913 -0.7142  1.0144
  154SAPE  H20S17164   0.425   1.013   7.809  1.2429 -0.1361  2.0484
  154SAPE  H20T17165   0.369   1.115   7.939  2.5183 -1.9560  0.0996
  154SAPE   C3317166   0.861   0.173   9.020 -0.0540  0.4045 -0.1398
  154SAPE   H3X17167   0.794   0.111   9.083 -1.2324  1.2777 -0.4993
  154SAPE   H3Y17168   0.854   0.117   8.924 -1.5365  2.3089 -1.2009
  154SAPE   C3417169   0.792   0.305   8.989  0.5004 -0.2121 -0.7680
  154SAPE   H4X17170   0.795   0.367   9.081  0.5614 -0.0394 -0.8862
  154SAPE   H4Y17171   0.688   0.293   8.951 -0.4805  1.5157  1.2858
  154SAPE   C3517172   0.858   0.383   8.876 -0.4214 -0.2143  0.2445
  154SAPE   H5X17173   0.836   0.333   8.780  2.5854 -0.2283 -0.4801
  154SAPE   H5Y17174   0.969   0.375   8.875 -0.4643 -0.8625  0.8778
  154SAPE   C3617175   0.794   0.521   8.856 -0.1692 -0.3428 -0.1207
  154SAPE   H6X17176   0.824   0.576   8.948 -2.5151  3.3370 -1.4274
  154SAPE   H6Y17177   0.683   0.512   8.851 -0.5699  2.3516  2.5210
  154SAPE   C3717178   0.843   0.592   8.728  0.0106  0.5412  0.5254
  154SAPE   H7X17179   0.816   0.532   8.639 -1.1051  1.8367 -0.0177
  154SAPE   H7Y17180   0.953   0.586   8.738  0.0135  0.8310  0.6773
  154SAPE   C3817181   0.794   0.740   8.714 -0.6956 -0.7134 -0.6949
  154SAPE   H8X17182   0.833   0.794   8.803 -1.8005  1.6773 -1.6102
  154SAPE   H8Y17183   0.683   0.740   8.728 -0.3526 -1.1959  2.3576
  154SAPE   C3917184   0.833   0.825   8.587 -0.6179  0.3693  0.1314
  154SAPE   H9X17185   0.783   0.769   8.505 -1.1904  1.0365  0.0196
  154SAPE   H9Y17186   0.942   0.833   8.566 -0.8740 -2.5004 -2.7197
  154SAPE  C31017187   0.774   0.966   8.587 -0.5592  0.1058  0.2576
  154SAPE  H10X17188   0.852   1.039   8.618  0.1121 -1.2307  1.8492
  154SAPE  H10Y17189   0.693   0.959   8.663 -2.2949 -0.4929 -1.6203
  154SAPE  C31117190   0.708   1.009   8.464  0.2845 -0.4076  0.2124
  154SAPE  H11X17191   0.656   1.103   8.492  0.7449 -0.0414 -0.1641
  154SAPE  H11Y17192   0.631   0.936   8.429  0.7531  0.4194 -2.6963
  154SAPE  C31217193   0.784   1.027   8.340 -0.5717 -0.4353 -0.7653
  154SAPE  H12X17194   0.828   0.929   8.311 -0.5304 -0.4348 -0.7059
  154SAPE  H12Y17195   0.870   1.095   8.358 -1.1633 -0.0819  0.8560
  154SAPE  C31317196   0.708   1.095   8.232  0.2355  0.3416  0.3386
  154SAPE  H13X17197   0.644   1.170   8.283  0.4338  1.1046 -0.5097
  154SAPE  H13Y17198   0.633   1.039   8.172  2.0295 -1.6754 -0.0510
  154SAPE  C31417199   0.801   1.176   8.129 -0.0710 -0.0937  0.7212
  154SAPE  H14X17200   0.851   1.098   8.068  1.6075  2.2842 -1.0278
  154SAPE  H14Y17201   0.870   1.239   8.188  1.6736 -1.5256  0.2448
  154SAPE  C31517202   0.726   1.271   8.031  0.3072  0.4566  0.3393
  154SAPE  H15X17203   0.656   1.337   8.087 -0.7668  0.2060 -0.6884
  154SAPE  H15Y17204   0.656   1.214   7.966 -0.7076  1.5093  0.4918
  154SAPE  C31617205   0.827   1.359   7.945 -0.2044 -0.3783  0.0108
  154SAPE  H16X17206   0.865   1.293   7.865 -1.2583  0.0512 -0.8672
  154SAPE  H16Y17207   0.921   1.396   7.992  0.3763 -1.8791  0.0323
  154SAPE  C31717208   0.753   1.474   7.875  0.3082 -0.2422  1.2221
  154SAPE  H17X17209   0.830   1.530   7.817 -0.8353  1.0126  0.8859
  154SAPE  H17Y17210   0.721   1.549   7.950 -0.6733  0.8922 -0.3017
  154SAPE  C31817211   0.633   1.430   7.786 -0.4152 -0.4075 -0.1137
  154SAPE  H18X17212   0.598   1.522   7.733 -1.3759 -1.1134 -0.7303
  154SAPE  H18Y17213   0.556   1.394   7.857  0.3354  0.9176  1.3947
  154SAPE  H18Z17214   0.670   1.354   7.714 -0.4792  0.4091 -1.0311
  155SAPE     N17215   1.288   6.855   9.751  0.3092  0.4983  0.4214
  155SAPE   HN117216   1.344   6.768   9.747 -2.3379 -1.2696  0.9304
  155SAPE   HN217217   1.347   6.922   9.805  1.0166  1.5015 -1.5404
  155SAPE   HN317218   1.200   6.839   9.804  0.1676 -1.3762 -0.3713
  155SAPE   C1217219   1.260   6.909   9.607 -1.2170  0.2287 -0.5546
  155SAPE  H12A17220   1.261   6.822   9.537 -0.1471  0.6271 -1.0496
  155SAPE  H12B17221   1.349   6.972   9.588 -1.6848  2.1062  3.0136
  155SAPE   C1117222   1.133   6.994   9.613 -0.0251  0.0373 -0.5271
  155SAPE  H11A17223   1.057   6.923   9.650  0.7780  0.6045  2.2758
  155SAPE  H11B17224   1.101   7.030   9.513 -1.3829 -0.8103 -0.4066
  155SAPE     P17225   1.148   7.256   9.662  0.0908 -0.2420  0.1383
  155SAPE   O1317226   1.009   7.307   9.647  0.0417  0.3899  0.3089
  155SAPE   O1417227   1.238   7.331   9.751 -0.2348  0.1285  0.3968
  155SAPE   O1217228   1.146   7.103   9.707 -0.2944  0.2617 -0.0162
  155SAPE   O1117229   1.217   7.255   9.519 -0.4164 -0.3661 -0.0973
  155SAPE    C117230   1.356   7.252   9.491 -0.2527  0.0313 -0.3311
  155SAPE    HA17231   1.412   7.329   9.548  0.8607 -0.3873 -0.8470
  155SAPE    HB17232   1.396   7.151   9.517 -0.8449 -1.0477 -3.4481
  155SAPE    C217233   1.382   7.265   9.341  0.0015  0.9611 -0.6284
  155SAPE    HS17234   1.290   7.315   9.304 -0.7273 -0.3535 -0.6470
  155SAPE   O2117235   1.401   7.131   9.285 -0.5891 -0.8717  0.0417
  155SAPE   C2117236   1.287   7.064   9.260 -0.4702  0.3756  0.2949
  155SAPE   O2217237   1.174   7.096   9.282 -0.5984  0.4135 -0.3815
  155SAPE   C2217238   1.326   6.930   9.189  0.1997 -0.4889  0.3608
  155SAPE   H2R17239   1.432   6.899   9.206  0.3110 -0.2402  0.1275
  155SAPE   H2S17240   1.256   6.858   9.236 -2.0758  0.2975 -1.7249
  155SAPE    C317241   1.506   7.343   9.312  0.2511  0.1595 -0.4780
  155SAPE    HX17242   1.591   7.285   9.354  0.2438  0.4237 -0.0969
  155SAPE    HY17243   1.492   7.440   9.365  1.3577  0.0189  0.1083
  155SAPE   O3117244   1.519   7.374   9.174 -0.3915 -0.1221  0.0400
  155SAPE   C3117245   1.639   7.355   9.120  0.8082  0.2067  0.2848
  155SAPE   O3217246   1.740   7.313   9.178  0.2134  0.0160  0.4464
  155SAPE   C3217247   1.632   7.382   8.971 -0.2033  0.0539  0.3257
  155SAPE   H2X17248   1.644   7.490   8.947 -1.3315 -0.0723 -0.8843
  155SAPE   H2Y17249   1.534   7.344   8.936  0.1325 -0.2261 -0.3187
  155SAPE   C2317250   1.295   6.952   9.041 -0.7171 -0.0850 -0.3568
  155SAPE   H3R17251   1.189   6.979   9.025 -0.4274  0.5488 -1.2878
  155SAPE   H3S17252   1.316   6.858   8.985  3.0530 -2.2876  4.3958
  155SAPE   C2417253   1.387   7.064   8.972  0.1511  1.3852 -0.6367
  155SAPE   H4R17254   1.395   7.021   8.870 -0.3572 -1.1589  0.3452
  155SAPE   H4S17255   1.491   7.054   9.010  0.0619 -1.1836 -0.9879
  155SAPE   C2517256   1.319   7.197   8.969  0.3020 -0.6569  0.2284
  155SAPE   H5R17257   1.311   7.244   9.067 -0.5589 -0.9634  0.3056
  155SAPE   C2617258   1.287   7.269   8.858 -1.0473  0.0700 -0.0859
  155SAPE   H6R17259   1.236   7.364   8.877  0.2271  0.3899  1.9111
  155SAPE   C2717260   1.298   7.222   8.711 -0.3577  0.1267 -0.1760
  155SAPE   H7R17261   1.375   7.143   8.693  0.3634  0.4455  1.3594
  155SAPE   H7S17262   1.325   7.311   8.652  2.9236  1.8538  3.6811
  155SAPE   C2817263   1.173   7.149   8.650  0.4715 -0.2614  0.6847
  155SAPE   H8R17264   1.180   7.040   8.647  1.1139 -0.2423  1.2853
  155SAPE   C2917265   1.070   7.213   8.598  0.0890 -0.1429 -0.1821
  155SAPE   H9R17266   0.990   7.156   8.549 -0.0750 -0.2498  0.2037
  155SAPE  C21017267   1.070   7.369   8.588  0.5661 -0.3715 -0.7786
  155SAPE  H10R17268   1.090   7.413   8.687 -1.1500  0.9230 -0.9778
  155SAPE  H10S17269   0.964   7.391   8.562  0.6341 -0.0409 -0.7746
  155SAPE  C21117270   1.152   7.422   8.472 -0.5024  0.4577 -0.4516
  155SAPE  H11R17271   1.148   7.354   8.386  1.9747  0.6929 -0.7973
  155SAPE  C21217272   1.227   7.533   8.482 -0.1940  0.5145 -0.2433
  155SAPE  H12R17273   1.289   7.558   8.394  2.7069  0.0613  1.6090
  155SAPE  C21317274   1.247   7.616   8.599 -0.4921  0.1240  0.3350
  155SAPE  H13R17275   1.160   7.611   8.668 -0.8330  0.7280 -0.0488
  155SAPE  H13S17276   1.241   7.722   8.567 -0.7907 -0.5152 -1.8385
  155SAPE  C21417277   1.372   7.583   8.678 -0.0273 -0.4418 -0.6329
  155SAPE  H14R17278   1.446   7.518   8.628  0.9809 -0.0987  0.3790
  155SAPE  C21517279   1.383   7.608   8.809 -0.8508  0.2397 -0.7382
  155SAPE  H15R17280   1.486   7.607   8.849 -0.3600  2.3557 -1.8931
  155SAPE  C21617281   1.289   7.682   8.908 -0.4929 -0.2161  0.5519
  155SAPE  H16R17282   1.281   7.619   8.999 -0.7260 -0.9486  0.0326
  155SAPE  H16S17283   1.195   7.706   8.855  0.8950 -0.3619 -2.0734
  155SAPE  C21717284   1.336   7.824   8.956  0.2795  0.5439  0.0442
  155SAPE  H17R17285   1.444   7.816   8.981  0.3498 -1.0028 -0.7334
  155SAPE  H17S17286   1.283   7.851   9.049  0.6108  0.5756  0.2263
  155SAPE  C21817287   1.314   7.944   8.852  0.3486 -0.2895 -0.3515
  155SAPE  H18R17288   1.207   7.961   8.825  0.4075  0.4016 -0.1564
  155SAPE  H18S17289   1.372   7.931   8.759  1.7078 -1.5970  0.6510
  155SAPE  C21917290   1.366   8.081   8.906  0.0309  0.0112  0.0271
  155SAPE  H19R17291   1.463   8.056   8.953  0.2473  2.4780  0.9612
  155SAPE  H19S17292   1.305   8.129   8.986 -0.7382 -1.6141  0.4423
  155SAPE  C22017293   1.388   8.189   8.802 -0.0815  0.0838  0.2611
  155SAPE  H20R17294   1.460   8.267   8.836 -0.0628  0.0327  0.3415
  155SAPE  H20S17295   1.287   8.223   8.774 -1.4438 -1.3541  3.2082
  155SAPE  H20T17296   1.440   8.144   8.714 -0.7581  0.6913 -0.4516
  155SAPE   C3317297   1.731   7.296   8.898  0.3272  0.0063 -0.1989
  155SAPE   H3X17298   1.707   7.187   8.894  2.9214 -0.5622 -1.7693
  155SAPE   H3Y17299   1.826   7.303   8.954  0.4238 -2.5563  0.0487
  155SAPE   C3417300   1.765   7.335   8.755  0.1266 -0.3734  0.3052
  155SAPE   H4X17301   1.868   7.310   8.723  1.0668  2.5040  0.8824
  155SAPE   H4Y17302   1.757   7.446   8.754  0.4344 -0.3508  0.3196
  155SAPE   C3517303   1.672   7.276   8.653  0.2724  0.0125 -0.3822
  155SAPE   H5X17304   1.563   7.289   8.671  0.4793  2.2277 -0.6214
  155SAPE   H5Y17305   1.694   7.171   8.623 -2.7338 -0.9675  0.5845
  155SAPE   C3617306   1.683   7.367   8.526 -0.0903 -0.4618 -0.1533
  155SAPE   H6X17307   1.785   7.360   8.482  0.9701  0.2423  2.1396
  155SAPE   H6Y17308   1.660   7.470   8.560 -0.9640 -0.6587 -0.1563
  155SAPE   C3717309   1.582   7.326   8.414 -0.0610  0.8876 -0.1566
  155SAPE   H7X17310   1.483   7.331   8.463 -0.2500 -0.7548 -0.3274
  155SAPE   H7Y17311   1.594   7.224   8.371  0.2951  1.2247 -0.8530
  155SAPE   C3817312   1.592   7.425   8.302  0.0406 -0.1641 -0.5959
  155SAPE   H8X17313   1.695   7.419   8.262  1.1335 -0.2698  2.1048
  155SAPE   H8Y17314   1.597   7.528   8.345  1.0791 -0.4868  0.0788
  155SAPE   C3917315   1.476   7.429   8.203 -0.1794  0.1066  0.5298
  155SAPE   H9X17316   1.384   7.426   8.264 -0.4639  0.8912  0.1498
  155SAPE   H9Y17317   1.477   7.332   8.149  2.0702 -0.8079  2.1410
  155SAPE  C31017318   1.471   7.545   8.106  0.0333 -0.1269 -0.7673
  155SAPE  H10X17319   1.551   7.564   8.032 -0.8202  2.9564 -1.0111
  155SAPE  H10Y17320   1.480   7.634   8.173 -2.5638 -0.1534 -0.3037
  155SAPE  C31117321   1.327   7.565   8.051  0.2154 -0.6955 -0.2452
  155SAPE  H11X17322   1.258   7.566   8.138  1.0292  0.0287  0.3993
  155SAPE  H11Y17323   1.303   7.466   8.007  0.8888 -0.7428 -0.5070
  155SAPE  C31217324   1.304   7.688   7.956 -0.7576 -0.2799  0.4756
  155SAPE  H12X17325   1.349   7.779   8.002  0.7515 -0.9532  0.3665
  155SAPE  H12Y17326   1.199   7.711   7.930  0.4716  1.6314 -3.1300
  155SAPE  C31317327   1.369   7.671   7.816  0.5149 -0.4591 -0.8275
  155SAPE  H13X17328   1.347   7.575   7.764  0.2071 -0.6447 -0.3640
  155SAPE  H13Y17329   1.479   7.669   7.836 -0.1167  0.1035  3.1548
  155SAPE  C31417330   1.346   7.788   7.719  0.0567  0.2421  0.2852
  155SAPE  H14X17331   1.362   7.886   7.769 -1.0281 -0.8995  2.9821
  155SAPE  H14Y17332   1.239   7.788   7.691 -0.3042 -0.6814  1.6117
  155SAPE  C31517333   1.430   7.785   7.584 -0.1741 -0.3744 -0.4746
  155SAPE  H15X17334   1.361   7.816   7.502 -2.3804  2.3814  2.3047
  155SAPE  H15Y17335   1.448   7.679   7.557  0.6831 -1.1230  2.8007
  155SAPE  C31617336   1.563   7.870   7.590 -0.4476  0.5163 -0.1732
  155SAPE  H16X17337   1.621   7.848   7.682 -0.0233  0.4112 -0.4689
  155SAPE  H16Y17338   1.537   7.978   7.588  0.1806  0.8986  4.5625
  155SAPE  C31717339   1.663   7.844   7.470  0.1795  0.3565  0.1471
  155SAPE  H17X17340   1.697   7.739   7.488  0.4102  0.1889 -1.1991
  155SAPE  H17Y17341   1.755   7.905   7.481  1.6163 -1.9261  1.2701
  155SAPE  C31817342   1.608   7.869   7.331  0.3932 -0.0284  0.0286
  155SAPE  H18X17343   1.688   7.886   7.256 -0.3933 -0.6572 -0.9714
  155SAPE  H18Y17344   1.567   7.972   7.337  0.1375 -0.1727  0.8385
  155SAPE  H18Z17345   1.532   7.795   7.297  0.2913 -0.5630  1.4040
  156SAPE     N17346   6.946   5.756  10.015  0.4623  0.2891 -0.1411
  156SAPE   HN117347   6.928   5.786   9.917 -0.8237  3.1413  0.9352
  156SAPE   HN217348   6.852   5.744  10.058 -0.3440 -1.3453 -2.2271
  156SAPE   HN317349   7.008   5.815  10.073  2.0046 -0.4608 -0.9845
  156SAPE   C1217350   7.013   5.620  10.013  0.4536 -0.2373  0.6016
  156SAPE  H12A17351   6.943   5.551   9.962 -0.6637  1.3749 -0.0701
  156SAPE  H12B17352   7.011   5.581  10.117 -1.0732 -1.7791  0.0150
  156SAPE   C1117353   7.152   5.630   9.948  0.9033 -0.5714 -0.5414
  156SAPE  H11A17354   7.192   5.527   9.941  0.7958 -0.6921  0.5330
  156SAPE  H11B17355   7.227   5.682  10.010  1.1997 -0.0798 -1.3049
  156SAPE     P17356   7.226   5.651   9.696 -0.6276  0.1088  0.3375
  156SAPE   O1317357   7.182   5.516   9.669 -0.0196  0.5227  0.2179
  156SAPE   O1417358   7.232   5.755   9.598 -0.5262  0.0154  0.0645
  156SAPE   O1217359   7.156   5.703   9.828  0.4489 -0.5973 -0.0143
  156SAPE   O1117360   7.379   5.643   9.752  0.5768  0.0461 -0.0330
  156SAPE    C117361   7.463   5.534   9.708  0.2238 -0.6718 -0.2335
  156SAPE    HA17362   7.546   5.525   9.782 -0.9872  0.4332  1.2851
  156SAPE    HB17363   7.411   5.435   9.705 -1.1530  0.0587 -0.8418
  156SAPE    C217364   7.542   5.565   9.577 -0.8022 -0.1511  0.9132
  156SAPE    HS17365   7.584   5.668   9.577 -0.5485 -0.2047 -1.8273
  156SAPE   O2117366   7.446   5.560   9.469 -0.5103 -0.2140 -0.8002
  156SAPE   C2117367   7.448   5.647   9.378 -1.3199  0.4851  0.4578
  156SAPE   O2217368   7.514   5.745   9.375 -0.8820  0.0373 -0.3536
  156SAPE   C2217369   7.360   5.611   9.258  0.5143  0.2847  0.8918
  156SAPE   H2R17370   7.417   5.541   9.193  0.2978  1.4604 -0.5798
  156SAPE   H2S17371   7.270   5.560   9.297  1.7476 -0.9148  2.2378
  156SAPE    C317372   7.653   5.462   9.548 -0.1136 -0.3309 -0.3368
  156SAPE    HX17373   7.602   5.367   9.520 -0.0303 -0.9111  1.4201
  156SAPE    HY17374   7.710   5.433   9.639 -1.1219 -2.9359 -0.4741
  156SAPE   O3117375   7.738   5.502   9.430  0.4542  0.5080 -0.5026
  156SAPE   C3117376   7.831   5.594   9.456 -0.2873  0.5061 -0.4256
  156SAPE   O3217377   7.860   5.631   9.566 -0.1991 -0.3684 -0.1589
  156SAPE   C3217378   7.901   5.646   9.327 -0.5746  0.4997  0.7135
  156SAPE   H2X17379   8.010   5.655   9.345 -0.3264 -0.4968 -0.2494
  156SAPE   H2Y17380   7.871   5.750   9.302  2.6347  1.2315 -0.2926
  156SAPE   C2317381   7.317   5.734   9.172  0.2371 -0.9664  0.1708
  156SAPE   H3R17382   7.404   5.784   9.124 -0.5164  0.4414  0.2431
  156SAPE   H3S17383   7.271   5.810   9.239  0.9990 -0.0160 -0.3645
  156SAPE   C2417384   7.229   5.699   9.051  0.0633 -0.3004 -0.4399
  156SAPE   H4R17385   7.139   5.650   9.094  0.4694 -1.4731 -0.9068
  156SAPE   H4S17386   7.278   5.618   8.993  2.1864  0.4601  0.2564
  156SAPE   C2517387   7.188   5.818   8.963 -0.3233  0.0560 -0.0547
  156SAPE   H5R17388   7.130   5.900   9.008 -0.3113 -0.0034  0.0676
  156SAPE   C2617389   7.207   5.829   8.829  0.1427 -0.1495  0.1082
  156SAPE   H6R17390   7.156   5.911   8.778  2.4849  0.8199 -0.7361
  156SAPE   C2717391   7.279   5.734   8.740  0.5572  0.2149 -0.0318
  156SAPE   H7R17392   7.207   5.662   8.694  1.4124 -0.2145 -0.7184
  156SAPE   H7S17393   7.357   5.671   8.787  0.0049  1.0594  2.0733
  156SAPE   C2817394   7.352   5.819   8.637 -0.7510 -0.0374  0.5778
  156SAPE   H8R17395   7.411   5.904   8.676  0.4764 -0.8786  0.5669
  156SAPE   C2917396   7.355   5.797   8.506  0.3862  0.3136 -0.0331
  156SAPE   H9R17397   7.399   5.874   8.441  2.6161 -0.6206  0.3164
  156SAPE  C21017398   7.279   5.686   8.435  0.4689 -0.4363 -0.1664
  156SAPE  H10R17399   7.195   5.645   8.495  0.1025 -2.4880 -2.0197
  156SAPE  H10S17400   7.347   5.600   8.419  1.8767  0.7909 -0.9298
  156SAPE  C21117401   7.214   5.727   8.300 -0.3522 -0.2575 -0.4064
  156SAPE  H11R17402   7.152   5.818   8.305  0.0272  0.2227 -3.4166
  156SAPE  C21217403   7.234   5.675   8.179 -0.0099  0.8128 -0.0855
  156SAPE  H12R17404   7.168   5.702   8.096 -0.5414 -2.1914 -0.7127
  156SAPE  C21317405   7.317   5.567   8.130  0.7094 -0.5926 -0.4506
  156SAPE  H13R17406   7.413   5.560   8.186  0.5449 -1.3318 -0.2573
  156SAPE  H13S17407   7.358   5.579   8.028 -1.5354  0.7615 -1.2344
  156SAPE  C21417408   7.246   5.432   8.140 -0.2768 -0.8347 -0.1247
  156SAPE  H14R17409   7.241   5.401   8.245  1.1019 -1.6291 -0.2839
  156SAPE  C21517410   7.183   5.373   8.035 -0.1222  0.1156  0.0673
  156SAPE  H15R17411   7.131   5.278   8.055 -0.9758  0.8331  1.2537
  156SAPE  C21617412   7.165   5.411   7.893 -0.2182  0.8170 -0.3183
  156SAPE  H16R17413   7.168   5.521   7.885  0.7818  1.0261  2.4564
  156SAPE  H16S17414   7.059   5.388   7.869 -0.1944 -0.9440  1.1491
  156SAPE  C21717415   7.269   5.341   7.797  1.2689  0.2119  0.1522
  156SAPE  H17R17416   7.246   5.233   7.778 -0.2110  0.3487  1.0891
  156SAPE  H17S17417   7.371   5.356   7.837  2.6266  2.1398 -3.7753
  156SAPE  C21817418   7.259   5.404   7.653 -0.3162 -0.8857  0.2638
  156SAPE  H18R17419   7.155   5.402   7.614 -1.0294  0.5346  2.0385
  156SAPE  H18S17420   7.321   5.342   7.584 -3.5633 -0.7044 -3.0172
  156SAPE  C21917421   7.299   5.558   7.647  1.1613 -0.4048 -0.5751
  156SAPE  H19R17422   7.402   5.563   7.689  0.5828  1.1956  0.6556
  156SAPE  H19S17423   7.249   5.607   7.732  0.2180 -2.8742  0.3499
  156SAPE  C22017424   7.274   5.629   7.514 -0.1406 -0.4263  0.2370
  156SAPE  H20R17425   7.357   5.701   7.499 -1.5963  1.2447  0.0172
  156SAPE  H20S17426   7.181   5.688   7.527  0.0361 -0.0745 -0.0886
  156SAPE  H20T17427   7.267   5.557   7.430  1.2449  1.2144 -1.3204
  156SAPE   C3317428   7.872   5.565   9.198 -0.4370 -0.0295 -0.5905
  156SAPE   H3X17429   7.868   5.456   9.220 -1.8516 -0.2856 -1.9788
  156SAPE   H3Y17430   7.964   5.581   9.138 -0.0675 -1.7046 -0.5108
  156SAPE   C3417431   7.756   5.627   9.120  0.3254 -0.3476 -0.8362
  156SAPE   H4X17432   7.785   5.725   9.075 -2.9471  1.2044  0.3410
  156SAPE   H4Y17433   7.671   5.650   9.187 -0.7549  0.1423 -2.3277
  156SAPE   C3517434   7.708   5.531   9.002  0.0840 -0.3380  0.1749
  156SAPE   H5X17435   7.792   5.516   8.930 -0.0059 -0.2231  0.0439
  156SAPE   H5Y17436   7.627   5.576   8.941 -0.1660 -0.3233  0.5166
  156SAPE   C3617437   7.649   5.399   9.051  0.2283 -0.1123 -0.4690
  156SAPE   H6X17438   7.593   5.410   9.146 -0.7754  0.9517 -1.1569
  156SAPE   H6Y17439   7.728   5.326   9.078 -0.0828 -0.3040 -0.0629
  156SAPE   C3717440   7.561   5.322   8.946  0.4719 -0.4214 -0.3531
  156SAPE   H7X17441   7.552   5.218   8.984  0.2258 -0.5403 -0.7398
  156SAPE   H7Y17442   7.618   5.314   8.851  0.1760 -1.5290 -0.4447
  156SAPE   C3817443   7.419   5.361   8.922 -0.3537 -0.4688 -0.3288
  156SAPE   H8X17444   7.414   5.472   8.916  0.9373 -0.2864  1.5473
  156SAPE   H8Y17445   7.347   5.336   9.003  2.0566 -1.2228  1.6586
  156SAPE   C3917446   7.366   5.292   8.799  0.8470  0.1433  0.0222
  156SAPE   H9X17447   7.351   5.186   8.827  0.6858 -0.5128 -2.4142
  156SAPE   H9Y17448   7.431   5.308   8.711 -1.5043  0.9263 -1.6393
  156SAPE  C31017449   7.230   5.347   8.764  0.9270 -0.4379  0.2754
  156SAPE  H10X17450   7.248   5.449   8.724  0.0330 -0.9005 -1.3913
  156SAPE  H10Y17451   7.166   5.352   8.855  4.2316  0.1023  2.6412
  156SAPE  C31117452   7.139   5.279   8.660  0.1992  0.3008 -0.0425
  156SAPE  H11X17453   7.048   5.340   8.646  0.6405  0.6760 -1.3532
  156SAPE  H11Y17454   7.108   5.176   8.684 -0.1656  0.4731  0.2246
  156SAPE  C31217455   7.190   5.292   8.519  0.1567 -0.1519 -0.0512
  156SAPE  H12X17456   7.301   5.280   8.523  0.0448 -1.3559 -0.5656
  156SAPE  H12Y17457   7.172   5.396   8.484 -0.1090  0.0322  0.6090
  156SAPE  C31317458   7.121   5.188   8.428 -0.0312 -0.3156 -1.0958
  156SAPE  H13X17459   7.144   5.089   8.472 -1.7297 -0.0646  0.4174
  156SAPE  H13Y17460   7.164   5.195   8.326 -0.2007 -1.2622 -1.2299
  156SAPE  C31417461   6.964   5.207   8.433  0.7244  0.2045  0.6943
  156SAPE  H14X17462   6.934   5.313   8.417  0.4572 -0.0615 -0.6733
  156SAPE  H14Y17463   6.915   5.186   8.531 -0.4438 -3.5845 -0.6014
  156SAPE  C31517464   6.887   5.132   8.331 -0.5476  0.0744 -0.8677
  156SAPE  H15X17465   6.786   5.177   8.345  0.0181  0.8614  0.8402
  156SAPE  H15Y17466   6.878   5.027   8.366  1.2665  0.5003  0.9765
  156SAPE  C31617467   6.942   5.134   8.187 -0.3350 -0.2984  0.1119
  156SAPE  H16X17468   7.013   5.049   8.178  0.7087  0.4054  1.4305
  156SAPE  H16Y17469   6.980   5.235   8.159  0.1470  0.0604  1.9802
  156SAPE  C31717470   6.822   5.114   8.086  0.6874 -0.6839  0.3523
  156SAPE  H17X17471   6.763   5.207   8.102  1.2891  0.0414 -1.5530
  156SAPE  H17Y17472   6.777   5.020   8.124 -0.0098 -0.0346  1.1734
  156SAPE  C31817473   6.876   5.116   7.946  0.4044  0.7047 -0.8118
  156SAPE  H18X17474   6.790   5.128   7.877  0.2055  1.8053 -0.3796
  156SAPE  H18Y17475   6.917   5.014   7.930 -0.4761  0.1346  0.4364
  156SAPE  H18Z17476   6.949   5.197   7.927  0.3510  0.7410 -0.8611
  157SAPE     N17477   6.322   5.579   9.763 -0.1395  0.5922  0.8368
  157SAPE   HN117478   6.400   5.537   9.818  1.1312  1.8661  0.0442
  157SAPE   HN217479   6.236   5.559   9.818 -0.6648  1.8562  0.5053
  157SAPE   HN317480   6.327   5.530   9.671  0.0860 -0.9085  1.6404
  157SAPE   C1217481   6.346   5.726   9.758 -0.7037 -0.3246 -0.7063
  157SAPE  H12A17482   6.353   5.768   9.861 -0.9171  1.1297 -1.2759
  157SAPE  H12B17483   6.249   5.762   9.718  0.5539  0.6345 -2.9747
  157SAPE   C1117484   6.463   5.768   9.668  0.0795 -0.7706 -0.6251
  157SAPE  H11A17485   6.469   5.716   9.569 -0.3635 -1.3519 -0.3449
  157SAPE  H11B17486   6.557   5.737   9.718 -0.5807  1.2919  1.9776
  157SAPE     P17487   6.530   6.007   9.749 -0.0334  0.1310 -0.0444
  157SAPE   O1317488   6.438   6.107   9.802 -0.0481 -0.0382 -0.0535
  157SAPE   O1417489   6.593   5.927   9.852 -0.3550 -0.0674 -1.2442
  157SAPE   O1217490   6.463   5.908   9.654 -0.4986  0.1039  0.3797
  157SAPE   O1117491   6.634   6.087   9.664 -0.1925 -0.2812 -0.4756
  157SAPE    C117492   6.699   6.015   9.552  0.5656  0.4240 -0.6255
  157SAPE    HA17493   6.797   6.063   9.530  0.6953  0.0146 -0.9523
  157SAPE    HB17494   6.711   5.907   9.573 -1.2476  0.3968  0.3763
  157SAPE    C217495   6.636   6.050   9.409  0.0872  0.1840 -0.2043
  157SAPE    HS17496   6.531   6.016   9.406 -0.2693  1.3153 -0.7349
  157SAPE   O2117497   6.717   6.012   9.296  0.0728 -0.3218  0.0679
  157SAPE   C2117498   6.740   5.884   9.281  0.3645  0.2428 -0.2430
  157SAPE   O2217499   6.689   5.797   9.344  0.7340 -0.0847 -0.1305
  157SAPE   C2217500   6.843   5.856   9.173 -0.0602  0.3103  0.3465
  157SAPE   H2R17501   6.898   5.949   9.148  1.2111 -0.3695  0.5917
  157SAPE   H2S17502   6.927   5.798   9.216  0.0086 -0.8328 -1.3027
  157SAPE    C317503   6.631   6.205   9.382  0.0811  0.3434 -0.0644
  157SAPE    HX17504   6.735   6.243   9.384  0.1869  0.0320  0.5485
  157SAPE    HY17505   6.582   6.246   9.473 -1.1979 -0.4963 -0.3530
  157SAPE   O3117506   6.549   6.242   9.265  0.7705  0.3255 -0.0601
  157SAPE   C3117507   6.616   6.296   9.163  0.2137  0.3868 -0.1614
  157SAPE   O3217508   6.736   6.313   9.157  0.6131  0.1259 -0.4097
  157SAPE   C3217509   6.520   6.323   9.051  0.5330 -0.8147  0.0693
  157SAPE   H2X17510   6.433   6.385   9.082  1.6092 -0.3908  2.3127
  157SAPE   H2Y17511   6.483   6.223   9.020 -0.1315 -0.0934 -1.5459
  157SAPE   C2317512   6.786   5.785   9.046 -0.3205  0.9434 -0.6265
  157SAPE   H3R17513   6.744   5.696   9.097  0.3112  0.7243 -0.4846
  157SAPE   H3S17514   6.872   5.753   8.982 -1.1318 -2.5546 -0.0399
  157SAPE   C2417515   6.681   5.867   8.969 -0.3299  0.7065 -1.3592
  157SAPE   H4R17516   6.598   5.877   9.041  1.4779  1.6432  0.6640
  157SAPE   H4S17517   6.650   5.800   8.885  0.3438 -0.0608 -1.0038
  157SAPE   C2517518   6.745   5.992   8.918 -0.1377  0.1328  0.1005
  157SAPE   H5R17519   6.757   6.066   8.999  0.3523  2.2870 -1.8727
  157SAPE   C2617520   6.767   6.034   8.792 -0.2877  0.3302 -0.5063
  157SAPE   H6R17521   6.795   6.140   8.780  0.2327  0.2922  0.3594
  157SAPE   C2717522   6.732   5.966   8.666  0.9991 -0.0892 -1.0436
  157SAPE   H7R17523   6.688   6.044   8.600 -0.1880  0.9192  0.9072
  157SAPE   H7S17524   6.652   5.890   8.672  1.1282 -0.0510  1.7480
  157SAPE   C2817525   6.858   5.906   8.606  0.7525  0.1233 -0.5557
  157SAPE   H8R17526   6.923   5.871   8.687  1.8572  0.6446 -1.2144
  157SAPE   C2917527   6.902   5.923   8.479  0.1591  0.0022 -0.2218
  157SAPE   H9R17528   7.005   5.894   8.453 -0.1418 -1.1163 -0.1981
  157SAPE  C21017529   6.828   5.995   8.360  0.6883 -0.5063 -0.1351
  157SAPE  H10R17530   6.733   6.038   8.398  0.8146 -0.0567 -0.3273
  157SAPE  H10S17531   6.793   5.915   8.291 -0.7689 -0.9113  1.0307
  157SAPE  C21117532   6.913   6.101   8.296  0.1455 -1.0883  0.2648
  157SAPE  H11R17533   6.950   6.186   8.356 -0.3155 -2.3451  2.3789
  157SAPE  C21217534   6.972   6.087   8.177 -0.2233  0.3416 -0.2263
  157SAPE  H12R17535   7.055   6.156   8.153  0.6377 -0.1749  1.1987
  157SAPE  C21317536   6.951   5.974   8.077 -0.0793  0.1907 -0.2663
  157SAPE  H13R17537   6.855   5.918   8.085 -0.5800  0.9840 -0.6212
  157SAPE  H13S17538   7.022   5.891   8.095 -0.4286 -0.6384 -2.6106
  157SAPE  C21417539   6.950   6.017   7.940 -0.2436 -0.0516 -0.4715
  157SAPE  H14R17540   6.853   6.063   7.915  0.2199  1.7501  0.9217
  157SAPE  C21517541   7.052   6.030   7.860  0.4136  0.3142 -0.5974
  157SAPE  H15R17542   7.038   6.061   7.756  2.2396 -1.0504 -1.2775
  157SAPE  C21617543   7.198   6.009   7.895 -0.7572  0.4240  0.2039
  157SAPE  H16R17544   7.206   5.994   8.005  0.0310 -2.1309 -0.1641
  157SAPE  H16S17545   7.265   6.090   7.858 -0.2924 -0.3659 -0.6948
  157SAPE  C21717546   7.233   5.878   7.832 -0.1493  1.3077  0.0174
  157SAPE  H17R17547   7.207   5.859   7.726 -1.6138 -3.6748  1.1250
  157SAPE  H17S17548   7.179   5.803   7.894 -0.3905  0.9107 -0.6752
  157SAPE  C21817549   7.385   5.835   7.858  0.5337  0.2720 -0.5170
  157SAPE  H18R17550   7.389   5.725   7.865 -1.5856  0.1718 -0.6827
  157SAPE  H18S17551   7.407   5.877   7.958 -1.4965 -0.8911  0.4517
  157SAPE  C21917552   7.473   5.891   7.741  0.0573 -0.6377 -0.7864
  157SAPE  H19R17553   7.491   6.000   7.756 -1.1539 -0.1198 -2.8958
  157SAPE  H19S17554   7.419   5.880   7.644 -0.4931 -0.3318 -0.5183
  157SAPE  C22017555   7.610   5.820   7.721 -0.5508 -0.1580 -0.3834
  157SAPE  H20R17556   7.606   5.744   7.641 -1.0940 -1.4999  0.8880
  157SAPE  H20S17557   7.643   5.777   7.818  1.1644  0.0077 -0.8781
  157SAPE  H20T17558   7.677   5.904   7.692 -1.4395  1.3743  1.8503
  157SAPE   C3317559   6.586   6.388   8.923 -0.0765 -0.3279  0.2488
  157SAPE   H3X17560   6.682   6.335   8.905  1.2509  0.8414  3.4731
  157SAPE   H3Y17561   6.611   6.492   8.953  1.4847 -0.3098 -1.0965
  157SAPE   C3417562   6.496   6.385   8.799 -0.3315  0.2645  0.0221
  157SAPE   H4X17563   6.394   6.419   8.826  0.1613  0.9648  1.0250
  157SAPE   H4Y17564   6.489   6.282   8.757 -2.7339  1.2043 -2.0168
  157SAPE   C3517565   6.552   6.477   8.689 -0.0529  0.8412 -0.3219
  157SAPE   H5X17566   6.556   6.583   8.722  0.5886  1.3176 -1.8799
  157SAPE   H5Y17567   6.479   6.482   8.606  0.1716  0.2844 -0.5544
  157SAPE   C3617568   6.679   6.436   8.623  0.3165 -0.1039 -0.2858
  157SAPE   H6X17569   6.664   6.328   8.597  0.3517 -0.5176  1.3532
  157SAPE   H6Y17570   6.761   6.426   8.697 -0.6660 -3.2553  0.4580
  157SAPE   C3717571   6.706   6.526   8.500 -0.0173 -0.5868  0.0186
  157SAPE   H7X17572   6.715   6.628   8.543  0.5859 -0.9474  0.7517
  157SAPE   H7Y17573   6.611   6.519   8.442 -0.1132 -3.3009  0.4494
  157SAPE   C3817574   6.829   6.491   8.422  0.2305 -0.1260 -0.8490
  157SAPE   H8X17575   6.811   6.386   8.389 -2.2638 -0.2599  0.7778
  157SAPE   H8Y17576   6.915   6.500   8.490  1.7196 -2.4259 -2.3495
  157SAPE   C3917577   6.862   6.585   8.312  0.1109 -0.4256 -0.3695
  157SAPE   H9X17578   6.883   6.688   8.347 -1.3871 -0.2926  0.1564
  157SAPE   H9Y17579   6.773   6.593   8.247  2.3294 -0.9285 -3.6163
  157SAPE  C31017580   6.983   6.535   8.235 -0.0283  0.4097  0.1295
  157SAPE  H10X17581   6.981   6.425   8.247  1.6218  0.2082 -1.3390
  157SAPE  H10Y17582   7.085   6.569   8.262 -0.8823  1.2681  2.3707
  157SAPE  C31117583   6.962   6.554   8.083  0.2464  0.1724  0.0232
  157SAPE  H11X17584   6.944   6.662   8.064  2.9443  0.4689 -1.1571
  157SAPE  H11Y17585   6.868   6.503   8.055  0.0987 -0.6372  1.8813
  157SAPE  C31217586   7.080   6.488   8.007 -0.3608  0.6678 -0.8482
  157SAPE  H12X17587   7.107   6.394   8.059 -0.6302  0.6384 -0.7618
  157SAPE  H12Y17588   7.169   6.553   8.016 -0.7918  0.7707  3.2234
  157SAPE  C31317589   7.075   6.449   7.854  0.2819  0.4574  0.4344
  157SAPE  H13X17590   6.983   6.388   7.844 -0.0828  0.2325  4.4239
  157SAPE  H13Y17591   7.157   6.380   7.826  0.5905  1.5545 -1.4877
  157SAPE  C31417592   7.084   6.573   7.767 -0.3675  0.1894  0.3044
  157SAPE  H14X17593   7.182   6.624   7.776 -0.3360  0.0810  0.5875
  157SAPE  H14Y17594   7.010   6.651   7.797 -0.6077  0.3043 -0.5725
  157SAPE  C31517595   7.067   6.527   7.625  0.2396  0.3074  0.8317
  157SAPE  H15X17596   6.961   6.505   7.603  0.4866  0.6862 -0.7644
  157SAPE  H15Y17597   7.111   6.425   7.623  1.5447  0.8674  0.2371
  157SAPE  C31617598   7.139   6.609   7.515  0.4011 -0.4120 -0.3996
  157SAPE  H16X17599   7.133   6.549   7.422  2.5734  1.4943 -1.8246
  157SAPE  H16Y17600   7.247   6.616   7.541  0.5131  0.4036 -1.0852
  157SAPE  C31717601   7.092   6.750   7.516  0.6522 -0.6429  0.7396
  157SAPE  H17X17602   7.128   6.798   7.609 -0.3135 -0.6465  1.1231
  157SAPE  H17Y17603   6.981   6.758   7.514  0.4840 -2.8078 -0.7848
  157SAPE  C31817604   7.142   6.820   7.394  0.5066 -0.1786 -0.5107
  157SAPE  H18X17605   7.106   6.925   7.391  1.8821  0.3236  0.2719
  157SAPE  H18Y17606   7.116   6.770   7.298 -0.0677  2.4846 -1.8130
  157SAPE  H18Z17607   7.252   6.835   7.395  0.4171  0.6472 -1.5714
  158SAPE     N17608   0.284   5.955   9.670 -0.2784  0.4024  0.1464
  158SAPE   HN117609   0.333   6.019   9.604 -0.0948 -0.9624 -1.0577
  158SAPE   HN217610   0.330   5.862   9.675  0.5207  0.7435 -0.7403
  158SAPE   HN317611   0.192   5.944   9.623 -0.8236  3.5715  0.3421
  158SAPE   C1217612   0.268   6.019   9.802 -0.4034 -0.6806 -0.2767
  158SAPE  H12A17613   0.243   6.125   9.779  1.2715  0.4515  2.8250
  158SAPE  H12B17614   0.361   6.017   9.862  1.0505 -0.2926 -2.4817
  158SAPE   C1117615   0.140   5.974   9.885 -0.8024  0.1317 -0.5153
  158SAPE  H11A17616   0.129   6.049   9.967  0.3965 -1.6517  1.3302
  158SAPE  H11B17617   0.164   5.881   9.941  0.6453  0.9907  0.3221
  158SAPE     P17618  -0.114   6.035   9.813  0.3222 -0.3618  0.0180
  158SAPE   O1317619  -0.193   5.975   9.705 -0.0692  0.0010  0.1963
  158SAPE   O1417620  -0.171   6.024   9.950 -0.0273 -0.1339 -0.1701
  158SAPE   O1217621   0.021   5.970   9.802  0.1781 -0.0636  0.1723
  158SAPE   O1117622  -0.090   6.183   9.775 -0.1154  0.7575 -0.1776
  158SAPE    C117623  -0.149   6.241   9.661  0.2182 -0.3219  0.0946
  158SAPE    HA17624  -0.133   6.173   9.574  2.4657 -0.2077  0.3951
  158SAPE    HB17625  -0.255   6.252   9.692  0.4513  0.7613  0.5308
  158SAPE    C217626  -0.071   6.379   9.632 -1.1172 -0.2078 -0.0221
  158SAPE    HS17627  -0.049   6.439   9.722  0.5405  1.5979 -1.5857
  158SAPE   O2117628  -0.169   6.451   9.548 -0.4232  0.6895 -0.1386
  158SAPE   C2117629  -0.137   6.584   9.533  0.3850  1.0203  0.3150
  158SAPE   O2217630  -0.053   6.645   9.597  0.6426 -0.4923 -0.3990
  158SAPE   C2217631  -0.217   6.635   9.418 -0.7064  0.1265 -0.4982
  158SAPE   H2R17632  -0.246   6.556   9.346  0.4235 -0.5870 -0.1870
  158SAPE   H2S17633  -0.312   6.682   9.451  1.0536  1.2390  3.3381
  158SAPE    C317634   0.067   6.361   9.550 -0.6435  0.2480 -0.1480
  158SAPE    HX17635   0.130   6.300   9.619 -0.8375 -0.4533 -0.5811
  158SAPE    HY17636   0.107   6.465   9.545 -0.4912  0.1071 -2.2778
  158SAPE   O3117637   0.041   6.310   9.417 -0.3568 -0.0178 -0.1333
  158SAPE   C3117638   0.070   6.185   9.403  0.1475  0.5365  0.6733
  158SAPE   O3217639   0.133   6.120   9.485  0.8226 -0.4206 -0.8097
  158SAPE   C3217640   0.021   6.139   9.269  0.2527 -0.0519 -0.1636
  158SAPE   H2X17641  -0.090   6.136   9.268  0.2543 -0.9040  1.1166
  158SAPE   H2Y17642   0.066   6.041   9.244  1.0248 -0.1197  1.4071
  158SAPE   C2317643  -0.153   6.759   9.351  0.0755  0.2348  0.6157
  158SAPE   H3R17644  -0.143   6.849   9.416  0.3812  0.8207 -0.2180
  158SAPE   H3S17645  -0.220   6.788   9.267 -1.5212  0.0186  1.8146
  158SAPE   C2417646  -0.015   6.742   9.296 -0.0031 -0.2706  0.2130
  158SAPE   H4R17647   0.045   6.707   9.383  1.6724 -1.6405 -1.4344
  158SAPE   H4S17648   0.031   6.836   9.259 -0.0216 -0.3568 -0.0250
  158SAPE   C2517649  -0.005   6.646   9.181  0.4036  0.3461 -0.5594
  158SAPE   H5R17650  -0.043   6.545   9.205 -1.3380  1.4014  1.3146
  158SAPE   C2617651   0.031   6.665   9.052  0.3661  0.2490 -0.7240
  158SAPE   H6R17652   0.026   6.585   8.976  1.1753  0.7946 -1.3702
  158SAPE   C2717653   0.077   6.795   8.995 -0.0599  0.7006 -1.3884
  158SAPE   H7R17654   0.185   6.809   9.017 -0.5055  2.0880  0.0316
  158SAPE   H7S17655   0.020   6.883   9.031  0.7615 -0.9632  4.4610
  158SAPE   C2817656   0.053   6.794   8.846 -0.7257  0.4149 -0.4273
  158SAPE   H8R17657   0.025   6.694   8.809  0.5345  0.1181 -0.5748
  158SAPE   C2917658   0.095   6.886   8.759 -0.4421  0.8851  0.1768
  158SAPE   H9R17659   0.070   6.870   8.653 -1.9170 -2.4085  0.9626
  158SAPE  C21017660   0.156   7.018   8.797 -0.4230 -0.2753 -0.1338
  158SAPE  H10R17661   0.259   7.024   8.755  0.2390 -1.6985  1.2552
  158SAPE  H10S17662   0.166   7.037   8.906 -2.4013 -3.4788  0.6820
  158SAPE  C21117663   0.079   7.136   8.742 -0.3123  0.1869  0.3447
  158SAPE  H11R17664  -0.030   7.125   8.731 -0.1046  0.4330 -2.3801
  158SAPE  C21217665   0.126   7.255   8.711  0.6411 -0.0013  0.2911
  158SAPE  H12R17666   0.054   7.319   8.660  0.0707 -0.4788  0.4983
  158SAPE  C21317667   0.272   7.289   8.724 -0.2488 -0.3673  0.6083
  158SAPE  H13R17668   0.328   7.234   8.645 -0.2942  0.4147  0.0268
  158SAPE  H13S17669   0.320   7.245   8.814 -2.9817 -1.7903  1.4584
  158SAPE  C21417670   0.306   7.440   8.717  0.3265 -0.1353  0.0920
  158SAPE  H14R17671   0.220   7.507   8.731  0.9195  0.6140  0.1482
  158SAPE  C21517672   0.424   7.494   8.673 -0.0564  0.5277 -0.1241
  158SAPE  H15R17673   0.432   7.604   8.683 -4.0420  0.6744  2.3914
  158SAPE  C21617674   0.547   7.416   8.632  0.0395  0.0724 -0.4707
  158SAPE  H16R17675   0.550   7.320   8.687 -0.9605 -0.3086 -1.0781
  158SAPE  H16S17676   0.636   7.477   8.660 -0.1522  1.6713 -3.1898
  158SAPE  C21717677   0.570   7.362   8.483  1.0167 -0.8883 -0.4689
  158SAPE  H17R17678   0.628   7.442   8.433 -1.0742 -0.3837 -2.1805
  158SAPE  H17S17679   0.469   7.355   8.437  0.9343 -1.4749 -0.2099
  158SAPE  C21817680   0.644   7.232   8.475  0.3861 -0.0265  0.2735
  158SAPE  H18R17681   0.574   7.150   8.503  0.9588 -0.5773  0.0967
  158SAPE  H18S17682   0.738   7.236   8.534  0.4473  1.0738  0.1250
  158SAPE  C21917683   0.683   7.200   8.330 -0.8478  0.1614  1.0028
  158SAPE  H19R17684   0.713   7.299   8.288 -1.3627  0.2304  0.7933
  158SAPE  H19S17685   0.587   7.170   8.284 -0.1205 -0.5765 -0.0595
  158SAPE  C22017686   0.791   7.097   8.313  0.6554 -0.1960 -0.4782
  158SAPE  H20R17687   0.751   7.010   8.369 -3.3996  1.5813 -0.4217
  158SAPE  H20S17688   0.890   7.123   8.357  0.7364 -1.9403  0.4043
  158SAPE  H20T17689   0.802   7.061   8.208  0.9690 -2.3864  0.2828
  158SAPE   C3317690   0.086   6.234   9.158  0.9141  0.1326 -0.7826
  158SAPE   H3X17691   0.197   6.241   9.166  1.0552 -0.4077 -2.1849
  158SAPE   H3Y17692   0.035   6.332   9.166  0.2318 -0.3111  0.4947
  158SAPE   C3417693   0.058   6.169   9.023 -0.1838 -0.1099 -0.4856
  158SAPE   H4X17694  -0.053   6.161   9.021 -0.5168  2.5814  2.2769
  158SAPE   H4Y17695   0.100   6.067   9.016 -2.0088 -0.7677 -2.4082
  158SAPE   C3517696   0.112   6.241   8.905  0.5682 -0.4528  0.8080
  158SAPE   H5X17697   0.219   6.261   8.928  0.6249  1.4193 -0.9311
  158SAPE   H5Y17698   0.066   6.343   8.904  0.8200 -0.2414  4.2542
  158SAPE   C3617699   0.106   6.165   8.776 -0.3493  0.2708  0.3237
  158SAPE   H6X17700   0.002   6.136   8.752 -0.6692  0.9933  0.8397
  158SAPE   H6Y17701   0.165   6.070   8.778 -1.0333 -0.1848 -0.5852
  158SAPE   C3717702   0.183   6.239   8.659  0.1047  0.0429 -0.3259
  158SAPE   H7X17703   0.292   6.235   8.679 -0.0200  1.5576  0.7187
  158SAPE   H7Y17704   0.168   6.349   8.665  1.4503  0.1972  0.1750
  158SAPE   C3817705   0.138   6.183   8.529 -0.3780  0.6118 -0.5925
  158SAPE   H8X17706   0.033   6.218   8.519 -0.9848 -0.6836  1.0774
  158SAPE   H8Y17707   0.143   6.072   8.530  1.5140  0.6948  1.0466
  158SAPE   C3917708   0.227   6.227   8.413  0.0467 -0.1593 -0.3888
  158SAPE   H9X17709   0.330   6.198   8.445  1.0350  3.1846 -0.3330
  158SAPE   H9Y17710   0.218   6.338   8.409 -1.0707 -0.2145  0.4851
  158SAPE  C31017711   0.213   6.162   8.275 -0.0487 -0.1981 -0.1305
  158SAPE  H10X17712   0.118   6.197   8.231 -0.5222 -1.0285  0.2190
  158SAPE  H10Y17713   0.197   6.055   8.302 -1.6439  0.6910  2.5439
  158SAPE  C31117714   0.334   6.175   8.187  0.7745  0.8047 -0.0806
  158SAPE  H11X17715   0.317   6.123   8.090 -0.1281 -1.7063  1.4061
  158SAPE  H11Y17716   0.426   6.125   8.224  0.4669  0.0071 -0.3839
  158SAPE  C31217717   0.376   6.316   8.142  0.2600  0.2101 -0.3219
  158SAPE  H12X17718   0.457   6.307   8.067  0.7876 -1.2366  0.4007
  158SAPE  H12Y17719   0.422   6.370   8.227  0.0754  0.1472 -0.1813
  158SAPE  C31317720   0.263   6.410   8.089  0.7173 -0.1153 -0.1275
  158SAPE  H13X17721   0.199   6.441   8.175  2.8713  2.1402  0.7266
  158SAPE  H13Y17722   0.193   6.367   8.014 -1.6375  0.9492  1.3955
  158SAPE  C31417723   0.315   6.537   8.022  0.2666  0.1197  0.3564
  158SAPE  H14X17724   0.394   6.575   8.091  2.3685 -0.4881 -1.6428
  158SAPE  H14Y17725   0.234   6.613   8.013  0.0404 -0.3353 -1.7161
  158SAPE  C31517726   0.392   6.517   7.882 -0.1272 -0.0794 -0.0513
  158SAPE  H15X17727   0.484   6.459   7.904  1.3750  1.8957 -0.9580
  158SAPE  H15Y17728   0.416   6.620   7.848  0.8322 -0.6534 -1.1404
  158SAPE  C31617729   0.303   6.449   7.781  0.2331  0.1463 -0.1547
  158SAPE  H16X17730   0.205   6.496   7.758  0.4718  0.2632 -0.9464
  158SAPE  H16Y17731   0.285   6.344   7.815  0.3872 -0.6250 -2.3739
  158SAPE  C31717732   0.378   6.443   7.641 -0.9739 -0.2137  0.1176
  158SAPE  H17X17733   0.463   6.372   7.644  1.5440  2.6936 -0.0068
  158SAPE  H17Y17734   0.432   6.540   7.633  1.1814 -1.4729 -0.9846
  158SAPE  C31817735   0.297   6.401   7.520 -0.2646 -0.0337 -1.1310
  158SAPE  H18X17736   0.189   6.397   7.545  0.2604 -1.0941  1.1416
  158SAPE  H18Y17737   0.322   6.296   7.495 -1.1797 -0.4342 -0.3843
  158SAPE  H18Z17738   0.303   6.463   7.428 -1.6236 -2.3232 -2.8269
  159SAPE     N17739   3.623   2.520   5.554 -0.3131  0.4855 -0.3141
  159SAPE   HN117740   3.647   2.509   5.655 -1.1498  0.1536 -0.1450
  159SAPE   HN217741   3.530   2.484   5.526 -0.6684  1.5901 -0.5725
  159SAPE   HN317742   3.694   2.453   5.516 -1.8866 -0.9986 -0.7045
  159SAPE   C1217743   3.647   2.651   5.501 -0.5866 -0.2485  0.1405
  159SAPE  H12A17744   3.602   2.644   5.400  0.2056  1.6562 -0.3671
  159SAPE  H12B17745   3.756   2.672   5.499 -0.0249 -2.6691  2.9283
  159SAPE   C1117746   3.580   2.756   5.592 -0.1495  0.0487  0.1276
  159SAPE  H11A17747   3.579   2.852   5.537  2.9356 -1.0356 -1.9725
  159SAPE  H11B17748   3.635   2.762   5.689 -0.3404 -2.3056  0.4289
  159SAPE     P17749   3.360   2.816   5.708  0.0897  0.2639 -0.1145
  159SAPE   O1317750   3.329   2.938   5.630 -0.9001 -0.0018  0.5098
  159SAPE   O1417751   3.242   2.734   5.750  0.2706 -0.1680 -0.5761
  159SAPE   O1217752   3.449   2.718   5.625 -0.0950  0.2927  1.0892
  159SAPE   O1117753   3.444   2.851   5.833 -0.7706 -0.0671  0.5354
  159SAPE    C117754   3.400   2.803   5.964 -0.3162 -0.1647  0.1962
  159SAPE    HA17755   3.289   2.801   5.974 -0.3092 -1.6074  0.0704
  159SAPE    HB17756   3.446   2.703   5.980 -0.9077 -0.8249 -1.9944
  159SAPE    C217757   3.454   2.896   6.076 -0.6603 -0.7044 -0.4410
  159SAPE    HS17758   3.564   2.879   6.078 -0.5560  0.0803  1.9595
  159SAPE   O2117759   3.396   2.876   6.204 -0.1788  0.4612 -0.0219
  159SAPE   C2117760   3.436   2.770   6.269 -0.1597 -0.8643 -0.3647
  159SAPE   O2217761   3.524   2.690   6.241 -0.3706 -0.3948  0.9432
  159SAPE   C2217762   3.349   2.763   6.395 -0.2846  0.1567  0.6626
  159SAPE   H2R17763   3.317   2.866   6.423  1.2496  0.7806  0.1831
  159SAPE   H2S17764   3.260   2.708   6.357  0.9124  0.2257 -2.3954
  159SAPE    C317765   3.432   3.042   6.029 -0.1147  0.3329  0.5153
  159SAPE    HX17766   3.324   3.060   6.014  0.0945 -0.2923 -1.9220
  159SAPE    HY17767   3.465   3.063   5.925 -1.0091 -0.7666  0.0006
  159SAPE   O3117768   3.486   3.137   6.129 -0.2176 -0.2228 -0.1528
  159SAPE   C3117769   3.613   3.180   6.103  0.1965 -0.0184  0.5237
  159SAPE   O3217770   3.670   3.186   5.999 -0.6726 -0.1055 -0.3554
  159SAPE   C3217771   3.683   3.195   6.240  0.1633  0.1643 -0.4870
  159SAPE   H2X17772   3.696   3.302   6.265 -1.1591 -0.1972  1.9554
  159SAPE   H2Y17773   3.783   3.158   6.211 -0.0245  0.5131 -1.6101
  159SAPE   C2317774   3.420   2.691   6.515 -0.3575  0.0408 -0.4163
  159SAPE   H3R17775   3.481   2.759   6.578 -1.4908  1.9148 -1.3095
  159SAPE   H3S17776   3.489   2.608   6.486  0.4982  0.5235  0.2044
  159SAPE   C2417777   3.323   2.620   6.601  0.0726 -0.3106  0.2975
  159SAPE   H4R17778   3.383   2.580   6.686 -0.5481 -1.3151  0.2770
  159SAPE   H4S17779   3.281   2.539   6.538  2.6666  0.3859 -2.4318
  159SAPE   C2517780   3.219   2.710   6.658 -0.3247 -0.6997 -0.0365
  159SAPE   H5R17781   3.154   2.763   6.587  0.1531  1.1364  0.8474
  159SAPE   C2617782   3.190   2.737   6.788 -0.7474  0.9202 -0.1213
  159SAPE   H6R17783   3.116   2.815   6.809 -0.0402  1.7273 -0.5797
  159SAPE   C2717784   3.273   2.679   6.897 -0.2033 -0.0764 -0.2789
  159SAPE   H7R17785   3.380   2.682   6.871  0.3189  0.1187  1.7930
  159SAPE   H7S17786   3.254   2.570   6.910 -0.9020  0.0536 -0.1859
  159SAPE   C2817787   3.239   2.745   7.032 -0.3674 -0.0948  0.1588
  159SAPE   H8R17788   3.184   2.840   7.027  0.2368  0.2799  0.5544
  159SAPE   C2917789   3.295   2.714   7.153  0.0031 -0.2270  0.4099
  159SAPE   H9R17790   3.276   2.781   7.239  1.1417  0.5429  0.0822
  159SAPE  C21017791   3.392   2.607   7.192 -0.0157  0.3155  0.2993
  159SAPE  H10R17792   3.428   2.556   7.100  1.3237  1.2645  0.2751
  159SAPE  H10S17793   3.333   2.525   7.239 -0.3005  0.8665  0.9078
  159SAPE  C21117794   3.497   2.659   7.289 -0.3684  0.3497  0.7046
  159SAPE  H11R17795   3.457   2.726   7.367 -2.7441 -0.0401 -0.1629
  159SAPE  C21217796   3.630   2.638   7.288  0.0011  0.0826 -0.3217
  159SAPE  H12R17797   3.688   2.680   7.371  0.6567 -1.3917 -0.0245
  159SAPE  C21317798   3.707   2.536   7.206  0.5626 -0.6813  0.5165
  159SAPE  H13R17799   3.645   2.489   7.126  1.1705  0.6835 -0.7905
  159SAPE  H13S17800   3.748   2.453   7.268 -0.4531 -0.2592  1.7749
  159SAPE  C21417801   3.829   2.594   7.136 -0.1328  0.3888  0.1449
  159SAPE  H14R17802   3.812   2.629   7.034  0.0863 -1.6540 -0.6137
  159SAPE  C21517803   3.958   2.587   7.188 -0.8464 -0.3980 -0.2408
  159SAPE  H15R17804   4.044   2.612   7.124 -1.0205 -2.8568 -1.4693
  159SAPE  C21617805   4.006   2.519   7.315 -0.4529 -0.3640  0.1524
  159SAPE  H16R17806   4.082   2.443   7.289  0.5339  0.8227 -0.5229
  159SAPE  H16S17807   3.930   2.472   7.380  0.6835 -0.8743  1.1490
  159SAPE  C21717808   4.064   2.617   7.422  0.0343 -0.5525 -0.4865
  159SAPE  H17R17809   4.095   2.563   7.514 -0.9941 -1.1336 -0.4712
  159SAPE  H17S17810   3.983   2.687   7.450  0.9757  0.4144 -0.1797
  159SAPE  C21817811   4.189   2.700   7.370 -0.1987  1.2640 -0.1762
  159SAPE  H18R17812   4.178   2.737   7.266 -1.8745  1.5560  0.0909
  159SAPE  H18S17813   4.273   2.629   7.355 -0.7805  0.8377 -1.5333
  159SAPE  C21917814   4.239   2.800   7.470 -0.1663 -0.6111  0.1240
  159SAPE  H19R17815   4.350   2.811   7.472 -0.2343  0.8681 -1.7879
  159SAPE  H19S17816   4.235   2.760   7.573 -2.6453 -1.8456 -0.4135
  159SAPE  C22017817   4.168   2.933   7.474 -0.5147  0.6430  0.1848
  159SAPE  H20R17818   4.238   3.006   7.518  0.1752  0.7138 -0.9885
  159SAPE  H20S17819   4.076   2.943   7.535  0.6919  2.0874  1.8040
  159SAPE  H20T17820   4.148   2.970   7.371 -0.4054 -0.2806 -0.1719
  159SAPE   C3317821   3.619   3.108   6.352 -0.0281  0.1557 -0.6146
  159SAPE   H3X17822   3.629   3.000   6.329  1.4195  0.3468 -0.9721
  159SAPE   H3Y17823   3.513   3.132   6.375 -0.0254  0.4034 -0.8610
  159SAPE   C3417824   3.679   3.122   6.496  0.2553  0.2247 -0.2054
  159SAPE   H4X17825   3.650   3.220   6.540 -1.1842 -0.9637  1.5636
  159SAPE   H4Y17826   3.790   3.129   6.493  0.3889 -1.3318  0.7946
  159SAPE   C3517827   3.637   3.015   6.591  0.3384 -0.0571 -0.4499
  159SAPE   H5X17828   3.649   2.912   6.550 -2.5011 -0.0600 -1.3741
  159SAPE   H5Y17829   3.527   3.012   6.606  0.5154  0.5364  0.9483
  159SAPE   C3617830   3.697   3.045   6.730  0.6309 -0.4163 -0.0507
  159SAPE   H6X17831   3.653   3.146   6.748 -1.0247 -1.0696 -0.3743
  159SAPE   H6Y17832   3.806   3.063   6.719  0.5279  0.6278  0.5133
  159SAPE   C3717833   3.664   2.949   6.841  0.5224 -0.5044 -0.4699
  159SAPE   H7X17834   3.705   2.849   6.813  0.1851 -1.2538  1.6392
  159SAPE   H7Y17835   3.553   2.953   6.853  0.6592  0.3162  0.5665
  159SAPE   C3817836   3.733   2.984   6.972  0.0327 -0.2539 -0.8921
  159SAPE   H8X17837   3.748   3.094   6.970  1.2736 -0.4202 -1.0620
  159SAPE   H8Y17838   3.832   2.935   6.981 -1.3191 -2.8684  0.3246
  159SAPE   C3917839   3.647   2.953   7.083  0.5545  0.4064 -0.5612
  159SAPE   H9X17840   3.654   2.843   7.097 -2.3881  0.1365 -0.9336
  159SAPE   H9Y17841   3.542   2.974   7.056  0.9439  0.9783 -1.6778
  159SAPE  C31017842   3.710   3.025   7.204 -0.6396 -0.0406 -0.5805
  159SAPE  H10X17843   3.714   3.134   7.183 -1.6272 -0.6671 -4.2500
  159SAPE  H10Y17844   3.814   2.986   7.216 -0.8224 -0.2686  0.2876
  159SAPE  C31117845   3.630   3.004   7.343  0.6659  0.7523 -0.1135
  159SAPE  H11X17846   3.654   2.901   7.377 -1.6159  0.7641  1.6684
  159SAPE  H11Y17847   3.521   3.003   7.323  0.4374  1.3817  1.0770
  159SAPE  C31217848   3.668   3.112   7.449 -0.4573  0.1812  0.4555
  159SAPE  H12X17849   3.643   3.213   7.410  1.9102  0.4966 -0.3101
  159SAPE  H12Y17850   3.777   3.113   7.466 -0.6625 -0.7613  1.8373
  159SAPE  C31317851   3.622   3.076   7.593 -0.1881  0.5720 -0.2932
  159SAPE  H13X17852   3.682   2.989   7.625  0.9732  1.6162  0.4350
  159SAPE  H13Y17853   3.512   3.061   7.605 -0.3927  1.5981 -0.8184
  159SAPE  C31417854   3.650   3.193   7.698 -0.0944 -0.3962  1.5273
  159SAPE  H14X17855   3.611   3.292   7.667  0.6508  0.0675  2.0531
  159SAPE  H14Y17856   3.761   3.198   7.704 -0.0272  0.5272 -0.3338
  159SAPE  C31517857   3.588   3.169   7.836  0.3292  0.2547  0.1500
  159SAPE  H15X17858   3.603   3.061   7.857  2.4166  0.2545 -1.2426
  159SAPE  H15Y17859   3.480   3.196   7.830  1.1820  3.5201 -2.0345
  159SAPE  C31617860   3.645   3.247   7.953  0.0277 -0.5352 -0.5896
  159SAPE  H16X17861   3.636   3.356   7.932 -0.7347 -0.7736 -1.5077
  159SAPE  H16Y17862   3.754   3.234   7.970  0.5559 -0.6898 -3.7318
  159SAPE  C31717863   3.571   3.227   8.085  0.8119  0.0179 -0.4959
  159SAPE  H17X17864   3.468   3.266   8.073  0.9764  0.4123 -0.6343
  159SAPE  H17Y17865   3.616   3.291   8.164 -1.8574  2.1749 -0.6225
  159SAPE  C31817866   3.565   3.080   8.135 -0.1319  0.1933 -0.3149
  159SAPE  H18X17867   3.502   3.024   8.063 -1.4372 -0.2647  1.1352
  159SAPE  H18Y17868   3.507   3.081   8.231 -1.3256 -0.6150 -1.0037
  159SAPE  H18Z17869   3.668   3.045   8.154  0.4710  1.7475 -0.7049
  160SAPE     N17870   2.973   3.996   5.666  0.0764  0.5106  0.2005
  160SAPE   HN117871   2.954   4.017   5.766  2.7515  3.1863  0.2121
  160SAPE   HN217872   2.989   3.894   5.654 -0.8365  0.4174 -0.2708
  160SAPE   HN317873   3.053   4.055   5.639  0.6446 -1.7049 -3.2083
  160SAPE   C1217874   2.851   4.036   5.589  0.3383  0.4113  0.2569
  160SAPE  H12A17875   2.858   3.986   5.490  3.1818  0.6266  0.2982
  160SAPE  H12B17876   2.851   4.147   5.576 -0.3890  0.5070  1.0694
  160SAPE   C1117877   2.720   3.996   5.671 -0.5685  0.0532  0.3753
  160SAPE  H11A17878   2.636   4.030   5.607  0.4362 -1.2153 -1.7024
  160SAPE  H11B17879   2.729   4.049   5.768 -0.5200 -0.6693  0.7665
  160SAPE     P17880   2.605   3.757   5.618  0.3625 -0.5369  0.2571
  160SAPE   O1317881   2.574   3.797   5.480  0.5739  0.3672  0.6425
  160SAPE   O1417882   2.646   3.616   5.634  0.8877  0.2218 -0.1598
  160SAPE   O1217883   2.711   3.848   5.684  0.6061  0.3931  0.5946
  160SAPE   O1117884   2.482   3.786   5.710 -0.4413  0.5730  1.1093
  160SAPE    C117885   2.415   3.698   5.803  0.4301  0.3695  0.2534
  160SAPE    HA17886   2.307   3.689   5.778 -0.0713  2.1566  1.6380
  160SAPE    HB17887   2.445   3.592   5.789  1.1644  0.7011 -0.7607
  160SAPE    C217888   2.456   3.737   5.955 -0.0704  0.0982 -0.2806
  160SAPE    HS17889   2.403   3.665   6.020 -0.9755  1.9565  1.0935
  160SAPE   O2117890   2.415   3.874   5.979  0.2727 -0.2158  0.1045
  160SAPE   C2117891   2.291   3.882   6.031  0.0394  0.3482 -0.4668
  160SAPE   O2217892   2.214   3.792   6.048 -0.3784  0.4658  0.3118
  160SAPE   C2217893   2.258   4.026   6.060  0.3835  0.2244  0.5180
  160SAPE   H2R17894   2.284   4.081   5.967  0.4294 -1.8193 -0.7019
  160SAPE   H2S17895   2.153   4.025   6.097 -0.4645 -2.0589 -1.7538
  160SAPE    C317896   2.609   3.722   5.986 -0.1069 -0.5116 -0.0382
  160SAPE    HX17897   2.668   3.805   5.943 -0.2414 -0.1744  0.4211
  160SAPE    HY17898   2.652   3.639   5.927 -2.3326 -2.6264  1.1909
  160SAPE   O3117899   2.627   3.702   6.129 -0.1573  0.5145 -0.8268
  160SAPE   C3117900   2.746   3.662   6.163 -0.8907  0.4419  0.3369
  160SAPE   O3217901   2.843   3.650   6.087 -0.5216 -0.2769  0.4365
  160SAPE   C3217902   2.761   3.659   6.313 -0.6887  0.2087 -0.5373
  160SAPE   H2X17903   2.700   3.572   6.345 -0.2662 -0.1482 -0.6853
  160SAPE   H2Y17904   2.718   3.751   6.357 -2.6040 -1.7523  1.8789
  160SAPE   C2317905   2.337   4.074   6.182 -0.3343  0.0767 -0.0902
  160SAPE   H3R17906   2.320   4.182   6.199  1.7570  0.3116  0.6548
  160SAPE   H3S17907   2.443   4.064   6.148  1.1004 -0.2050  4.1964
  160SAPE   C2417908   2.318   3.988   6.311 -0.1066 -0.0852 -0.1907
  160SAPE   H4R17909   2.238   3.911   6.311  1.0977 -1.4285  2.5688
  160SAPE   H4S17910   2.289   4.058   6.392 -2.1356 -0.6952 -0.3683
  160SAPE   C2517911   2.448   3.923   6.348 -0.5608  1.0213 -0.0390
  160SAPE   H5R17912   2.505   3.859   6.279  1.2252 -0.4316  2.7439
  160SAPE   C2617913   2.508   3.932   6.467 -1.0595 -0.1526  0.1393
  160SAPE   H6R17914   2.607   3.886   6.475 -0.7827 -0.0099 -1.9838
  160SAPE   C2717915   2.475   4.024   6.575  0.5238  0.8577 -0.4450
  160SAPE   H7R17916   2.438   4.121   6.536  0.2739 -0.0118 -2.4395
  160SAPE   H7S17917   2.560   4.045   6.643 -0.7652 -0.6144  1.6759
  160SAPE   C2817918   2.363   3.957   6.660 -0.0623  0.3530 -0.5737
  160SAPE   H8R17919   2.260   3.954   6.622 -0.1346 -0.0667 -0.3397
  160SAPE   C2917920   2.375   3.929   6.791  0.0454  0.7033  0.0014
  160SAPE   H9R17921   2.296   3.869   6.839  1.3118 -1.3782 -0.4687
  160SAPE  C21017922   2.493   3.961   6.881  0.1024  0.0539  0.3266
  160SAPE  H10R17923   2.440   3.975   6.978  1.2123 -1.2585  1.1461
  160SAPE  H10S17924   2.532   4.060   6.851 -1.2330  0.6826  0.6271
  160SAPE  C21117925   2.608   3.868   6.880  0.3961  0.5646  0.2642
  160SAPE  H11R17926   2.623   3.793   6.801  1.3995 -1.5754  2.4257
  160SAPE  C21217927   2.692   3.855   6.987 -0.1501 -0.5455 -0.6858
  160SAPE  H12R17928   2.776   3.784   6.981  1.0129  0.8194 -0.7430
  160SAPE  C21317929   2.683   3.938   7.108 -1.1604  0.5283  0.2824
  160SAPE  H13R17930   2.599   3.892   7.166  0.4815 -2.0306  0.7239
  160SAPE  H13S17931   2.655   4.039   7.072 -0.5211 -0.6929 -3.9182
  160SAPE  C21417932   2.812   3.929   7.182  0.6138 -0.3519 -0.0540
  160SAPE  H14R17933   2.906   3.923   7.126  1.0025  1.4860  0.3818
  160SAPE  C21517934   2.820   3.935   7.321 -0.1489  0.8442 -0.3882
  160SAPE  H15R17935   2.917   3.954   7.368  0.6931 -2.4148 -0.7244
  160SAPE  C21617936   2.701   3.933   7.407 -0.0924 -0.5177 -0.1471
  160SAPE  H16R17937   2.684   3.837   7.459 -2.1991  0.0007  0.1709
  160SAPE  H16S17938   2.606   3.949   7.353 -0.4433 -2.8614 -0.2388
  160SAPE  C21717939   2.707   4.062   7.501  0.6813  0.4020 -0.1154
  160SAPE  H17R17940   2.718   4.152   7.436 -0.1546 -0.1534 -1.0424
  160SAPE  H17S17941   2.796   4.049   7.566 -0.0921  0.2437  0.9135
  160SAPE  C21817942   2.578   4.074   7.574 -0.1143 -0.0095 -0.5088
  160SAPE  H18R17943   2.567   3.977   7.627 -1.2462 -0.3649 -1.3753
  160SAPE  H18S17944   2.496   4.091   7.500  0.7344  1.8668 -1.0492
  160SAPE  C21917945   2.563   4.184   7.680  0.3368 -0.4828 -0.3105
  160SAPE  H19R17946   2.541   4.275   7.620 -0.7857 -1.0034 -0.6952
  160SAPE  H19S17947   2.658   4.176   7.738  0.4191  0.0271 -0.3730
  160SAPE  C22017948   2.453   4.156   7.789  1.1584 -0.3470 -0.3941
  160SAPE  H20R17949   2.432   4.047   7.791 -0.8395 -0.0402 -2.4819
  160SAPE  H20S17950   2.364   4.210   7.750  1.4583  0.5085  0.0800
  160SAPE  H20T17951   2.473   4.207   7.886  1.9708  0.9284 -1.2018
  160SAPE   C3317952   2.910   3.624   6.361 -0.5515  0.4638 -0.8548
  160SAPE   H3X17953   2.985   3.684   6.305  0.6841 -1.0948 -0.9007
  160SAPE   H3Y17954   2.922   3.515   6.342  1.3446  0.9135 -2.3500
  160SAPE   C3417955   2.939   3.652   6.513  0.7070 -0.3848  0.6054
  160SAPE   H4X17956   2.915   3.754   6.549  0.7228  0.8941 -2.8025
  160SAPE   H4Y17957   3.047   3.625   6.520  0.8802  0.0674 -0.3560
  160SAPE   C3517958   2.850   3.565   6.601  0.1513 -0.3286 -0.7646
  160SAPE   H5X17959   2.865   3.457   6.579  0.6353 -0.0431 -1.8452
  160SAPE   H5Y17960   2.742   3.582   6.579 -0.3210 -2.0047  0.1263
  160SAPE   C3617961   2.874   3.574   6.759 -0.7477 -0.2095 -0.1930
  160SAPE   H6X17962   2.787   3.536   6.816 -0.7637 -0.9311 -0.7039
  160SAPE   H6Y17963   2.888   3.684   6.775 -3.6837  0.8431 -4.1627
  160SAPE   C3717964   2.999   3.497   6.806 -0.4031  0.2776 -0.5110
  160SAPE   H7X17965   3.084   3.521   6.739  1.4112  0.8086  1.9019
  160SAPE   H7Y17966   2.991   3.387   6.799 -1.6075  0.2165  1.3981
  160SAPE   C3817967   3.043   3.529   6.951  0.5192 -0.1369 -0.8782
  160SAPE   H8X17968   3.077   3.635   6.953 -3.1879  1.0800  1.0929
  160SAPE   H8Y17969   3.118   3.455   6.985  0.9178  1.8001  2.7616
  160SAPE   C3917970   2.922   3.508   7.054  0.1177  0.6686  0.1056
  160SAPE   H9X17971   2.852   3.431   7.016 -0.4252  1.7700 -1.1385
  160SAPE   H9Y17972   2.854   3.595   7.054  0.3687  0.8660  0.1151
  160SAPE  C31017973   2.970   3.497   7.206  1.0161 -0.5158 -0.1453
  160SAPE  H10X17974   3.002   3.599   7.238 -0.1277 -0.1853 -0.0189
  160SAPE  H10Y17975   3.052   3.423   7.203  0.5915 -1.0399  0.8172
  160SAPE  C31117976   2.854   3.458   7.302  0.0249  0.1175  0.3096
  160SAPE  H11X17977   2.822   3.356   7.272 -0.5824  0.4376 -0.1480
  160SAPE  H11Y17978   2.765   3.523   7.289 -1.3555 -1.9059 -0.6040
  160SAPE  C31217979   2.899   3.455   7.455 -0.5760  0.9923  0.0149
  160SAPE  H12X17980   3.009   3.460   7.469 -0.6844 -0.3311  1.4199
  160SAPE  H12Y17981   2.866   3.357   7.495  0.0852 -0.1578 -2.1524
  160SAPE  C31317982   2.833   3.560   7.542 -0.2714  0.3671  0.2290
  160SAPE  H13X17983   2.724   3.543   7.557  0.1228 -1.7259  0.9165
  160SAPE  H13Y17984   2.852   3.660   7.499 -0.5452  0.1930 -0.2973
  160SAPE  C31417985   2.898   3.565   7.683 -0.8800 -0.5578  0.2921
  160SAPE  H14X17986   3.009   3.561   7.685 -0.8264  0.7846  1.3548
  160SAPE  H14Y17987   2.861   3.480   7.744  0.9929 -0.9979  0.8215
  160SAPE  C31517988   2.861   3.697   7.749  0.7108 -0.3799 -0.0432
  160SAPE  H15X17989   2.750   3.704   7.736  0.8767 -0.2212 -1.5350
  160SAPE  H15Y17990   2.906   3.786   7.701  0.6063 -1.1599 -1.6392
  160SAPE  C31617991   2.901   3.677   7.896  0.5684  0.0507 -0.3000
  160SAPE  H16X17992   3.008   3.647   7.896  1.1897  2.1901 -1.9584
  160SAPE  H16Y17993   2.848   3.594   7.947 -1.1689  0.7008 -0.9837
  160SAPE  C31717994   2.862   3.799   7.980  0.0967 -0.1114  0.0438
  160SAPE  H17X17995   2.753   3.816   7.977 -0.0796 -1.2472 -0.1288
  160SAPE  H17Y17996   2.911   3.892   7.944  0.1001  0.0310  0.4121
  160SAPE  C31817997   2.898   3.778   8.129  0.7866  0.4008 -0.5870
  160SAPE  H18X17998   2.837   3.696   8.171  1.2828  0.9273  1.2134
  160SAPE  H18Y17999   2.877   3.867   8.192 -0.8439  0.3643 -1.0564
  160SAPE  H18Z18000   3.004   3.746   8.137  0.6855  0.0559 -0.6202
  161SAPE     N18001   3.335   2.177   5.606 -0.6171 -0.2743  0.5630
  161SAPE   HN118002   3.277   2.203   5.523 -0.5730 -1.0104  0.2967
  161SAPE   HN218003   3.432   2.167   5.570 -0.6345  0.6429  0.2437
  161SAPE   HN318004   3.300   2.083   5.632 -0.6629 -0.5018 -0.2984
  161SAPE   C1218005   3.345   2.263   5.723  0.3251  0.5769 -0.1829
  161SAPE  H12A18006   3.244   2.272   5.768  0.9105  0.3754  1.1931
  161SAPE  H12B18007   3.366   2.365   5.685  1.1194 -0.3841 -2.4672
  161SAPE   C1118008   3.448   2.211   5.827  0.3249 -0.2825  0.0705
  161SAPE  H11A18009   3.446   2.275   5.917  0.5346  0.2535 -0.3092
  161SAPE  H11B18010   3.549   2.229   5.786  0.0722  1.8916  0.3751
  161SAPE     P18011   3.524   1.955   5.835 -0.4984 -0.1359 -0.3876
  161SAPE   O1318012   3.502   1.845   5.933  0.1027 -0.3350 -0.5610
  161SAPE   O1418013   3.497   1.916   5.696 -0.3785 -0.1741 -0.1134
  161SAPE   O1218014   3.426   2.075   5.873 -0.1164 -0.6049  0.7583
  161SAPE   O1118015   3.666   2.027   5.844  0.3247 -0.2612 -0.3848
  161SAPE    C118016   3.748   2.003   5.956 -0.2569  0.1487  0.0736
  161SAPE    HA18017   3.724   1.907   6.008  1.9732 -0.3906  0.1353
  161SAPE    HB18018   3.854   1.989   5.927 -0.5304  0.7883 -1.2622
  161SAPE    C218019   3.740   2.116   6.066 -0.1811 -0.0625 -0.3743
  161SAPE    HS18020   3.800   2.099   6.158  0.7806  2.7874 -0.4207
  161SAPE   O2118021   3.606   2.135   6.114  0.4451  0.0481  0.2861
  161SAPE   C2118022   3.566   2.051   6.215 -1.2140 -0.1920 -0.0692
  161SAPE   O2218023   3.640   1.968   6.267 -0.1065 -0.2788 -0.2839
  161SAPE   C2218024   3.414   2.062   6.220  0.0423  0.0260 -0.0742
  161SAPE   H2R18025   3.385   2.162   6.183  1.1698  0.4908  0.2819
  161SAPE   H2S18026   3.363   1.996   6.148 -1.0017  0.6632  0.0795
  161SAPE    C318027   3.799   2.242   6.006 -0.5517  0.4995 -0.1583
  161SAPE    HX18028   3.724   2.269   5.929 -1.4341 -2.1586 -0.3056
  161SAPE    HY18029   3.894   2.221   5.953  0.0467  1.4432  0.5216
  161SAPE   O3118030   3.805   2.357   6.091 -0.2144 -0.3007 -0.2344
  161SAPE   C3118031   3.908   2.356   6.171  0.3575 -0.2427  0.5290
  161SAPE   O3218032   3.992   2.268   6.184  0.2196  0.1081 -0.6205
  161SAPE   C3218033   3.917   2.482   6.258  0.5203 -0.0583  0.4255
  161SAPE   H2X18034   3.918   2.570   6.191 -0.0353 -1.2135 -1.1389
  161SAPE   H2Y18035   4.012   2.486   6.317  1.4675 -2.3066 -0.8785
  161SAPE   C2318036   3.361   2.048   6.364 -0.0824 -0.1275  0.5373
  161SAPE   H3R18037   3.451   2.057   6.429  1.1470 -2.3261 -0.8161
  161SAPE   H3S18038   3.316   1.947   6.377  1.2796 -0.5366  2.2521
  161SAPE   C2418039   3.250   2.164   6.391 -0.2332  0.1787  0.8186
  161SAPE   H4R18040   3.178   2.122   6.317  1.4502  0.8656 -1.2859
  161SAPE   H4S18041   3.278   2.260   6.344 -1.6389  0.3900  0.3885
  161SAPE   C2518042   3.191   2.167   6.530 -0.3181  0.2901  0.5945
  161SAPE   H5R18043   3.268   2.182   6.607  2.4628  0.8726 -2.1774
  161SAPE   C2618044   3.060   2.140   6.558  0.6615  0.0592  0.4519
  161SAPE   H6R18045   3.037   2.166   6.662 -3.1593 -0.9001 -0.0777
  161SAPE   C2718046   2.952   2.114   6.460 -0.4973  0.3117  0.3818
  161SAPE   H7R18047   2.874   2.056   6.513 -1.2536  1.7449  0.8550
  161SAPE   H7S18048   2.995   2.050   6.380  1.1671  0.3221  1.2368
  161SAPE   C2818049   2.894   2.242   6.407 -0.4854  0.6175 -0.8608
  161SAPE   H8R18050   2.960   2.287   6.331 -1.4046  2.6139 -0.5146
  161SAPE   C2918051   2.778   2.302   6.432  0.8860 -0.2473  0.1632
  161SAPE   H9R18052   2.747   2.390   6.372 -0.9441  0.7172  2.4521
  161SAPE  C21018053   2.676   2.254   6.532  1.0759 -0.2243  1.0465
  161SAPE  H10R18054   2.715   2.201   6.621 -1.5844 -3.6593  0.2567
  161SAPE  H10S18055   2.598   2.186   6.492  1.0427  0.4558 -0.0542
  161SAPE  C21118056   2.592   2.374   6.580  0.0252 -0.3624  0.5503
  161SAPE  H11R18057   2.527   2.418   6.503  0.8344  0.0838  0.1160
  161SAPE  C21218058   2.586   2.417   6.708 -0.1460 -0.5634  0.3698
  161SAPE  H12R18059   2.526   2.505   6.735  0.7084 -1.0632  4.1396
  161SAPE  C21318060   2.664   2.355   6.824 -0.0884  0.4733 -0.1402
  161SAPE  H13R18061   2.645   2.246   6.839 -0.2944  0.5346  0.0527
  161SAPE  H13S18062   2.630   2.411   6.914  0.4933 -1.1629  1.1324
  161SAPE  C21418063   2.816   2.370   6.816  0.3399 -0.1317  0.2895
  161SAPE  H14R18064   2.859   2.431   6.735  2.3480  0.7401  1.9461
  161SAPE  C21518065   2.897   2.324   6.914 -0.1101 -0.5201 -0.2682
  161SAPE  H15R18066   3.005   2.337   6.900 -0.6981  2.0576 -2.6236
  161SAPE  C21618067   2.849   2.263   7.048 -0.1406 -0.0996 -0.1878
  161SAPE  H16R18068   2.928   2.190   7.077 -1.5119 -1.2052  0.8780
  161SAPE  H16S18069   2.764   2.192   7.036 -1.0099  1.0370 -0.7663
  161SAPE  C21718070   2.832   2.368   7.159  0.3727 -0.4583 -0.3933
  161SAPE  H17R18071   2.805   2.318   7.255  0.1492  0.5111  0.0528
  161SAPE  H17S18072   2.749   2.432   7.122  0.6483 -0.4107 -0.9273
  161SAPE  C21818073   2.966   2.451   7.190  0.6683  1.0496  0.1634
  161SAPE  H18R18074   3.001   2.502   7.097 -1.2269  0.4673 -0.8924
  161SAPE  H18S18075   3.039   2.368   7.202  0.2071  0.1910 -2.4833
  161SAPE  C21918076   2.960   2.533   7.311 -0.1239 -0.2955 -0.2628
  161SAPE  H19R18077   2.856   2.554   7.343 -0.9205 -1.0928 -2.2660
  161SAPE  H19S18078   2.996   2.636   7.291  0.9618 -0.6136  0.0153
  161SAPE  C22018079   3.029   2.476   7.434 -0.0514 -0.3660 -0.2684
  161SAPE  H20R18080   3.140   2.480   7.428  0.1025 -1.3079  1.7505
  161SAPE  H20S18081   2.988   2.374   7.450  2.3522 -1.2648  0.4696
  161SAPE  H20T18082   2.991   2.536   7.520  1.5620  1.5354 -0.8438
  161SAPE   C3318083   3.802   2.497   6.363  0.7018 -0.9189  0.5602
  161SAPE   H3X18084   3.707   2.479   6.309 -1.6935  4.3003  2.6091
  161SAPE   H3Y18085   3.788   2.599   6.405  0.4178 -0.0199 -1.6518
  161SAPE   C3418086   3.803   2.388   6.470 -0.1926 -0.5440 -0.1076
  161SAPE   H4X18087   3.900   2.390   6.524  0.5429 -0.1982 -1.4174
  161SAPE   H4Y18088   3.807   2.286   6.426 -0.7074 -0.2692 -0.7908
  161SAPE   C3518089   3.689   2.391   6.572  0.3836 -0.0739  0.9143
  161SAPE   H5X18090   3.592   2.384   6.518  0.3386  0.6820  0.8875
  161SAPE   H5Y18091   3.702   2.487   6.626  0.3887  0.2044  0.4170
  161SAPE   C3618092   3.701   2.277   6.676  0.2392 -0.3269 -0.0925
  161SAPE   H6X18093   3.757   2.313   6.765  0.3315 -1.4469  0.3233
  161SAPE   H6Y18094   3.760   2.198   6.625 -0.5928 -1.8459  1.2090
  161SAPE   C3718095   3.561   2.215   6.713 -0.5735 -0.7996  0.3591
  161SAPE   H7X18096   3.563   2.107   6.738  0.5336 -1.3301 -1.9183
  161SAPE   H7Y18097   3.503   2.213   6.619 -1.1921 -2.2386  0.7551
  161SAPE   C3818098   3.480   2.289   6.816  0.1591 -0.5923 -0.4037
  161SAPE   H8X18099   3.376   2.249   6.824  1.0477 -2.8036  0.5631
  161SAPE   H8Y18100   3.472   2.397   6.792  1.3543 -0.8410 -1.9950
  161SAPE   C3918101   3.529   2.290   6.968  0.1009  0.2227  0.6966
  161SAPE   H9X18102   3.455   2.344   7.031 -2.4222 -1.8049 -0.4322
  161SAPE   H9Y18103   3.628   2.340   6.969 -0.6636  1.7883  0.7373
  161SAPE  C31018104   3.554   2.150   7.030 -0.5053 -0.1240  0.1626
  161SAPE  H10X18105   3.602   2.164   7.129 -4.2714  0.4483  1.9837
  161SAPE  H10Y18106   3.634   2.095   6.976 -0.8530 -1.8825  1.4264
  161SAPE  C31118107   3.436   2.059   7.038  0.1770 -0.3563 -1.2664
  161SAPE  H11X18108   3.486   1.959   7.042 -1.0474 -0.9894 -1.3974
  161SAPE  H11Y18109   3.371   2.057   6.948  0.4430  2.5761 -1.5376
  161SAPE  C31218110   3.336   2.082   7.161 -0.0740  0.0660 -0.6959
  161SAPE  H12X18111   3.293   2.185   7.155 -0.0784  0.3730  3.4354
  161SAPE  H12Y18112   3.407   2.075   7.246 -2.3917  1.1301  1.4070
  161SAPE  C31318113   3.221   1.978   7.173  0.7401  0.0969  0.2879
  161SAPE  H13X18114   3.272   1.881   7.194  1.7827  0.8130  1.0941
  161SAPE  H13Y18115   3.172   1.973   7.073  2.0985  0.5612 -0.4146
  161SAPE  C31418116   3.102   2.020   7.264  0.5970 -0.1628  0.3996
  161SAPE  H14X18117   3.024   1.943   7.244  0.5028 -0.2190  0.9961
  161SAPE  H14Y18118   3.055   2.115   7.231  0.4975 -0.2790  0.2050
  161SAPE  C31518119   3.148   2.016   7.412 -0.0643  0.0642 -0.4528
  161SAPE  H15X18120   3.218   2.099   7.435  0.3758 -0.4379  0.0304
  161SAPE  H15Y18121   3.219   1.931   7.422 -2.4135 -1.8759  0.2358
  161SAPE  C31618122   3.034   2.010   7.523  0.0835 -0.4871  0.1036
  161SAPE  H16X18123   3.074   1.965   7.617  0.0161  0.7438  0.7349
  161SAPE  H16Y18124   2.963   1.930   7.492 -0.8081  1.0682 -1.9797
  161SAPE  C31718125   2.968   2.142   7.559 -0.0138 -0.6309  0.1372
  161SAPE  H17X18126   2.896   2.165   7.477 -1.8114 -0.1543  1.8218
  161SAPE  H17Y18127   3.045   2.221   7.565  2.3891 -3.0936  2.6961
  161SAPE  C31818128   2.880   2.146   7.689 -0.5379 -0.8886 -0.2464
  161SAPE  H18X18129   2.940   2.099   7.770  0.9240 -0.5378 -1.1171
  161SAPE  H18Y18130   2.783   2.092   7.682 -0.7387 -0.5992  0.2451
  161SAPE  H18Z18131   2.850   2.250   7.717 -0.4978 -0.9356 -0.0253
  162SAPE     N18132   3.053   5.540   5.705  0.5447 -0.0047 -0.6636
  162SAPE   HN118133   3.024   5.639   5.718  0.0574 -0.2476  0.1266
  162SAPE   HN218134   2.991   5.468   5.747  0.1494  0.1099 -1.0391
  162SAPE   HN318135   3.147   5.529   5.747 -0.3796 -2.8071  0.7726
  162SAPE   C1218136   3.066   5.519   5.558 -0.0785 -0.1419 -0.6257
  162SAPE  H12A18137   3.166   5.563   5.539 -0.3354 -0.2113 -2.2065
  162SAPE  H12B18138   2.995   5.578   5.496 -1.0929 -2.4242 -1.7136
  162SAPE   C1118139   3.065   5.370   5.516  0.2168  0.1245  0.3242
  162SAPE  H11A18140   3.094   5.370   5.408 -2.1083 -0.4570 -0.3293
  162SAPE  H11B18141   2.966   5.321   5.517 -0.5520  1.5662 -1.2511
  162SAPE     P18142   3.188   5.157   5.628 -0.0908 -0.4150 -0.1138
  162SAPE   O1318143   3.083   5.069   5.580  0.0670  0.0684 -0.1282
  162SAPE   O1418144   3.324   5.119   5.596  0.0920  0.4319  0.3052
  162SAPE   O1218145   3.168   5.301   5.585  0.7795 -0.3635  0.3550
  162SAPE   O1118146   3.178   5.172   5.784  0.1032  0.1968 -0.5618
  162SAPE    C118147   3.290   5.224   5.862  0.7220 -0.4288 -0.1764
  162SAPE    HA18148   3.359   5.286   5.800  0.0210  0.7812  0.2371
  162SAPE    HB18149   3.253   5.285   5.948  1.2574 -0.8706  0.3679
  162SAPE    C218150   3.368   5.105   5.932  0.2325 -0.0342  0.5748
  162SAPE    HS18151   3.382   5.021   5.862 -0.1596 -0.3963  0.9262
  162SAPE   O2118152   3.292   5.053   6.041  0.7435 -0.0403  0.0891
  162SAPE   C2118153   3.204   4.960   6.020  0.2470  0.3832 -0.0666
  162SAPE   O2218154   3.182   4.907   5.909  0.4225 -0.2919 -0.0138
  162SAPE   C2218155   3.126   4.911   6.149 -0.5003 -0.2942  0.1673
  162SAPE   H2R18156   3.087   4.809   6.130 -0.1454 -0.2254 -1.0128
  162SAPE   H2S18157   3.203   4.899   6.229 -0.4701  0.0937  0.2015
  162SAPE    C318158   3.501   5.151   5.988  0.0800 -0.5987  0.1963
  162SAPE    HX18159   3.552   5.201   5.903 -0.9594  3.0121  1.6465
  162SAPE    HY18160   3.561   5.060   6.013  1.9424  0.8724  1.1673
  162SAPE   O3118161   3.475   5.238   6.090  0.0369 -0.5487  0.6064
  162SAPE   C3118162   3.576   5.276   6.169  0.3625  0.2777  0.3096
  162SAPE   O3218163   3.690   5.235   6.171  0.2110  0.0779  0.3516
  162SAPE   C3218164   3.523   5.390   6.259 -0.0142 -0.4470  0.1292
  162SAPE   H2X18165   3.421   5.426   6.233 -0.5328 -2.7040 -1.0845
  162SAPE   H2Y18166   3.580   5.483   6.237  1.7385 -1.6421 -0.5028
  162SAPE   C2318167   3.006   5.000   6.177 -0.3006 -0.6100  0.0620
  162SAPE   H3R18168   2.967   4.968   6.276 -0.4348  1.7024  0.7865
  162SAPE   H3S18169   2.930   4.968   6.103 -1.6850  1.4876  0.5547
  162SAPE   C2418170   3.026   5.155   6.174 -0.3921  0.1650  0.1671
  162SAPE   H4R18171   3.073   5.186   6.078  0.1563 -0.9766  0.0563
  162SAPE   H4S18172   3.109   5.179   6.243 -0.1975  0.9912 -0.3529
  162SAPE   C2518173   2.908   5.240   6.202 -0.1695 -0.3544 -0.2711
  162SAPE   H5R18174   2.836   5.230   6.120 -0.3295  1.0745 -0.3302
  162SAPE   C2618175   2.880   5.321   6.307 -0.1535  0.1515 -0.2378
  162SAPE   H6R18176   2.794   5.388   6.294  0.7237  1.1167 -1.2555
  162SAPE   C2718177   2.965   5.354   6.433  0.1941  0.4374 -0.3192
  162SAPE   H7R18178   3.040   5.277   6.461 -1.3439 -0.1724  2.3348
  162SAPE   H7S18179   2.888   5.341   6.512  1.8652 -0.8447  1.1626
  162SAPE   C2818180   3.032   5.490   6.433  0.7477  0.8556  0.5499
  162SAPE   H8R18181   3.005   5.551   6.346  1.5256 -1.2153 -1.1627
  162SAPE   C2918182   3.101   5.541   6.538 -0.6783 -0.0520 -0.6217
  162SAPE   H9R18183   3.160   5.632   6.524 -0.5225 -0.1086 -0.3291
  162SAPE  C21018184   3.125   5.464   6.666 -1.0589 -0.1867 -0.1740
  162SAPE  H10R18185   3.231   5.431   6.670 -0.9569  0.2706  0.9039
  162SAPE  H10S18186   3.060   5.374   6.671 -1.3174  0.0946  1.7155
  162SAPE  C21118187   3.095   5.550   6.788  0.0862  0.2195 -0.2610
  162SAPE  H11R18188   2.997   5.599   6.795  0.8038  1.5907  0.3506
  162SAPE  C21218189   3.181   5.566   6.893  0.1271 -0.0944  1.3017
  162SAPE  H12R18190   3.144   5.612   6.986  0.6842  1.6122  0.7115
  162SAPE  C21318191   3.317   5.495   6.906  0.3759  0.0391 -0.2130
  162SAPE  H13R18192   3.373   5.546   6.824  0.2783 -0.6531 -0.7179
  162SAPE  H13S18193   3.313   5.386   6.888  1.3701  0.2034 -1.5623
  162SAPE  C21418194   3.384   5.516   7.037 -1.1599 -0.1763  0.1905
  162SAPE  H14R18195   3.448   5.604   7.045  0.0653 -0.9871 -0.4539
  162SAPE  C21518196   3.386   5.441   7.150  0.6691  0.0471  0.5138
  162SAPE  H15R18197   3.450   5.479   7.230  1.1188  0.4261 -0.0220
  162SAPE  C21618198   3.315   5.310   7.169 -0.3521  0.2931 -0.3710
  162SAPE  H16R18199   3.315   5.279   7.276  1.2800 -2.4114 -1.1058
  162SAPE  H16S18200   3.371   5.231   7.116 -1.2815 -2.6890  2.9038
  162SAPE  C21718201   3.165   5.301   7.129  0.0108  0.4467  0.5263
  162SAPE  H17R18202   3.146   5.192   7.145 -1.1398  0.4381 -0.8276
  162SAPE  H17S18203   3.139   5.339   7.029 -0.6294 -0.7206  0.2365
  162SAPE  C21818204   3.064   5.390   7.215  0.4058 -0.0510 -0.2072
  162SAPE  H18R18205   3.081   5.499   7.198 -1.1093  0.2968  0.4091
  162SAPE  H18S18206   3.094   5.383   7.321  0.3095  0.6020 -0.1342
  162SAPE  C21918207   2.915   5.356   7.199  0.1974 -0.2331  0.0908
  162SAPE  H19R18208   2.895   5.377   7.091  1.1441  1.2705  0.1901
  162SAPE  H19S18209   2.856   5.431   7.254  0.2227 -0.4788  0.4510
  162SAPE  C22018210   2.872   5.213   7.238 -0.4260  0.0864 -0.5944
  162SAPE  H20R18211   2.905   5.133   7.168  1.5581 -0.6868  1.1642
  162SAPE  H20S18212   2.763   5.204   7.255 -0.6180 -1.1298 -2.2690
  162SAPE  H20T18213   2.926   5.192   7.333 -0.5266 -1.3277 -0.8352
  162SAPE   C3318214   3.551   5.357   6.403  0.3001  0.7094 -0.5618
  162SAPE   H3X18215   3.556   5.451   6.461  1.0294 -0.3017  1.0817
  162SAPE   H3Y18216   3.648   5.305   6.420 -0.1124  0.8463  2.3872
  162SAPE   C3418217   3.444   5.288   6.496  0.7060  0.1341 -0.2348
  162SAPE   H4X18218   3.348   5.341   6.482  0.4304 -0.5959 -1.1208
  162SAPE   H4Y18219   3.484   5.289   6.600  2.1148  1.1862 -0.7660
  162SAPE   C3518220   3.433   5.146   6.455 -0.1354 -0.0409  0.6572
  162SAPE   H5X18221   3.535   5.112   6.426  0.0541  1.6097 -0.7284
  162SAPE   H5Y18222   3.370   5.146   6.363 -0.1361 -0.5678  0.6591
  162SAPE   C3618223   3.355   5.066   6.551  0.2820  0.3097  0.3614
  162SAPE   H6X18224   3.404   5.058   6.650  0.0643  0.3690  0.4733
  162SAPE   H6Y18225   3.344   4.960   6.520 -0.9048  0.1908  1.1474
  162SAPE   C3718226   3.207   5.110   6.570 -0.3567  0.1900 -0.0442
  162SAPE   H7X18227   3.163   5.088   6.471 -1.5588  0.5784  0.3913
  162SAPE   H7Y18228   3.209   5.220   6.585 -2.5053  0.3843 -0.9942
  162SAPE   C3818229   3.146   5.020   6.680  0.1168 -0.0338 -0.3812
  162SAPE   H8X18230   3.194   5.054   6.774 -0.7603 -1.6492  0.6604
  162SAPE   H8Y18231   3.171   4.916   6.652 -1.3485 -0.1036 -1.4874
  162SAPE   C3918232   2.996   5.052   6.697  0.4435  0.2541 -0.3986
  162SAPE   H9X18233   2.939   5.017   6.609 -0.9217 -0.9471  0.9430
  162SAPE   H9Y18234   2.978   5.160   6.713  1.8006  0.7606 -2.1803
  162SAPE  C31018235   2.938   4.967   6.816 -0.0329 -0.3009 -0.3377
  162SAPE  H10X18236   2.990   5.000   6.909 -1.5378  0.5667  0.2112
  162SAPE  H10Y18237   2.958   4.858   6.808 -0.0527 -0.4479  1.4941
  162SAPE  C31118238   2.792   4.971   6.835  0.2331  0.1173  1.0260
  162SAPE  H11X18239   2.743   4.896   6.769  0.7609  0.9595 -0.3468
  162SAPE  H11Y18240   2.769   5.070   6.790  1.0583  0.4237  1.2771
  162SAPE  C31218241   2.738   4.949   6.976  0.5060  0.3016 -0.1303
  162SAPE  H12X18242   2.754   5.034   7.046 -0.3892  0.8587 -0.5923
  162SAPE  H12Y18243   2.799   4.865   7.015  1.5273 -0.4812 -3.2748
  162SAPE  C31318244   2.589   4.921   6.981 -0.5154  1.0389 -0.1215
  162SAPE  H13X18245   2.556   4.839   6.914  2.0840  0.5642 -0.8920
  162SAPE  H13Y18246   2.529   5.012   6.959  1.1713  2.7710  2.2464
  162SAPE  C31418247   2.550   4.856   7.110  0.1435  0.6509 -0.1229
  162SAPE  H14X18248   2.614   4.770   7.138 -0.8015  0.4160  1.3939
  162SAPE  H14Y18249   2.447   4.816   7.106 -0.7208  2.8056 -0.4691
  162SAPE  C31518250   2.559   4.967   7.232 -0.1849 -0.2164  0.3096
  162SAPE  H15X18251   2.474   5.038   7.226  0.0429  0.0920  0.6641
  162SAPE  H15Y18252   2.651   5.031   7.233 -0.1714 -0.2335  0.2102
  162SAPE  C31618253   2.551   4.888   7.367  0.4068  0.4480  0.8273
  162SAPE  H16X18254   2.512   4.785   7.349 -1.3049  1.0477  1.0137
  162SAPE  H16Y18255   2.484   4.947   7.433  1.0202  1.9743  0.1167
  162SAPE  C31718256   2.692   4.885   7.438 -0.2984  0.0971  0.1892
  162SAPE  H17X18257   2.729   4.987   7.462  1.6557 -0.9022  1.5425
  162SAPE  H17Y18258   2.768   4.853   7.364 -1.6297 -1.0621 -0.7213
  162SAPE  C31818259   2.701   4.794   7.566 -0.6933  0.3535 -0.8255
  162SAPE  H18X18260   2.795   4.810   7.623 -2.6153  0.1092  2.5490
  162SAPE  H18Y18261   2.693   4.687   7.538  1.1347 -0.3259  1.0938
  162SAPE  H18Z18262   2.628   4.821   7.646  2.2289  0.3714  1.9014
  163SAPE     N18263   1.477   4.469   5.739  0.3056 -0.3162 -0.1941
  163SAPE   HN118264   1.580   4.461   5.751  0.6058  1.3548 -1.4114
  163SAPE   HN218265   1.464   4.571   5.750 -2.1476 -0.2752 -2.7351
  163SAPE   HN318266   1.435   4.412   5.815  3.5789  0.5817  2.4123
  163SAPE   C1218267   1.442   4.431   5.604 -0.1311  0.0458 -0.1086
  163SAPE  H12A18268   1.516   4.478   5.536  0.7362 -1.7282 -0.3970
  163SAPE  H12B18269   1.340   4.464   5.577 -0.7917 -1.6982  0.2016
  163SAPE   C1118270   1.439   4.278   5.599  0.2546 -0.7394 -0.0045
  163SAPE  H11A18271   1.542   4.242   5.616  0.2790  0.7298  3.4409
  163SAPE  H11B18272   1.403   4.264   5.495 -0.6690  3.0393 -0.2849
  163SAPE     P18273   1.343   4.061   5.678 -0.2012  0.1055  0.2606
  163SAPE   O1318274   1.232   4.015   5.765 -0.5638 -0.2418 -0.3708
  163SAPE   O1418275   1.331   4.019   5.537  0.3579 -0.5473  0.0313
  163SAPE   O1218276   1.345   4.219   5.690  0.2418  0.0064  0.1671
  163SAPE   O1118277   1.492   4.024   5.728  0.1803  0.4495 -0.3973
  163SAPE    C118278   1.513   3.947   5.844 -0.5922  0.2786 -0.8503
  163SAPE    HA18279   1.434   3.960   5.921  2.1046 -0.4197  2.1227
  163SAPE    HB18280   1.525   3.837   5.832 -1.9422 -0.3174  2.5611
  163SAPE    C218281   1.642   3.996   5.927 -0.2428 -0.1353 -0.2636
  163SAPE    HS18282   1.722   4.010   5.852  0.6584 -0.8870  0.5394
  163SAPE   O2118283   1.684   3.903   6.029 -0.2160  0.1727 -0.4639
  163SAPE   C2118284   1.800   3.950   6.089 -0.1148 -0.2710  0.5434
  163SAPE   O2218285   1.874   4.033   6.042  0.2257  0.5571  0.3121
  163SAPE   C2218286   1.824   3.873   6.219  0.0179  0.7660 -0.9465
  163SAPE   H2R18287   1.764   3.779   6.217  2.7298 -1.0637  0.3109
  163SAPE   H2S18288   1.927   3.835   6.233 -0.2149 -0.0381 -1.3811
  163SAPE    C318289   1.609   4.139   5.980  0.1039  0.3535  0.3504
  163SAPE    HX18290   1.596   4.207   5.893  0.4914 -0.2220 -0.1604
  163SAPE    HY18291   1.697   4.179   6.035 -1.3077  0.1684  2.8127
  163SAPE   O3118292   1.494   4.137   6.067 -0.3566 -0.0597  0.0900
  163SAPE   C3118293   1.396   4.227   6.051 -0.6372  0.0574 -0.2894
  163SAPE   O3218294   1.400   4.327   5.978  0.3991 -1.0530  0.2068
  163SAPE   C3218295   1.277   4.184   6.130  0.0144  0.0459  1.3690
  163SAPE   H2X18296   1.279   4.074   6.115  2.2824  0.2987 -0.3304
  163SAPE   H2Y18297   1.187   4.211   6.069  1.6605 -0.8520 -1.5550
  163SAPE   C2318298   1.789   3.955   6.349 -0.2288 -0.1950  0.0404
  163SAPE   H3R18299   1.870   4.031   6.353  0.1632 -0.6520  0.9074
  163SAPE   H3S18300   1.798   3.891   6.439 -1.7914 -0.1600  0.2310
  163SAPE   C2418301   1.656   4.030   6.356  0.3248 -0.1893 -0.0547
  163SAPE   H4R18302   1.669   4.111   6.282  0.7231  1.3397  1.6617
  163SAPE   H4S18303   1.645   4.089   6.449  1.8503  1.6612 -1.0155
  163SAPE   C2518304   1.533   3.944   6.330 -0.6164 -0.6774  0.3914
  163SAPE   H5R18305   1.506   3.927   6.225  0.4211 -2.5887  0.4069
  163SAPE   C2618306   1.451   3.898   6.421  1.0332  0.1105 -0.1725
  163SAPE   H6R18307   1.374   3.827   6.388  0.7405 -0.0246  0.7906
  163SAPE   C2718308   1.469   3.915   6.569  0.1525  0.3785  0.0117
  163SAPE   H7R18309   1.371   3.912   6.619  0.5377 -2.2149  0.6887
  163SAPE   H7S18310   1.518   4.013   6.586 -0.8927  0.7919  0.6593
  163SAPE   C2818311   1.564   3.811   6.625 -0.0102 -0.3179  0.6549
  163SAPE   H8R18312   1.658   3.797   6.569 -0.6269  2.3114 -1.1345
  163SAPE   C2918313   1.559   3.755   6.751  0.1761  0.0008 -0.2815
  163SAPE   H9R18314   1.647   3.709   6.799  1.1282  1.1009 -0.9451
  163SAPE  C21018315   1.453   3.784   6.859  0.1195  0.1403  0.1904
  163SAPE  H10R18316   1.363   3.826   6.810  0.1758 -1.0084 -0.9187
  163SAPE  H10S18317   1.493   3.868   6.920 -2.5566  2.1182 -0.7280
  163SAPE  C21118318   1.424   3.668   6.954 -0.1907 -0.1884  0.1388
  163SAPE  H11R18319   1.383   3.577   6.907  2.5626 -0.3101 -2.1609
  163SAPE  C21218320   1.475   3.660   7.077 -0.1089  0.4815 -0.0365
  163SAPE  H12R18321   1.430   3.582   7.140 -0.0297 -0.0144 -0.5973
  163SAPE  C21318322   1.561   3.751   7.160  0.3258 -0.0646  0.4374
  163SAPE  H13R18323   1.494   3.803   7.232 -2.1418 -0.1240 -1.7659
  163SAPE  H13S18324   1.596   3.830   7.090 -1.4718 -0.3884 -0.8527
  163SAPE  C21418325   1.676   3.689   7.240  0.2880  0.6885 -0.0138
  163SAPE  H14R18326   1.659   3.688   7.348  4.1945  0.1990  0.6764
  163SAPE  C21518327   1.788   3.627   7.192 -0.2793 -0.4599 -0.0791
  163SAPE  H15R18328   1.846   3.570   7.266  0.7824  0.7542  0.0543
  163SAPE  C21618329   1.823   3.610   7.054 -0.7746  0.1288  0.6378
  163SAPE  H16R18330   1.734   3.577   6.996 -0.6759  3.3388 -1.4966
  163SAPE  H16S18331   1.892   3.524   7.047 -0.5522  0.4391 -1.1844
  163SAPE  C21718332   1.888   3.727   6.980  0.0498  0.2257 -0.6161
  163SAPE  H17R18333   1.955   3.782   7.050 -0.8898  0.4879  0.0973
  163SAPE  H17S18334   1.803   3.795   6.956 -0.8282 -0.3713  0.6972
  163SAPE  C21818335   1.953   3.682   6.854 -0.2947  0.1242 -0.5304
  163SAPE  H18R18336   1.882   3.620   6.795  0.4152 -0.3459 -0.9005
  163SAPE  H18S18337   2.042   3.616   6.865 -0.3978  0.1843  0.8191
  163SAPE  C21918338   1.986   3.802   6.767  0.3545 -0.1556 -0.1763
  163SAPE  H19R18339   2.050   3.882   6.810 -1.5781  0.5549  1.4950
  163SAPE  H19S18340   1.887   3.844   6.736  0.2150  0.1281  0.6514
  163SAPE  C22018341   2.032   3.747   6.636 -0.0289  0.1572 -0.5418
  163SAPE  H20R18342   2.000   3.643   6.612  2.1861 -0.9632  1.1495
  163SAPE  H20S18343   2.142   3.745   6.628 -0.0054  1.7257 -0.7759
  163SAPE  H20T18344   1.995   3.810   6.552 -0.4608  0.5223 -0.0853
  163SAPE   C3318345   1.275   4.227   6.276 -0.1611  0.9233 -0.0100
  163SAPE   H3X18346   1.370   4.214   6.333 -1.0524 -0.9268  1.0998
  163SAPE   H3Y18347   1.202   4.156   6.321  0.3920 -0.6641 -1.5689
  163SAPE   C3418348   1.243   4.370   6.300  1.2493  0.0228  0.1531
  163SAPE   H4X18349   1.136   4.385   6.278  0.7770 -1.1240  1.5372
  163SAPE   H4Y18350   1.293   4.437   6.227  0.4403 -0.8142 -1.1841
  163SAPE   C3518351   1.263   4.411   6.440  0.3133  0.3578  0.3471
  163SAPE   H5X18352   1.252   4.522   6.438 -1.7120  0.1462 -1.9894
  163SAPE   H5Y18353   1.367   4.393   6.476  0.5434  3.1793  1.2336
  163SAPE   C3618354   1.180   4.339   6.550  0.4468  0.4631  0.5307
  163SAPE   H6X18355   1.222   4.238   6.567  2.4057  0.9948 -1.0283
  163SAPE   H6Y18356   1.075   4.328   6.515  0.7856 -1.3725  0.0226
  163SAPE   C3718357   1.185   4.421   6.680 -0.6224  0.4919  0.3036
  163SAPE   H7X18358   1.147   4.520   6.646 -0.4324  0.1134 -1.0439
  163SAPE   H7Y18359   1.291   4.449   6.695 -0.4266  0.5022 -1.0084
  163SAPE   C3818360   1.096   4.385   6.790  0.3487 -0.7924  0.2943
  163SAPE   H8X18361   0.991   4.362   6.762 -0.5857  1.7440  1.5324
  163SAPE   H8Y18362   1.100   4.478   6.851  0.5523  0.0022 -0.8998
  163SAPE   C3918363   1.154   4.256   6.871  0.0593 -0.1000  0.2000
  163SAPE   H9X18364   1.166   4.170   6.801 -2.3793 -1.3504  1.2483
  163SAPE   H9Y18365   1.079   4.233   6.950  0.1672  1.2305  0.6902
  163SAPE  C31018366   1.290   4.280   6.941 -0.7031  0.8698 -0.4034
  163SAPE  H10X18367   1.289   4.369   7.008  0.8905  0.7437 -0.1837
  163SAPE  H10Y18368   1.362   4.305   6.861 -0.2065 -1.7529 -0.7945
  163SAPE  C31118369   1.348   4.161   7.017 -0.0099  0.4442  0.3642
  163SAPE  H11X18370   1.447   4.197   7.052 -1.4716  2.7963  2.1837
  163SAPE  H11Y18371   1.356   4.078   6.942  1.8422 -0.3226  1.3904
  163SAPE  C31218372   1.275   4.114   7.145 -0.5779 -0.5526 -0.3116
  163SAPE  H12X18373   1.306   4.010   7.169 -0.0212 -0.3505 -0.1407
  163SAPE  H12Y18374   1.166   4.112   7.123 -0.1106  0.1588 -2.7665
  163SAPE  C31318375   1.311   4.210   7.263 -0.1700 -0.2821 -0.7322
  163SAPE  H13X18376   1.288   4.314   7.234 -0.1567 -0.3362 -0.9341
  163SAPE  H13Y18377   1.420   4.230   7.272  0.0415 -1.9021  0.6454
  163SAPE  C31418378   1.268   4.177   7.404 -0.8154 -0.3687 -0.1195
  163SAPE  H14X18379   1.313   4.081   7.436 -0.9989 -0.8675 -1.3476
  163SAPE  H14Y18380   1.163   4.142   7.394 -0.7198 -0.3432 -1.2473
  163SAPE  C31518381   1.277   4.293   7.500 -0.0131  0.0810 -0.0792
  163SAPE  H15X18382   1.233   4.265   7.597  0.6037  1.3791  0.5865
  163SAPE  H15Y18383   1.209   4.373   7.463 -0.4407 -0.7326 -1.0597
  163SAPE  C31618384   1.425   4.340   7.505 -0.6661  0.4913 -0.6922
  163SAPE  H16X18385   1.464   4.396   7.417  3.7385  0.2121  0.9609
  163SAPE  H16Y18386   1.501   4.259   7.509 -1.6803 -0.4377  0.2291
  163SAPE  C31718387   1.452   4.442   7.614  0.6056 -0.4769  0.1137
  163SAPE  H17X18388   1.560   4.464   7.626  0.3407  1.0617 -0.2252
  163SAPE  H17Y18389   1.428   4.384   7.707  0.0917 -1.4125 -0.5897
  163SAPE  C31818390   1.373   4.568   7.608 -0.4264 -1.0229 -0.1348
  163SAPE  H18X18391   1.263   4.551   7.603 -1.2433  2.5231  3.1448
  163SAPE  H18Y18392   1.393   4.637   7.523  1.2036 -3.9743 -2.2074
  163SAPE  H18Z18393   1.400   4.622   7.702  0.8175  2.1523 -2.2339
  164SAPE     N18394   5.434   0.756   5.630  0.4495 -0.8339 -0.2897
  164SAPE   HN118395   5.442   0.655   5.606  2.0332 -1.5620  3.0408
  164SAPE   HN218396   5.442   0.817   5.546  0.3131 -1.6611 -0.9153
  164SAPE   HN318397   5.508   0.773   5.702 -1.1413 -0.9062  1.4070
  164SAPE   C1218398   5.300   0.794   5.694 -0.2329  0.0813 -0.1710
  164SAPE  H12A18399   5.290   0.748   5.794 -0.4426 -0.8426 -0.6055
  164SAPE  H12B18400   5.226   0.755   5.620 -0.5362  1.4328 -0.6013
  164SAPE   C1118401   5.295   0.946   5.723 -0.0113 -0.1133  0.0676
  164SAPE  H11A18402   5.199   0.966   5.774  0.3411 -0.7889  1.0153
  164SAPE  H11B18403   5.297   1.004   5.628 -0.0269 -0.1477  0.0470
  164SAPE     P18404   5.499   1.102   5.785  0.5088 -0.1887  0.4545
  164SAPE   O1318405   5.604   1.054   5.690  0.2374 -0.2446 -0.2305
  164SAPE   O1418406   5.425   1.223   5.752 -0.8514 -0.2923 -0.2504
  164SAPE   O1218407   5.397   0.994   5.810  0.3742 -0.5109 -0.1874
  164SAPE   O1118408   5.570   1.123   5.932 -0.0196 -0.0537  0.2585
  164SAPE    C118409   5.532   1.038   6.043 -0.0965 -0.1918 -0.0052
  164SAPE    HA18410   5.506   0.936   6.007 -1.6581  0.0325  0.4409
  164SAPE    HB18411   5.612   1.034   6.120 -0.9940  0.3421  0.9649
  164SAPE    C218412   5.407   1.080   6.112 -0.1789 -0.5366 -0.0368
  164SAPE    HS18413   5.328   1.091   6.034 -2.7899  0.1413  2.6062
  164SAPE   O2118414   5.436   1.206   6.177  0.0993  0.3923  0.1127
  164SAPE   C2118415   5.329   1.283   6.208  0.0938 -1.0497  0.9860
  164SAPE   O2218416   5.215   1.262   6.173  0.4209  0.2963  0.2237
  164SAPE   C2218417   5.380   1.418   6.255 -0.4663 -0.2383  0.6050
  164SAPE   H2R18418   5.490   1.420   6.243 -0.4737 -1.5391  0.2693
  164SAPE   H2S18419   5.345   1.506   6.198  1.1262 -0.0463 -0.0775
  164SAPE    C318420   5.349   0.981   6.215 -0.5121 -0.6118 -0.2699
  164SAPE    HX18421   5.420   0.964   6.299  0.2008  2.6783 -0.1475
  164SAPE    HY18422   5.334   0.886   6.158 -1.8700  0.3176 -1.5086
  164SAPE   O3118423   5.228   1.014   6.276 -0.4133 -0.0945 -0.3396
  164SAPE   C3118424   5.116   0.989   6.210 -0.1139  0.1013 -0.3410
  164SAPE   O3218425   5.111   0.931   6.103  1.1458 -0.3190  0.9310
  164SAPE   C3218426   4.989   1.029   6.294 -0.3490 -0.2208 -0.3332
  164SAPE   H2X18427   4.923   1.084   6.223 -0.3069  3.5630  2.3791
  164SAPE   H2Y18428   5.029   1.095   6.374  0.0377 -1.5303  0.5543
  164SAPE   C2318429   5.341   1.449   6.401 -0.9883 -0.4613 -0.2160
  164SAPE   H3R18430   5.231   1.442   6.410 -1.2395  2.7577  0.0383
  164SAPE   H3S18431   5.365   1.557   6.412  0.4738 -0.7496 -0.5108
  164SAPE   C2418432   5.404   1.347   6.499 -0.3653  0.4570  0.2187
  164SAPE   H4R18433   5.515   1.350   6.491 -0.4748 -0.3977 -1.6967
  164SAPE   H4S18434   5.393   1.243   6.465 -2.6854  0.6981  0.1770
  164SAPE   C2518435   5.357   1.365   6.638  1.0303  0.0926 -0.4636
  164SAPE   H5R18436   5.353   1.470   6.670  2.8283  0.6211 -1.8611
  164SAPE   C2618437   5.312   1.267   6.720 -0.1911  0.1361 -0.1259
  164SAPE   H6R18438   5.274   1.296   6.819  0.8749 -0.1531  0.3726
  164SAPE   C2718439   5.298   1.120   6.703 -0.4408  0.6171 -0.1156
  164SAPE   H7R18440   5.315   1.083   6.806  0.5314 -0.3490 -0.6101
  164SAPE   H7S18441   5.373   1.087   6.628  0.0245 -1.8208  1.3885
  164SAPE   C2818442   5.161   1.101   6.645  0.5351  0.2437  0.4504
  164SAPE   H8R18443   5.153   1.076   6.539 -0.3364 -2.2097  1.0684
  164SAPE   C2918444   5.044   1.098   6.712 -0.3996 -0.3852 -0.9676
  164SAPE   H9R18445   4.949   1.079   6.660 -1.5701  0.4010  0.8318
  164SAPE  C21018446   5.028   1.128   6.858 -0.3590 -0.3985  0.4141
  164SAPE  H10R18447   5.122   1.156   6.910  0.1362 -3.4275  1.2282
  164SAPE  H10S18448   4.990   1.037   6.909  0.1644 -0.1835  1.1868
  164SAPE  C21118449   4.930   1.237   6.854  0.6396 -0.0907 -0.9269
  164SAPE  H11R18450   4.950   1.299   6.766 -3.7617  0.4753 -1.6243
  164SAPE  C21218451   4.812   1.257   6.930  0.4912 -0.0979  0.1466
  164SAPE  H12R18452   4.752   1.349   6.920  2.5196  1.2701  0.3305
  164SAPE  C21318453   4.751   1.162   7.033  0.6931 -0.0208 -0.3930
  164SAPE  H13R18454   4.741   1.061   6.987  1.7369 -0.2221 -0.2089
  164SAPE  H13S18455   4.648   1.186   7.065  1.1554  0.5937  0.6793
  164SAPE  C21418456   4.844   1.154   7.153  0.8953 -0.0876 -1.0184
  164SAPE  H14R18457   4.940   1.105   7.134  1.3709  1.3002 -2.1938
  164SAPE  C21518458   4.821   1.228   7.263 -0.4047 -0.1871  0.7452
  164SAPE  H15R18459   4.892   1.226   7.347 -1.2368  1.1535  1.4991
  164SAPE  C21618460   4.692   1.308   7.290  0.7316 -0.3360  0.1644
  164SAPE  H16R18461   4.653   1.282   7.390  0.1255  2.3797  0.6576
  164SAPE  H16S18462   4.604   1.300   7.222  0.4610 -1.1680  0.6155
  164SAPE  C21718463   4.711   1.463   7.300 -1.0274  0.7380  0.1436
  164SAPE  H17R18464   4.800   1.481   7.364 -2.3038  1.0590  1.8834
  164SAPE  H17S18465   4.623   1.518   7.341 -1.2216  2.0528 -1.9537
  164SAPE  C21818466   4.734   1.522   7.165 -0.1907  0.2285 -0.0495
  164SAPE  H18R18467   4.659   1.475   7.098  0.8657  0.0877 -1.1600
  164SAPE  H18S18468   4.840   1.497   7.142  0.0431  1.4012 -0.2740
  164SAPE  C21918469   4.713   1.671   7.162 -0.5566  0.2322  0.2517
  164SAPE  H19R18470   4.613   1.681   7.209 -1.8338  0.8731 -2.5329
  164SAPE  H19S18471   4.699   1.696   7.055  2.6661  1.2580 -0.0084
  164SAPE  C22018472   4.825   1.766   7.220  0.1134  0.2312 -0.0742
  164SAPE  H20R18473   4.845   1.748   7.327  0.0867  4.1686  0.6737
  164SAPE  H20S18474   4.802   1.875   7.216  1.4065  0.5855  1.5849
  164SAPE  H20T18475   4.916   1.755   7.157  1.0130 -0.6907  1.3755
  164SAPE   C3318476   4.924   0.904   6.343  0.5586 -0.3685 -0.3093
  164SAPE   H3X18477   4.890   0.846   6.254  0.2367  0.3830 -0.6750
  164SAPE   H3Y18478   4.835   0.928   6.406  0.2921 -1.0199 -0.4275
  164SAPE   C3418479   5.008   0.821   6.435 -0.4020  0.2893 -0.0296
  164SAPE   H4X18480   5.006   0.869   6.535 -0.0140 -2.6485  1.4248
  164SAPE   H4Y18481   5.116   0.811   6.411 -0.6449 -0.0267 -1.0247
  164SAPE   C3518482   4.946   0.680   6.454  0.4465 -0.3413  0.0385
  164SAPE   H5X18483   5.019   0.619   6.511 -1.4052 -1.9431  0.7355
  164SAPE   H5Y18484   4.918   0.641   6.354 -1.1824 -0.7034  0.6175
  164SAPE   C3618485   4.818   0.678   6.538  0.4844  0.4641 -0.0092
  164SAPE   H6X18486   4.787   0.572   6.542  0.2549  0.4931 -1.0961
  164SAPE   H6Y18487   4.732   0.733   6.495  1.2553  0.6828 -1.2749
  164SAPE   C3718488   4.839   0.745   6.674  0.9221  0.6609 -0.0021
  164SAPE   H7X18489   4.799   0.848   6.684 -0.5880 -0.1464  2.6032
  164SAPE   H7Y18490   4.946   0.753   6.703  0.7483  1.0955  0.5192
  164SAPE   C3818491   4.785   0.649   6.781 -0.5954  0.3265 -0.4118
  164SAPE   H8X18492   4.836   0.551   6.767  1.4255  0.7141  3.4896
  164SAPE   H8Y18493   4.676   0.636   6.768 -0.3079 -2.9851  0.1085
  164SAPE   C3918494   4.810   0.700   6.926 -0.3666  0.3029 -0.2914
  164SAPE   H9X18495   4.744   0.787   6.947  0.3213  0.7901 -0.1396
  164SAPE   H9Y18496   4.911   0.735   6.954 -0.9583  1.2142  0.7281
  164SAPE  C31018497   4.773   0.597   7.026 -0.3489  0.1420  0.8932
  164SAPE  H10X18498   4.833   0.509   6.996 -1.0876  0.6949 -2.4669
  164SAPE  H10Y18499   4.664   0.573   7.024 -0.5632  0.9562  2.2080
  164SAPE  C31118500   4.798   0.641   7.170 -0.4506  0.8384  0.6291
  164SAPE  H11X18501   4.716   0.714   7.188 -0.6262  0.9674 -0.6513
  164SAPE  H11Y18502   4.899   0.685   7.170  0.4669 -1.2164 -0.3541
  164SAPE  C31218503   4.782   0.533   7.277  0.4826  0.1578  0.9827
  164SAPE  H12X18504   4.688   0.474   7.267  0.5083  0.1298  0.9095
  164SAPE  H12Y18505   4.787   0.566   7.383  0.0739  0.5972  0.8654
  164SAPE  C31318506   4.886   0.413   7.259 -0.5310  0.4461 -0.4644
  164SAPE  H13X18507   4.988   0.459   7.260  0.6094 -1.9945  0.1801
  164SAPE  H13Y18508   4.866   0.364   7.162 -0.1057 -2.0035  0.6600
  164SAPE  C31418509   4.861   0.301   7.371  0.4560 -0.2539 -0.1016
  164SAPE  H14X18510   4.952   0.238   7.372  2.1264  2.0106 -2.1092
  164SAPE  H14Y18511   4.779   0.236   7.334  0.3327 -1.1592  1.7113
  164SAPE  C31518512   4.859   0.345   7.521  0.2428 -0.2000 -0.2902
  164SAPE  H15X18513   4.809   0.441   7.545  2.4888  0.9870 -0.2443
  164SAPE  H15Y18514   4.963   0.365   7.555 -0.2601  1.4374  0.3213
  164SAPE  C31618515   4.798   0.244   7.613  0.2656 -0.3093 -0.1874
  164SAPE  H16X18516   4.690   0.247   7.586  0.5695 -1.2149 -1.5474
  164SAPE  H16Y18517   4.796   0.266   7.722  0.7913 -2.6314  0.3274
  164SAPE  C31718518   4.857   0.104   7.607 -0.4905  0.5216 -0.5484
  164SAPE  H17X18519   4.967   0.097   7.609 -0.5271 -0.3005 -1.2165
  164SAPE  H17Y18520   4.837   0.069   7.503  0.1907  3.2748 -1.6657
  164SAPE  C31818521   4.789   0.007   7.701 -0.6973  0.7186  0.3586
  164SAPE  H18X18522   4.834  -0.093   7.685  1.8227  1.7632  0.6298
  164SAPE  H18Y18523   4.679  -0.003   7.689 -0.7036 -0.6239  1.4218
  164SAPE  H18Z18524   4.794   0.014   7.812 -0.7627  0.9555  0.3477
  165SAPE     N18525   6.845   3.022   5.841 -0.7698  0.3700 -0.1333
  165SAPE   HN118526   6.856   3.119   5.875  1.9093  0.8609 -2.2946
  165SAPE   HN218527   6.941   2.982   5.848 -1.0869 -0.0912  1.6758
  165SAPE   HN318528   6.819   3.025   5.740  2.2759 -0.4344 -0.9846
  165SAPE   C1218529   6.748   2.947   5.926 -0.5671 -0.6238 -0.0522
  165SAPE  H12A18530   6.792   2.937   6.028  0.4162 -1.2623 -0.5362
  165SAPE  H12B18531   6.735   2.841   5.894 -0.6782 -0.8765  0.8228
  165SAPE   C1118532   6.618   3.027   5.925  0.3669  0.2066 -0.2143
  165SAPE  H11A18533   6.638   3.129   5.964 -1.8047  0.8126 -0.6366
  165SAPE  H11B18534   6.554   2.960   5.986 -0.2840  1.2655  0.2769
  165SAPE     P18535   6.507   3.147   5.721  0.5938 -0.1029  0.0101
  165SAPE   O1318536   6.618   3.215   5.656 -0.4994  0.3176 -0.3327
  165SAPE   O1418537   6.385   3.116   5.637 -0.6136  0.1403 -0.4224
  165SAPE   O1218538   6.564   3.022   5.791 -0.1299  0.4381  0.4592
  165SAPE   O1118539   6.456   3.250   5.836 -0.0862 -0.0961  0.3670
  165SAPE    C118540   6.317   3.244   5.865 -0.3600  0.0306  0.0547
  165SAPE    HA18541   6.252   3.270   5.779  0.8531  0.6572 -0.6859
  165SAPE    HB18542   6.288   3.143   5.901 -1.6684 -0.5076 -2.3764
  165SAPE    C218543   6.278   3.339   5.976 -0.3183  0.4158 -0.4643
  165SAPE    HS18544   6.293   3.440   5.932  0.0223 -0.4121 -2.3154
  165SAPE   O2118545   6.364   3.303   6.091  0.1687  0.6944  0.0483
  165SAPE   C2118546   6.364   3.402   6.184  0.1857  0.0689 -0.1060
  165SAPE   O2218547   6.311   3.513   6.171  0.0843  0.2208 -0.5177
  165SAPE   C2218548   6.427   3.352   6.320 -0.5510 -0.8835 -0.2093
  165SAPE   H2R18549   6.349   3.304   6.383 -0.8105  0.0171  0.1542
  165SAPE   H2S18550   6.491   3.265   6.292 -0.0118 -0.6206  0.2102
  165SAPE    C318551   6.127   3.321   6.008 -0.3399 -0.2724 -0.5442
  165SAPE    HX18552   6.078   3.351   5.913  0.5045  1.7838 -0.3660
  165SAPE    HY18553   6.090   3.396   6.082  2.7427  0.7395  0.0392
  165SAPE   O3118554   6.102   3.183   6.035 -0.0544  0.3530  0.4730
  165SAPE   C3118555   6.054   3.168   6.158 -0.1209 -0.3339  0.4206
  165SAPE   O3218556   6.047   3.249   6.248  0.0845 -0.2002  0.7051
  165SAPE   C3218557   6.022   3.014   6.175 -0.1557 -0.3003  0.3191
  165SAPE   H2X18558   6.120   2.961   6.178  0.8827  1.4717 -1.4141
  165SAPE   H2Y18559   5.952   2.984   6.093  1.1124  0.0533 -0.9151
  165SAPE   C2318560   6.512   3.466   6.382 -0.0923  0.2304  0.4123
  165SAPE   H3R18561   6.579   3.509   6.304  0.8623 -0.3192  0.9206
  165SAPE   H3S18562   6.573   3.413   6.457 -0.2930 -0.3727  0.1535
  165SAPE   C2418563   6.430   3.570   6.458  0.1748 -0.3809 -0.2853
  165SAPE   H4R18564   6.371   3.509   6.529  0.3631 -1.4141 -1.0128
  165SAPE   H4S18565   6.359   3.618   6.386 -1.8418 -1.1008  1.1820
  165SAPE   C2518566   6.517   3.674   6.530  0.1496 -0.4850  0.6689
  165SAPE   H5R18567   6.578   3.735   6.463 -3.2282  0.7615 -1.4090
  165SAPE   C2618568   6.521   3.715   6.653  0.1436 -0.6704 -0.8336
  165SAPE   H6R18569   6.580   3.805   6.678 -0.1983 -0.7611  0.3134
  165SAPE   C2718570   6.433   3.662   6.764 -0.2265  0.5290  0.2709
  165SAPE   H7R18571   6.356   3.595   6.720  1.5466 -1.3087 -0.1322
  165SAPE   H7S18572   6.381   3.754   6.799 -1.4241  0.5070 -1.4167
  165SAPE   C2818573   6.534   3.592   6.863  0.2953 -0.6358 -0.2218
  165SAPE   H8R18574   6.627   3.546   6.826 -0.1225 -1.1394 -0.6527
  165SAPE   C2918575   6.518   3.593   6.996 -0.1783 -0.1537 -0.6161
  165SAPE   H9R18576   6.597   3.544   7.054 -1.2122 -2.2259 -0.9030
  165SAPE  C21018577   6.403   3.648   7.080 -0.5373  0.3813  0.2644
  165SAPE  H10R18578   6.380   3.746   7.032  1.0828  0.3538 -0.5807
  165SAPE  H10S18579   6.430   3.673   7.185  0.3419  1.0498 -0.1137
  165SAPE  C21118580   6.289   3.547   7.059 -0.4488 -0.1924 -1.0226
  165SAPE  H11R18581   6.288   3.482   6.970  0.7114 -0.8368 -0.5728
  165SAPE  C21218582   6.186   3.537   7.140 -0.0519  0.0773 -0.1336
  165SAPE  H12R18583   6.112   3.456   7.134  0.2195 -0.2647  1.0688
  165SAPE  C21318584   6.160   3.626   7.257 -0.4585 -0.5992  0.4664
  165SAPE  H13R18585   6.165   3.733   7.228 -0.3094 -0.9770 -0.9699
  165SAPE  H13S18586   6.253   3.617   7.317  0.1381  1.8860 -0.0289
  165SAPE  C21418587   6.040   3.600   7.345 -0.9745  0.1017 -0.3802
  165SAPE  H14R18588   5.961   3.676   7.345  0.1514  1.2738 -0.6093
  165SAPE  C21518589   6.019   3.486   7.418  0.1464  0.2584 -0.0455
  165SAPE  H15R18590   5.934   3.476   7.487  0.9685  0.3725  1.0062
  165SAPE  C21618591   6.115   3.373   7.420  0.1208 -0.4413 -0.6045
  165SAPE  H16R18592   6.147   3.356   7.525  0.1373  0.9580 -0.3764
  165SAPE  H16S18593   6.211   3.385   7.366  0.3544 -2.8666 -0.8004
  165SAPE  C21718594   6.052   3.242   7.371 -0.4585  0.0332 -0.4069
  165SAPE  H17R18595   6.015   3.260   7.267 -1.8153  0.1722  0.0904
  165SAPE  H17S18596   5.960   3.209   7.423 -0.0288  2.8781  2.2908
  165SAPE  C21818597   6.156   3.127   7.391  0.2230 -0.3510 -0.8813
  165SAPE  H18R18598   6.237   3.139   7.316  0.1921  0.7036 -0.7505
  165SAPE  H18S18599   6.101   3.035   7.365 -1.1669  0.7017 -1.7347
  165SAPE  C21918600   6.220   3.107   7.532 -0.1742 -0.1677  0.8199
  165SAPE  H19R18601   6.143   3.082   7.608 -2.3344  0.7283 -1.0108
  165SAPE  H19S18602   6.259   3.206   7.562  1.6359 -0.2234 -1.2593
  165SAPE  C22018603   6.325   2.995   7.536 -0.8100 -0.2348  0.0673
  165SAPE  H20R18604   6.276   2.905   7.493  0.3987  0.8066 -3.6838
  165SAPE  H20S18605   6.360   2.977   7.640 -1.0376  0.0888  0.2019
  165SAPE  H20T18606   6.404   3.021   7.463 -1.4214 -3.3507 -1.7858
  165SAPE   C3318607   5.951   2.984   6.305  0.2394  0.6028  0.1574
  165SAPE   H3X18608   5.871   3.058   6.325 -0.7550 -0.5535  0.5149
  165SAPE   H3Y18609   6.024   2.998   6.388 -0.0063 -1.1536  0.6934
  165SAPE   C3418610   5.887   2.845   6.304  0.2554  0.0751 -0.2167
  165SAPE   H4X18611   5.970   2.772   6.288  1.1967  0.3167  3.3037
  165SAPE   H4Y18612   5.809   2.840   6.226  0.9379 -0.6297 -0.8716
  165SAPE   C3518613   5.818   2.828   6.438  0.6564 -0.3351  0.1729
  165SAPE   H5X18614   5.739   2.750   6.439  0.5301 -0.2265 -0.6426
  165SAPE   H5Y18615   5.768   2.927   6.447 -0.1804 -0.8652  1.5411
  165SAPE   C3618616   5.924   2.801   6.554  0.7693  0.5957 -0.3683
  165SAPE   H6X18617   5.984   2.894   6.564 -0.1802  1.2204 -0.4791
  165SAPE   H6Y18618   5.995   2.716   6.540  0.0652 -0.5790  2.8754
  165SAPE   C3718619   5.842   2.769   6.680 -0.0620  0.2785 -0.7492
  165SAPE   H7X18620   5.773   2.686   6.653  2.9740 -2.2652 -1.1441
  165SAPE   H7Y18621   5.766   2.844   6.710  1.7017  1.3457  1.1388
  165SAPE   C3818622   5.931   2.733   6.797  0.1576 -0.1824  0.0076
  165SAPE   H8X18623   6.002   2.654   6.762 -0.1129 -0.3550 -0.1530
  165SAPE   H8Y18624   5.870   2.687   6.877  1.0522 -0.0482  0.7844
  165SAPE   C3918625   6.002   2.853   6.852  0.3229 -0.2918  0.0447
  165SAPE   H9X18626   5.932   2.939   6.851  3.2532  2.1447 -0.5954
  165SAPE   H9Y18627   6.077   2.888   6.778 -0.3168 -0.7103 -0.8150
  165SAPE  C31018628   6.080   2.822   6.975 -0.0806  0.4226  0.1472
  165SAPE  H10X18629   6.160   2.750   6.945  1.4792  2.7057 -1.3179
  165SAPE  H10Y18630   6.020   2.797   7.065 -0.6298  2.2105  0.2995
  165SAPE  C31118631   6.153   2.949   7.032 -0.3897  0.6114  0.1911
  165SAPE  H11X18632   6.219   2.915   7.115  1.5410 -0.1780 -1.6296
  165SAPE  H11Y18633   6.078   3.018   7.076  0.4870  1.4673  0.3609
  165SAPE  C31218634   6.245   3.021   6.934  0.4572  0.2072 -0.8485
  165SAPE  H12X18635   6.193   3.067   6.847  0.6141  1.8875 -0.0656
  165SAPE  H12Y18636   6.323   2.946   6.909  1.9478  1.4732 -0.0764
  165SAPE  C31318637   6.326   3.144   6.998 -0.1700 -0.3869  0.0345
  165SAPE  H13X18638   6.386   3.113   7.085  1.5041 -0.7857 -1.2459
  165SAPE  H13Y18639   6.254   3.221   7.032  0.0136 -0.0960 -0.2375
  165SAPE  C31418640   6.409   3.216   6.896  0.5920 -0.3131 -0.2280
  165SAPE  H14X18641   6.434   3.311   6.948  2.0913 -0.7870 -0.0650
  165SAPE  H14Y18642   6.355   3.255   6.808  3.1249  1.8591 -0.8519
  165SAPE  C31518643   6.547   3.159   6.857 -0.0145  0.5344 -0.5439
  165SAPE  H15X18644   6.536   3.057   6.815  2.4111 -0.1140  0.3454
  165SAPE  H15Y18645   6.616   3.149   6.943  0.2003  2.7370 -0.4187
  165SAPE  C31618646   6.607   3.253   6.754 -0.0452 -0.8065 -1.2029
  165SAPE  H16X18647   6.619   3.353   6.800  0.8071 -1.3537 -0.2191
  165SAPE  H16Y18648   6.528   3.256   6.676 -0.2257 -0.1940 -1.0005
  165SAPE  C31718649   6.737   3.201   6.701  0.6107  0.2626 -0.3766
  165SAPE  H17X18650   6.708   3.101   6.661 -1.0723  1.1837 -1.5332
  165SAPE  H17Y18651   6.814   3.180   6.778  0.6999 -0.3133 -0.6216
  165SAPE  C31818652   6.802   3.276   6.587 -0.3086 -0.3747  0.1283
  165SAPE  H18X18653   6.827   3.374   6.634 -0.8435  1.9645 -4.2152
  165SAPE  H18Y18654   6.740   3.298   6.498  0.1556 -1.8553 -0.5732
  165SAPE  H18Z18655   6.899   3.238   6.550 -1.6611 -0.2692 -3.7276
  166SAPE     N18656   3.926   6.945   5.662  0.1068  0.4641  0.6152
  166SAPE   HN118657   3.926   6.861   5.600  0.5091  1.6706 -1.0590
  166SAPE   HN218658   4.022   6.984   5.664 -0.0205  0.7375  1.6253
  166SAPE   HN318659   3.900   6.910   5.756  1.5640 -1.3184  0.3643
  166SAPE   C1218660   3.851   7.057   5.604 -0.7586  0.0516 -0.1021
  166SAPE  H12A18661   3.744   7.026   5.602 -0.6175 -0.4285 -0.2518
  166SAPE  H12B18662   3.893   7.061   5.502  1.3452  2.1918  0.8036
  166SAPE   C1118663   3.869   7.179   5.693  0.0820 -0.5278 -0.2820
  166SAPE  H11A18664   3.826   7.176   5.796  0.6616 -1.3883 -0.0556
  166SAPE  H11B18665   3.804   7.254   5.644 -1.2505 -1.9103 -0.6764
  166SAPE     P18666   4.052   7.369   5.684 -0.2077 -0.1656 -0.2247
  166SAPE   O1318667   4.201   7.379   5.706 -0.4955  0.4239  0.2234
  166SAPE   O1418668   4.006   7.421   5.561 -0.1930  0.3013 -0.1063
  166SAPE   O1218669   4.006   7.216   5.703 -0.6784 -0.1971  0.0319
  166SAPE   O1118670   3.983   7.447   5.797 -0.4253 -0.4217 -0.4898
  166SAPE    C118671   3.966   7.397   5.929 -0.0522  0.0447 -0.7266
  166SAPE    HA18672   3.944   7.288   5.931 -2.1189  0.4717  1.0889
  166SAPE    HB18673   4.066   7.409   5.977 -0.2266 -0.5223 -0.2143
  166SAPE    C218674   3.850   7.478   5.990  0.2474 -0.5317  0.3413
  166SAPE    HS18675   3.880   7.585   5.988 -0.0218 -0.4446  0.7723
  166SAPE   O2118676   3.827   7.430   6.125  0.0092 -0.5178 -0.3656
  166SAPE   C2118677   3.785   7.522   6.212 -0.0787 -1.1216 -0.1203
  166SAPE   O2218678   3.765   7.641   6.187 -0.0210  0.2361 -0.0158
  166SAPE   C2218679   3.724   7.463   6.341 -0.0459 -0.2005  0.0307
  166SAPE   H2R18680   3.613   7.472   6.338 -0.1645 -1.8377 -1.4073
  166SAPE   H2S18681   3.756   7.356   6.346 -2.3649 -0.8630  1.7618
  166SAPE    C318682   3.723   7.470   5.904 -0.9145 -1.2025  0.0635
  166SAPE    HX18683   3.754   7.499   5.801  1.4297  0.4578  1.1992
  166SAPE    HY18684   3.650   7.548   5.935 -1.5012 -1.5778 -0.3583
  166SAPE   O3118685   3.670   7.338   5.899  0.1687  0.3506 -0.4275
  166SAPE   C3118686   3.592   7.298   5.994 -0.2391  0.0038  0.0712
  166SAPE   O3218687   3.539   7.371   6.080  0.5335  0.8713 -0.3158
  166SAPE   C3218688   3.573   7.151   5.982  0.1753 -0.5334  0.6529
  166SAPE   H2X18689   3.677   7.112   5.988  0.9189  1.3725  0.3006
  166SAPE   H2Y18690   3.533   7.121   5.883 -2.7994 -1.0742  1.9512
  166SAPE   C2318691   3.789   7.522   6.471 -0.4841  0.6416 -0.0430
  166SAPE   H3R18692   3.724   7.517   6.561  0.1450 -2.1166  0.2887
  166SAPE   H3S18693   3.812   7.630   6.456 -0.7189  1.0146  2.0794
  166SAPE   C2418694   3.929   7.454   6.504 -0.1789 -0.7955 -0.4130
  166SAPE   H4R18695   3.997   7.458   6.416 -0.3128  0.8278 -0.4580
  166SAPE   H4S18696   3.899   7.351   6.535  0.4433 -0.9311 -0.2597
  166SAPE   C2518697   4.006   7.513   6.620  0.7014 -0.4131 -0.0204
  166SAPE   H5R18698   4.091   7.570   6.581  0.9603 -1.2446 -0.6855
  166SAPE   C2618699   3.978   7.500   6.752 -0.0752  0.0732  0.1101
  166SAPE   H6R18700   4.030   7.560   6.828  3.4108 -2.7831  0.1000
  166SAPE   C2718701   3.854   7.420   6.800  0.0869 -0.5908 -0.0837
  166SAPE   H7R18702   3.896   7.334   6.857 -0.3185 -1.2789 -0.8057
  166SAPE   H7S18703   3.787   7.385   6.719 -1.7685  0.0814  1.1196
  166SAPE   C2818704   3.764   7.496   6.893  0.0668 -0.3553 -0.5018
  166SAPE   H8R18705   3.674   7.535   6.842  0.1325 -1.9893 -1.8972
  166SAPE   C2918706   3.779   7.518   7.023  1.0782  1.0339 -0.2205
  166SAPE   H9R18707   3.697   7.576   7.068  0.0372  0.5963 -1.5214
  166SAPE  C21018708   3.888   7.463   7.111 -0.8297  0.0980  0.4101
  166SAPE  H10R18709   3.959   7.398   7.056 -0.4912  2.4245 -2.0327
  166SAPE  H10S18710   3.853   7.403   7.198  0.5552  0.0481  0.9547
  166SAPE  C21118711   3.955   7.584   7.167 -0.0758  0.3482  0.2700
  166SAPE  H11R18712   4.025   7.619   7.090 -2.7252  0.7534 -2.0427
  166SAPE  C21218713   3.936   7.667   7.275 -0.0951  0.7083  0.5181
  166SAPE  H12R18714   4.018   7.731   7.312  0.7079 -0.0956  0.1441
  166SAPE  C21318715   3.828   7.643   7.376 -0.3333 -0.5213  0.3894
  166SAPE  H13R18716   3.748   7.587   7.325 -0.8436  1.1014 -0.6119
  166SAPE  H13S18717   3.788   7.743   7.402 -0.2143 -0.2772 -0.3716
  166SAPE  C21418718   3.876   7.586   7.507  1.4170  0.2365  0.0913
  166SAPE  H14R18719   3.961   7.518   7.490  0.1606 -0.4038 -4.1233
  166SAPE  C21518720   3.827   7.618   7.629 -0.0388 -0.5192  0.6762
  166SAPE  H15R18721   3.873   7.574   7.719 -1.6167  0.5841  2.0502
  166SAPE  C21618722   3.716   7.716   7.655 -0.5642  0.2991 -0.3594
  166SAPE  H16R18723   3.664   7.693   7.750  2.5077 -0.3330  1.2205
  166SAPE  H16S18724   3.638   7.723   7.576  0.2489  0.0648 -1.1922
  166SAPE  C21718725   3.768   7.854   7.683  0.1424 -0.7722  0.7173
  166SAPE  H17R18726   3.819   7.892   7.591  0.1303 -2.7296 -0.1102
  166SAPE  H17S18727   3.838   7.853   7.769  0.7061  1.1390  0.3071
  166SAPE  C21818728   3.652   7.938   7.727  0.2551  0.0659  0.5703
  166SAPE  H18R18729   3.583   7.953   7.642  0.0956 -0.0154  0.6857
  166SAPE  H18S18730   3.698   8.037   7.748  0.1143  0.7256 -1.9887
  166SAPE  C21918731   3.565   7.903   7.854  0.7365 -0.2105  0.1681
  166SAPE  H19R18732   3.495   7.823   7.822  0.6486  0.2209 -0.7255
  166SAPE  H19S18733   3.500   7.991   7.875  0.4438 -0.2552 -0.5196
  166SAPE  C22018734   3.642   7.862   7.979 -0.2358  0.5304  0.1323
  166SAPE  H20R18735   3.667   7.947   8.047 -5.1757  0.5284  2.2020
  166SAPE  H20S18736   3.736   7.818   7.939 -0.7112  2.2610 -3.0655
  166SAPE  H20T18737   3.576   7.789   8.032 -1.5591  0.4345 -1.6251
  166SAPE   C3318738   3.482   7.076   6.079  0.6523  0.2260 -0.1067
  166SAPE   H3X18739   3.467   6.975   6.034  1.3028 -0.1409  0.4750
  166SAPE   H3Y18740   3.379   7.117   6.084  0.2125 -1.0642  2.2905
  166SAPE   C3418741   3.543   7.068   6.219 -0.0007  0.1434  0.6663
  166SAPE   H4X18742   3.625   7.142   6.229 -0.3566  0.7355 -0.7463
  166SAPE   H4Y18743   3.596   6.970   6.228 -0.8501 -0.3096  0.8283
  166SAPE   C3518744   3.444   7.099   6.336 -0.3474  0.5726  0.4428
  166SAPE   H5X18745   3.363   7.023   6.340  0.4507 -0.4054 -1.4120
  166SAPE   H5Y18746   3.420   7.206   6.320 -1.3294  0.0904 -1.4305
  166SAPE   C3618747   3.527   7.106   6.460 -0.3627  0.4196 -0.2121
  166SAPE   H6X18748   3.607   7.180   6.443 -0.9458  1.3298  0.9270
  166SAPE   H6Y18749   3.576   7.007   6.470  1.2740  1.0584 -1.5924
  166SAPE   C3718750   3.448   7.130   6.588 -0.0423  0.5803 -0.8055
  166SAPE   H7X18751   3.367   7.054   6.587  1.0974 -0.7014  0.8180
  166SAPE   H7Y18752   3.386   7.222   6.582  0.7779  1.2583  0.7755
  166SAPE   C3818753   3.526   7.159   6.713  0.2235 -0.4764 -0.3258
  166SAPE   H8X18754   3.582   7.255   6.710 -1.0787  0.2723 -1.9127
  166SAPE   H8Y18755   3.609   7.088   6.730  0.2742 -0.6371 -1.1989
  166SAPE   C3918756   3.437   7.168   6.830 -0.0733  1.0856  0.4101
  166SAPE   H9X18757   3.430   7.069   6.879  4.5742  0.4822  0.0209
  166SAPE   H9Y18758   3.335   7.209   6.815  0.1263  1.6235  0.5097
  166SAPE  C31018759   3.515   7.240   6.951 -0.1510 -0.2209 -0.2903
  166SAPE  H10X18760   3.507   7.350   6.936 -0.3175 -0.1770  0.0963
  166SAPE  H10Y18761   3.621   7.210   6.952 -0.0791 -0.0430 -1.5963
  166SAPE  C31118762   3.466   7.191   7.088  0.1554  0.7993  0.3032
  166SAPE  H11X18763   3.490   7.083   7.079  1.4431  1.0222  0.8451
  166SAPE  H11Y18764   3.357   7.210   7.092 -0.3417 -1.5994 -0.8551
  166SAPE  C31218765   3.552   7.246   7.197  0.1535 -0.0052 -0.1319
  166SAPE  H12X18766   3.565   7.356   7.185 -2.1006  0.1342 -1.6774
  166SAPE  H12Y18767   3.656   7.208   7.191  0.7387  1.7023 -1.1790
  166SAPE  C31318768   3.495   7.208   7.329  0.1770 -0.2136  0.1944
  166SAPE  H13X18769   3.497   7.098   7.336  1.2920 -0.0759  2.6321
  166SAPE  H13Y18770   3.388   7.234   7.341  0.3551 -0.4887  2.6947
  166SAPE  C31418771   3.576   7.270   7.450 -0.2029  0.3951  0.4277
  166SAPE  H14X18772   3.560   7.379   7.457  0.7365  0.4896  1.2955
  166SAPE  H14Y18773   3.675   7.249   7.405 -0.9910 -0.8341 -0.7822
  166SAPE  C31518774   3.537   7.201   7.584  0.1129 -0.3611  0.4153
  166SAPE  H15X18775   3.535   7.091   7.570  0.3108 -0.4170  0.7961
  166SAPE  H15Y18776   3.440   7.235   7.624 -0.5668  1.0117 -2.2763
  166SAPE  C31618777   3.645   7.231   7.685 -0.5826  0.1807 -0.4429
  166SAPE  H16X18778   3.640   7.338   7.717 -1.6286 -0.2277  0.7878
  166SAPE  H16Y18779   3.737   7.204   7.628 -1.4015 -1.4266 -1.0167
  166SAPE  C31718780   3.633   7.144   7.809  0.5846  0.4589  0.2581
  166SAPE  H17X18781   3.628   7.034   7.796  0.2256  0.2936  1.6737
  166SAPE  H17Y18782   3.539   7.164   7.865  0.7783 -0.9720  1.1047
  166SAPE  C31818783   3.750   7.175   7.907 -0.0050  0.0644  0.6617
  166SAPE  H18X18784   3.842   7.138   7.857  2.0888  2.4208  2.6251
  166SAPE  H18Y18785   3.735   7.123   8.004  1.6449 -1.5601  0.0729
  166SAPE  H18Z18786   3.779   7.281   7.920  0.8284  0.0543 -0.9820
  167SAPE     N18787   6.050   6.098   5.514 -0.2848 -0.3212  0.4878
  167SAPE   HN118788   6.033   5.996   5.526 -0.3596 -0.5606 -1.4130
  167SAPE   HN218789   6.128   6.121   5.448  2.0041  0.0984  3.2298
  167SAPE   HN318790   6.078   6.138   5.606  1.2097 -3.4407  1.4523
  167SAPE   C1218791   5.917   6.162   5.481 -0.2762  0.3379  0.2733
  167SAPE  H12A18792   5.874   6.115   5.390  1.7310 -0.9188 -0.0705
  167SAPE  H12B18793   5.941   6.269   5.462 -3.8781  1.3370  1.0107
  167SAPE   C1118794   5.829   6.172   5.611  0.2641  0.1040 -0.2009
  167SAPE  H11A18795   5.824   6.068   5.651  1.2033  0.3730  0.6326
  167SAPE  H11B18796   5.724   6.199   5.587 -0.3937 -3.5604 -1.7851
  167SAPE     P18797   5.874   6.416   5.707 -0.2144  0.4038  0.1777
  167SAPE   O1318798   5.997   6.489   5.654  0.5326  0.2467  0.2346
  167SAPE   O1418799   5.758   6.464   5.628 -0.2088  0.5786  0.8511
  167SAPE   O1218800   5.891   6.258   5.706  0.2845 -0.5150 -0.1985
  167SAPE   O1118801   5.856   6.450   5.854  0.3800  0.3728  0.9631
  167SAPE    C118802   5.890   6.367   5.966 -0.2372 -0.2535 -0.2970
  167SAPE    HA18803   5.950   6.276   5.943 -0.5640  0.0014 -2.2581
  167SAPE    HB18804   5.959   6.428   6.029 -1.2807  0.1131  0.5014
  167SAPE    C218805   5.763   6.328   6.055  1.0654  0.2278 -0.8389
  167SAPE    HS18806   5.806   6.277   6.144  0.5920  1.7820  0.3055
  167SAPE   O2118807   5.671   6.244   5.988 -0.2115  0.5083 -0.6132
  167SAPE   C2118808   5.711   6.119   5.976 -0.0298 -0.3444  0.5631
  167SAPE   O2218809   5.810   6.064   6.026  0.6646  1.2714 -0.5071
  167SAPE   C2218810   5.604   6.053   5.890 -0.4751 -0.1296  0.3719
  167SAPE   H2R18811   5.504   6.102   5.890 -1.0688 -1.3305 -0.2425
  167SAPE   H2S18812   5.639   6.047   5.785  0.4250  0.3705  0.6316
  167SAPE    C318813   5.690   6.451   6.107 -0.5996 -0.0209  0.1295
  167SAPE    HX18814   5.617   6.411   6.181  2.3588 -2.0856  2.0388
  167SAPE    HY18815   5.642   6.506   6.023 -0.9357  0.3907  0.5880
  167SAPE   O3118816   5.786   6.534   6.168 -0.4844  0.1801 -0.4258
  167SAPE   C3118817   5.734   6.625   6.247 -0.1595 -0.6081 -0.3059
  167SAPE   O3218818   5.620   6.658   6.262  0.0900 -0.0379 -0.3702
  167SAPE   C3218819   5.853   6.692   6.322 -0.0685 -0.4295 -0.4242
  167SAPE   H2X18820   5.813   6.762   6.399  1.7074  2.4962 -2.0651
  167SAPE   H2Y18821   5.903   6.754   6.245  0.3032  1.1636  1.0370
  167SAPE   C2318822   5.589   5.911   5.937 -0.3636 -0.2025  0.0266
  167SAPE   H3R18823   5.687   5.860   5.935 -0.3607 -0.1992  0.1628
  167SAPE   H3S18824   5.505   5.861   5.883  0.5430  0.7758 -2.3600
  167SAPE   C2418825   5.534   5.904   6.081 -0.1286 -0.3070  0.8084
  167SAPE   H4R18826   5.580   5.984   6.142  0.4591  0.2684 -0.3607
  167SAPE   H4S18827   5.569   5.804   6.115  1.0019  0.7030  2.6514
  167SAPE   C2518828   5.380   5.918   6.104 -0.4045 -0.1455  0.0977
  167SAPE   H5R18829   5.328   5.838   6.050 -0.9181  0.4822 -0.3569
  167SAPE   C2618830   5.317   6.011   6.180  0.0420  0.2700  0.0288
  167SAPE   H6R18831   5.211   5.994   6.203 -0.4469  2.6222 -0.3845
  167SAPE   C2718832   5.379   6.119   6.255  0.3289 -0.3581  0.1521
  167SAPE   H7R18833   5.442   6.176   6.184 -2.0681 -0.0552 -1.8292
  167SAPE   H7S18834   5.453   6.070   6.322  1.8528  1.8289  0.1210
  167SAPE   C2818835   5.289   6.214   6.335  0.5548 -0.7265  0.1450
  167SAPE   H8R18836   5.199   6.248   6.281  1.7141  0.1497 -1.2716
  167SAPE   C2918837   5.326   6.282   6.449  0.1654  0.6954 -0.1807
  167SAPE   H9R18838   5.261   6.356   6.497  1.3752 -0.2571  3.0464
  167SAPE  C21018839   5.460   6.273   6.516  0.0550  0.4952 -0.7918
  167SAPE  H10R18840   5.476   6.367   6.573 -2.7238  0.4011  0.2246
  167SAPE  H10S18841   5.542   6.281   6.442  2.3597  1.2368  1.7508
  167SAPE  C21118842   5.473   6.159   6.613  0.2015 -0.1445 -0.2826
  167SAPE  H11R18843   5.472   6.058   6.568 -1.2899 -1.4650  2.5574
  167SAPE  C21218844   5.459   6.168   6.743 -0.0482 -0.0912 -0.2778
  167SAPE  H12R18845   5.464   6.081   6.810  0.3654  2.3431  2.9456
  167SAPE  C21318846   5.438   6.295   6.819  0.6227 -0.0943 -0.1370
  167SAPE  H13R18847   5.364   6.350   6.757  0.0977 -0.1426  0.4462
  167SAPE  H13S18848   5.533   6.352   6.829 -0.1581  0.6497  4.0897
  167SAPE  C21418849   5.382   6.280   6.955 -0.1620  0.2424  0.1549
  167SAPE  H14R18850   5.281   6.322   6.972 -0.2505 -0.1270  0.5516
  167SAPE  C21518851   5.443   6.241   7.060 -0.6000  0.0784 -0.1498
  167SAPE  H15R18852   5.388   6.237   7.155 -1.5812 -3.5965 -0.8053
  167SAPE  C21618853   5.596   6.216   7.059 -0.0066  0.0926  0.5082
  167SAPE  H16R18854   5.643   6.313   7.086 -0.0279  0.2844 -0.1240
  167SAPE  H16S18855   5.637   6.177   6.963 -2.9328  0.6367 -1.0184
  167SAPE  C21718856   5.637   6.114   7.176 -0.8317  0.2132  0.3860
  167SAPE  H17R18857   5.747   6.107   7.172 -0.9467 -1.0079 -0.5476
  167SAPE  H17S18858   5.591   6.018   7.147  0.2997 -0.7281  1.6541
  167SAPE  C21818859   5.614   6.174   7.314  0.1172 -0.4597  0.2646
  167SAPE  H18R18860   5.506   6.192   7.335  0.8481  1.0795  2.8216
  167SAPE  H18S18861   5.669   6.270   7.313  0.8797 -0.8932  0.3364
  167SAPE  C21918862   5.677   6.093   7.430 -0.6960  0.0933  0.3434
  167SAPE  H19R18863   5.657   6.155   7.520 -1.2692  0.2824  0.0884
  167SAPE  H19S18864   5.786   6.075   7.418 -0.8179  0.2082 -0.9174
  167SAPE  C22018865   5.608   5.956   7.452 -0.2457 -0.5627  0.3104
  167SAPE  H20R18866   5.503   5.979   7.481 -0.3407  0.6776 -0.9639
  167SAPE  H20S18867   5.656   5.904   7.538  0.4828  2.1285  1.5955
  167SAPE  H20T18868   5.604   5.897   7.358 -0.9191 -0.5584  0.3383
  167SAPE   C3318869   5.949   6.595   6.387  0.0054 -0.5687  0.2609
  167SAPE   H3X18870   6.037   6.657   6.413  2.5227 -2.9448 -2.1460
  167SAPE   H3Y18871   5.981   6.524   6.308  0.2153 -0.6718  0.4411
  167SAPE   C3418872   5.882   6.519   6.505  0.1549 -0.1637  0.0625
  167SAPE   H4X18873   5.798   6.458   6.466 -1.2752  1.8743 -0.1433
  167SAPE   H4Y18874   5.848   6.598   6.576 -1.7883 -1.6563  0.8309
  167SAPE   C3518875   5.994   6.432   6.575 -0.0962  0.3280  0.7245
  167SAPE   H5X18876   6.082   6.491   6.610  0.4496  1.8597 -2.9660
  167SAPE   H5Y18877   6.035   6.354   6.508  1.1751  1.4933  0.1064
  167SAPE   C3618878   5.946   6.350   6.703  0.0572 -0.0134  0.0274
  167SAPE   H6X18879   5.897   6.256   6.668 -2.2670  1.4297 -0.7258
  167SAPE   H6Y18880   5.873   6.410   6.761 -0.3429 -0.6799  0.2174
  167SAPE   C3718881   6.049   6.301   6.812 -0.1474 -0.9353 -0.1609
  167SAPE   H7X18882   6.104   6.390   6.849 -0.8654 -0.7238  0.4164
  167SAPE   H7Y18883   6.124   6.230   6.770  0.8655  0.5346 -0.8948
  167SAPE   C3818884   5.987   6.244   6.950  0.0114  0.6076  0.8530
  167SAPE   H8X18885   5.965   6.139   6.920 -3.6619  1.5758 -0.0882
  167SAPE   H8Y18886   5.896   6.293   6.990 -1.1977 -1.7465  1.0743
  167SAPE   C3918887   6.092   6.243   7.059  0.0063  0.5544 -0.0452
  167SAPE   H9X18888   6.149   6.338   7.056  2.3760 -0.7344  2.3376
  167SAPE   H9Y18889   6.169   6.165   7.040 -1.0747 -0.4303 -0.4049
  167SAPE  C31018890   6.046   6.215   7.204  0.0752 -0.2767 -0.6880
  167SAPE  H10X18891   6.008   6.111   7.189  1.2372 -0.8290  0.0795
  167SAPE  H10Y18892   5.969   6.285   7.243 -0.3424 -1.1589  0.1056
  167SAPE  C31118893   6.162   6.184   7.298 -0.1688  0.2677  0.2058
  167SAPE  H11X18894   6.215   6.281   7.307 -0.5131  0.6098 -1.1868
  167SAPE  H11Y18895   6.218   6.101   7.251  0.6568 -0.7270  2.8862
  167SAPE  C31218896   6.114   6.151   7.433 -0.0954 -0.4164  0.7366
  167SAPE  H12X18897   6.042   6.067   7.439 -2.3700  1.4619  0.1580
  167SAPE  H12Y18898   6.060   6.239   7.474 -1.1216  0.2479 -1.9557
  167SAPE  C31318899   6.220   6.138   7.548 -0.2772  0.0779 -0.3094
  167SAPE  H13X18900   6.253   6.242   7.568 -0.1157  0.0654 -0.5083
  167SAPE  H13Y18901   6.310   6.082   7.517 -0.3371  0.6561 -1.5881
  167SAPE  C31418902   6.154   6.092   7.680 -0.4155 -0.0746 -0.8638
  167SAPE  H14X18903   6.086   6.005   7.664  0.8071 -0.9772 -1.2266
  167SAPE  H14Y18904   6.095   6.170   7.733 -0.4938 -1.8417  1.7866
  167SAPE  C31518905   6.268   6.049   7.782  0.1933  0.1234  0.1423
  167SAPE  H15X18906   6.315   5.956   7.745  1.8635  1.3503 -0.9006
  167SAPE  H15Y18907   6.219   6.024   7.879  2.5687 -1.0678  1.0805
  167SAPE  C31618908   6.380   6.149   7.799 -0.3293  0.2781  0.0354
  167SAPE  H16X18909   6.339   6.250   7.819  0.5887  0.4558  1.0893
  167SAPE  H16Y18910   6.446   6.153   7.709  0.7738 -1.6629  0.7089
  167SAPE  C31718911   6.468   6.118   7.919 -0.8035  0.1689 -0.4906
  167SAPE  H17X18912   6.515   6.018   7.903 -0.8769  0.1914 -0.8553
  167SAPE  H17Y18913   6.400   6.108   8.005 -2.1902  1.6137 -1.3886
  167SAPE  C31818914   6.575   6.224   7.955 -0.5149  0.2872 -0.3515
  167SAPE  H18X18915   6.627   6.201   8.051 -0.6472 -1.1396 -0.6037
  167SAPE  H18Y18916   6.529   6.324   7.968 -0.6936  0.0001  1.4597
  167SAPE  H18Z18917   6.646   6.234   7.871 -0.0033  2.1472  0.2824
  168SAPE     N18918   5.849   0.982   5.708  0.3257  0.7941 -0.5819
  168SAPE   HN118919   5.919   1.059   5.716  2.0367 -0.7972  0.3400
  168SAPE   HN218920   5.752   1.018   5.700 -0.2419 -0.3548  1.0180
  168SAPE   HN318921   5.850   0.935   5.801  1.9295  1.3369 -0.2948
  168SAPE   C1218922   5.888   0.887   5.599 -0.4634 -0.4437 -0.2089
  168SAPE  H12A18923   5.894   0.935   5.498  4.0086 -2.4500 -1.0235
  168SAPE  H12B18924   5.811   0.811   5.578 -1.6952  1.1268 -1.4923
  168SAPE   C1118925   6.021   0.819   5.621  0.1155 -0.3936 -0.0472
  168SAPE  H11A18926   6.100   0.894   5.639 -1.4179  0.9114  1.3800
  168SAPE  H11B18927   6.044   0.765   5.527 -1.7211 -0.1527 -0.6567
  168SAPE     P18928   6.150   0.649   5.784 -0.4892 -0.6209  0.0019
  168SAPE   O1318929   6.197   0.551   5.682  0.3204 -0.1069  0.3290
  168SAPE   O1418930   6.254   0.747   5.828 -0.2555  0.5516  0.3618
  168SAPE   O1218931   6.017   0.729   5.730 -0.0044  0.0695  0.0558
  168SAPE   O1118932   6.095   0.576   5.903  0.7162  0.4118 -0.1479
  168SAPE    C118933   6.135   0.447   5.952  0.0971  0.0377 -0.4775
  168SAPE    HA18934   6.185   0.383   5.877  0.5473 -0.7722  0.4891
  168SAPE    HB18935   6.217   0.466   6.024  0.7526 -0.0222 -1.2092
  168SAPE    C218936   6.025   0.358   6.023 -0.1100 -0.2730  0.5654
  168SAPE    HS18937   5.933   0.360   5.961 -0.1862 -2.7920  0.5196
  168SAPE   O2118938   6.001   0.418   6.151 -0.4413 -0.1528 -0.3240
  168SAPE   C2118939   5.880   0.405   6.207  1.0698 -1.0879  0.1543
  168SAPE   O2218940   5.782   0.365   6.146 -0.1274 -0.4482 -0.5618
  168SAPE   C2218941   5.881   0.454   6.348 -0.1939  0.3756  0.4593
  168SAPE   H2R18942   5.887   0.565   6.348 -1.3662  0.4798  3.6720
  168SAPE   H2S18943   5.781   0.445   6.394 -0.8508  0.8709 -0.8557
  168SAPE    C318944   6.058   0.218   6.049 -0.2511 -0.4490 -0.1757
  168SAPE    HX18945   6.051   0.165   5.951  2.3104  1.7015 -1.5626
  168SAPE    HY18946   5.969   0.175   6.101  0.4900 -1.2403  0.4557
  168SAPE   O3118947   6.181   0.196   6.126  0.5069 -0.3266  0.2535
  168SAPE   C3118948   6.290   0.192   6.054  0.0857  0.6527 -0.1236
  168SAPE   O3218949   6.311   0.192   5.934  0.5759 -0.6296  0.5249
  168SAPE   C3218950   6.399   0.175   6.162 -0.5072  0.5329 -0.2922
  168SAPE   H2X18951   6.478   0.112   6.116 -0.7803 -0.5925  0.7443
  168SAPE   H2Y18952   6.355   0.121   6.249 -0.2518  1.4340  0.4043
  168SAPE   C2318953   5.993   0.401   6.446 -0.0659  0.9593  0.4351
  168SAPE   H3R18954   6.010   0.470   6.531  1.1662  0.0931  0.8899
  168SAPE   H3S18955   6.092   0.389   6.397 -0.6802  0.6373 -0.7731
  168SAPE   C2418956   5.953   0.264   6.508  0.3966 -0.6823 -0.1992
  168SAPE   H4R18957   5.959   0.179   6.436  1.2218 -1.3697  0.6613
  168SAPE   H4S18958   5.844   0.269   6.528  0.4210 -1.4564  0.1613
  168SAPE   C2518959   6.033   0.222   6.621  0.3245  0.4029 -0.9668
  168SAPE   H5R18960   6.114   0.153   6.593 -1.2420 -2.0256  0.2089
  168SAPE   C2618961   6.019   0.239   6.749  0.6719  0.7141  0.2592
  168SAPE   H6R18962   6.081   0.179   6.818  2.6740  2.9389  0.4441
  168SAPE   C2718963   5.917   0.327   6.821  0.0747  0.7218 -0.3827
  168SAPE   H7R18964   5.840   0.257   6.860  1.5207 -1.7384 -1.7977
  168SAPE   H7S18965   5.865   0.391   6.746  0.6004  0.0337 -1.3446
  168SAPE   C2818966   5.992   0.400   6.932  0.8662 -0.4016 -0.3343
  168SAPE   H8R18967   6.091   0.441   6.907  0.5185 -0.1778 -1.3652
  168SAPE   C2918968   5.940   0.435   7.052 -0.3368 -0.0892  0.1329
  168SAPE   H9R18969   5.996   0.504   7.116  1.1925 -0.7889 -0.4209
  168SAPE  C21018970   5.808   0.394   7.113 -0.6364 -0.5647  0.1847
  168SAPE  H10R18971   5.826   0.296   7.163 -1.5561 -0.2412  1.1714
  168SAPE  H10S18972   5.731   0.369   7.037 -0.9430  0.8069  0.0291
  168SAPE  C21118973   5.751   0.488   7.217  0.1668 -0.1458  0.4180
  168SAPE  H11R18974   5.666   0.547   7.182 -0.8047  0.2853  3.3547
  168SAPE  C21218975   5.804   0.489   7.341  0.3839 -0.7387 -0.3587
  168SAPE  H12R18976   5.758   0.560   7.412  0.6130 -2.1428  1.2385
  168SAPE  C21318977   5.918   0.411   7.398  0.4404  0.4795 -0.0134
  168SAPE  H13R18978   5.963   0.342   7.324  0.7330 -1.6254  2.0887
  168SAPE  H13S18979   5.889   0.355   7.489  0.7894  0.3519  0.0196
  168SAPE  C21418980   6.032   0.500   7.439  0.3171  0.0342 -0.4209
  168SAPE  H14R18981   6.112   0.500   7.363 -0.6773 -0.0012 -1.4850
  168SAPE  C21518982   6.049   0.573   7.545  1.1258  0.0487  0.4327
  168SAPE  H15R18983   6.137   0.638   7.539  1.3912 -0.4249 -0.9161
  168SAPE  C21618984   5.947   0.593   7.657 -0.0166 -0.2719 -0.2062
  168SAPE  H16R18985   5.972   0.523   7.740  0.4177  1.8486  1.4952
  168SAPE  H16S18986   5.848   0.568   7.613 -0.3840  2.8394 -1.2273
  168SAPE  C21718987   5.948   0.736   7.705  0.1408  0.8016  0.3238
  168SAPE  H17R18988   5.943   0.793   7.610 -0.7497 -0.1771 -0.2269
  168SAPE  H17S18989   6.049   0.757   7.747  0.7483 -0.7813 -0.3217
  168SAPE  C21818990   5.838   0.798   7.797  0.7075  0.4874  0.2088
  168SAPE  H18R18991   5.741   0.795   7.743  1.3565  0.7277 -0.9910
  168SAPE  H18S18992   5.860   0.907   7.806  1.2464  0.4045 -0.0929
  168SAPE  C21918993   5.824   0.732   7.937 -0.4239  0.3484  0.0206
  168SAPE  H19R18994   5.921   0.757   7.985 -1.3428  1.0833  1.5345
  168SAPE  H19S18995   5.807   0.622   7.929 -1.5353  0.4160  1.3675
  168SAPE  C22018996   5.707   0.801   8.003 -0.1431  0.1734 -0.7166
  168SAPE  H20R18997   5.619   0.798   7.936  1.9564  1.3601 -3.6508
  168SAPE  H20S18998   5.742   0.903   8.029 -0.4049  0.2999 -0.8647
  168SAPE  H20T18999   5.678   0.750   8.098  0.9723  2.3530  0.8413
  168SAPE   C3319000   6.458   0.304   6.213 -0.2030  0.0816 -0.0957
  168SAPE   H3X19001   6.493   0.368   6.129 -4.0295  1.3517 -0.8152
  168SAPE   H3Y19002   6.548   0.280   6.273  0.1017 -0.6261 -0.8249
  168SAPE   C3419003   6.369   0.391   6.296  0.7219 -0.1045  0.4459
  168SAPE   H4X19004   6.333   0.324   6.377 -1.9403  0.2027 -0.4336
  168SAPE   H4Y19005   6.273   0.417   6.246  0.7985 -0.5431  0.0634
  168SAPE   C3519006   6.427   0.516   6.350 -0.0933  0.0047 -0.0637
  168SAPE   H5X19007   6.465   0.573   6.262 -3.8076  1.1734 -0.9936
  168SAPE   H5Y19008   6.505   0.498   6.426 -2.2735  0.9581  2.4630
  168SAPE   C3619009   6.326   0.600   6.439  0.4338 -0.1831 -0.6570
  168SAPE   H6X19010   6.390   0.678   6.486 -0.8731  1.9431 -2.2883
  168SAPE   H6Y19011   6.298   0.520   6.511  2.2978  0.2740  0.5845
  168SAPE   C3719012   6.219   0.666   6.354  0.4774  0.1167 -0.0796
  168SAPE   H7X19013   6.128   0.604   6.334 -0.3750  0.9589  1.1509
  168SAPE   H7Y19014   6.247   0.702   6.253 -1.6227 -0.8937 -1.0747
  168SAPE   C3819015   6.156   0.782   6.431 -0.5087 -0.2377 -0.1207
  168SAPE   H8X19016   6.083   0.843   6.373  0.4056  1.2374  0.2510
  168SAPE   H8Y19017   6.240   0.852   6.451 -0.7758  0.3966 -1.1364
  168SAPE   C3919018   6.091   0.759   6.574  0.4231  0.0749  1.2858
  168SAPE   H9X19019   6.124   0.659   6.611 -0.5039 -0.8743 -0.3741
  168SAPE   H9Y19020   5.980   0.751   6.578  0.4056  0.3922  1.4929
  168SAPE  C31019021   6.121   0.869   6.675 -0.3918  0.7608  0.4783
  168SAPE  H10X19022   6.085   0.971   6.652 -1.3799  0.4513  0.6305
  168SAPE  H10Y19023   6.231   0.868   6.695  0.0066 -0.0449 -1.5320
  168SAPE  C31119024   6.053   0.834   6.807  0.7437  0.2499 -0.0876
  168SAPE  H11X19025   6.074   0.727   6.830 -0.5992  0.3859  1.9108
  168SAPE  H11Y19026   5.942   0.830   6.797  0.6829 -0.1702  0.6882
  168SAPE  C31219027   6.096   0.925   6.915  0.1420  0.2119 -0.5949
  168SAPE  H12X19028   6.077   1.027   6.875  1.4658  0.9837  0.7025
  168SAPE  H12Y19029   6.205   0.920   6.935 -0.0280 -3.4235 -0.1136
  168SAPE  C31319030   6.016   0.917   7.053 -0.2760  0.6908  0.0963
  168SAPE  H13X19031   6.054   0.998   7.119 -1.0236  0.4598  0.8137
  168SAPE  H13Y19032   6.032   0.814   7.094  1.3795  1.2971  1.0302
  168SAPE  C31419033   5.866   0.933   7.040  0.7691  0.0758  0.0671
  168SAPE  H14X19034   5.831   0.843   6.984  0.5563 -2.6191  4.2627
  168SAPE  H14Y19035   5.826   1.022   6.986  0.9131  1.0545  1.5412
  168SAPE  C31519036   5.781   0.913   7.172  0.0885  0.1383  0.0041
  168SAPE  H15X19037   5.791   0.817   7.226 -0.6918 -0.1507 -0.3521
  168SAPE  H15Y19038   5.672   0.931   7.159 -0.3145 -2.0424  0.2500
  168SAPE  C31619039   5.831   1.021   7.275  0.4650  0.0818  0.4151
  168SAPE  H16X19040   5.813   1.123   7.236  0.1578  0.1397  0.7081
  168SAPE  H16Y19041   5.941   1.005   7.283  0.3429 -1.7690 -1.1582
  168SAPE  C31719042   5.756   1.014   7.408  0.3735 -0.1643 -0.1414
  168SAPE  H17X19043   5.730   0.907   7.425 -4.0771  0.3410 -2.8776
  168SAPE  H17Y19044   5.666   1.074   7.385 -1.7281 -3.2864 -0.3707
  168SAPE  C31819045   5.830   1.061   7.535  0.3967  0.1161  0.5945
  168SAPE  H18X19046   5.910   0.984   7.538 -0.1630 -0.3865  3.4077
  168SAPE  H18Y19047   5.768   1.055   7.627 -0.8340 -0.0715 -0.2452
  168SAPE  H18Z19048   5.867   1.166   7.531  0.1285  0.1629 -1.2503
  169SAPE     N19049   0.290   2.753   5.562 -0.1626 -0.0346 -0.2462
  169SAPE   HN119050   0.330   2.793   5.475 -1.1260  1.0431 -0.2157
  169SAPE   HN219051   0.252   2.824   5.629 -0.2366 -1.2155  1.0041
  169SAPE   HN319052   0.372   2.716   5.614  1.3853  2.9543 -0.4748
  169SAPE   C1219053   0.183   2.648   5.546  0.6761  0.1616  0.3024
  169SAPE  H12A19054   0.224   2.560   5.492 -2.3549 -0.6123 -0.8420
  169SAPE  H12B19055   0.114   2.692   5.470  2.3979  0.3572 -1.1895
  169SAPE   C1119056   0.113   2.595   5.682  0.3187  0.0600  0.2783
  169SAPE  H11A19057   0.198   2.544   5.731 -1.4718 -3.0347  0.3251
  169SAPE  H11B19058   0.020   2.539   5.659 -0.1585  0.3575  1.4527
  169SAPE     P19059  -0.048   2.784   5.750  0.1956 -0.1821 -0.2115
  169SAPE   O1319060  -0.028   2.888   5.648 -0.3068  0.5509 -0.6557
  169SAPE   O1419061  -0.163   2.692   5.729  0.2611  0.1289 -0.3424
  169SAPE   O1219062   0.086   2.700   5.773  0.8778 -0.5294 -0.3565
  169SAPE   O1119063  -0.076   2.856   5.884 -0.5644 -0.1568 -0.3060
  169SAPE    C119064  -0.071   2.787   6.010 -0.8842 -0.0912 -0.0106
  169SAPE    HA19065  -0.175   2.773   6.047 -0.2725 -0.5296  1.6062
  169SAPE    HB19066  -0.034   2.683   6.016  1.3863  0.6796 -0.4012
  169SAPE    C219067   0.003   2.878   6.108  0.4613 -0.0901 -0.4644
  169SAPE    HS19068   0.112   2.883   6.083  0.8609 -0.7902  1.0433
  169SAPE   O2119069  -0.010   2.820   6.234 -0.7239  0.0504 -0.0139
  169SAPE   C2119070   0.077   2.861   6.323 -0.8284  0.3792 -0.3686
  169SAPE   O2219071   0.162   2.950   6.313 -0.3105  0.1135 -0.2140
  169SAPE   C2219072   0.058   2.786   6.454 -0.1792  0.0084 -0.0079
  169SAPE   H2R19073   0.002   2.860   6.515  0.5866 -0.5333  1.3733
  169SAPE   H2S19074  -0.010   2.700   6.436  1.4215 -0.9065 -1.8300
  169SAPE    C319075  -0.060   3.021   6.109 -0.3249 -0.2878 -0.3723
  169SAPE    HX19076  -0.057   3.077   6.013  0.8963  0.7817  0.2608
  169SAPE    HY19077   0.004   3.082   6.177 -1.5785 -2.1232  2.5634
  169SAPE   O3119078  -0.199   3.017   6.143  0.2579  0.4323  0.1803
  169SAPE   C3119079  -0.226   3.072   6.262  0.3020 -0.1664 -0.3572
  169SAPE   O3219080  -0.141   3.088   6.349  0.3995  0.0427 -0.2759
  169SAPE   C3219081  -0.377   3.094   6.269 -0.6520  0.0128 -0.2743
  169SAPE   H2X19082  -0.407   3.123   6.166  1.8130  1.6302 -0.5958
  169SAPE   H2Y19083  -0.404   3.175   6.339  1.3982 -1.1575  1.9377
  169SAPE   C2319084   0.183   2.732   6.517 -0.1850 -1.0263  0.2932
  169SAPE   H3R19085   0.259   2.809   6.542 -0.3345 -1.3465  1.7514
  169SAPE   H3S19086   0.243   2.673   6.444  0.5617  0.3161 -0.2116
  169SAPE   C2419087   0.162   2.640   6.641  0.3269  0.3465 -0.6474
  169SAPE   H4R19088   0.098   2.688   6.718 -0.1442 -1.1325 -0.0902
  169SAPE   H4S19089   0.268   2.637   6.673  0.1117 -1.4036 -0.0254
  169SAPE   C2519090   0.110   2.506   6.605  0.4873 -0.0519 -0.4082
  169SAPE   H5R19091   0.098   2.489   6.497  0.0904 -2.0685 -0.0573
  169SAPE   C2619092   0.057   2.419   6.693 -0.4633  0.1685  0.0906
  169SAPE   H6R19093   0.006   2.329   6.655 -1.3119  1.0555 -0.8963
  169SAPE   C2719094   0.060   2.441   6.842 -0.3047  0.2215  0.6362
  169SAPE   H7R19095  -0.018   2.512   6.876 -0.2975  1.1945 -1.2811
  169SAPE   H7S19096   0.158   2.483   6.876  0.3697 -1.1241  0.4168
  169SAPE   C2819097   0.045   2.312   6.913  0.2381 -0.9635  1.2980
  169SAPE   H8R19098   0.110   2.229   6.884  2.6837  1.0192  0.9533
  169SAPE   C2919099  -0.056   2.284   7.003 -0.5182 -0.1122  0.1039
  169SAPE   H9R19100  -0.051   2.183   7.049 -0.7410  0.5038  1.5095
  169SAPE  C21019101  -0.172   2.364   7.056 -0.1838 -0.0028  0.5961
  169SAPE  H10R19102  -0.241   2.296   7.110  1.3656 -2.4817 -0.4974
  169SAPE  H10S19103  -0.240   2.400   6.975 -2.0355  1.3939  2.6708
  169SAPE  C21119104  -0.133   2.488   7.140 -0.3103 -0.1310  0.1250
  169SAPE  H11R19105  -0.087   2.576   7.094  0.3138 -0.2566  0.5053
  169SAPE  C21219106  -0.172   2.491   7.270 -0.3176 -0.7276  0.2708
  169SAPE  H12R19107  -0.153   2.590   7.315 -1.0267 -1.9157  3.3145
  169SAPE  C21319108  -0.244   2.386   7.357  0.0314 -0.5474 -0.2311
  169SAPE  H13R19109  -0.177   2.298   7.358 -1.4442 -1.6836 -0.0252
  169SAPE  H13S19110  -0.337   2.359   7.302 -0.0650 -1.7839  0.5333
  169SAPE  C21419111  -0.294   2.439   7.494 -0.1106  0.1560 -0.4726
  169SAPE  H14R19112  -0.399   2.472   7.494  0.1524  1.0170  1.0569
  169SAPE  C21519113  -0.219   2.459   7.603  0.0393 -0.3534  0.0867
  169SAPE  H15R19114  -0.261   2.502   7.695  2.1778  0.6415  0.6385
  169SAPE  C21619115  -0.069   2.432   7.618  0.0951  0.6784  0.3445
  169SAPE  H16R19116  -0.027   2.374   7.533 -0.4862 -0.2399  0.6715
  169SAPE  H16S19117  -0.062   2.357   7.700  2.1575 -0.4046 -0.7927
  169SAPE  C21719118   0.017   2.552   7.642 -0.3096 -0.1548  0.5660
  169SAPE  H17R19119  -0.040   2.606   7.722  0.2615 -1.4239  1.8557
  169SAPE  H17S19120   0.019   2.611   7.548 -1.6725 -0.3131  0.4267
  169SAPE  C21819121   0.163   2.538   7.693  0.0891  0.0846 -0.4730
  169SAPE  H18R19122   0.157   2.494   7.796 -0.7764  0.1893 -0.4732
  169SAPE  H18S19123   0.200   2.641   7.712 -1.9110  0.4445  1.7183
  169SAPE  C21919124   0.252   2.470   7.589 -0.3281 -0.4935 -0.1923
  169SAPE  H19R19125   0.265   2.541   7.505 -1.9316 -0.7036 -0.6386
  169SAPE  H19S19126   0.213   2.377   7.542 -0.8868  0.6557 -2.0604
  169SAPE  C22019127   0.395   2.449   7.645  0.3745  0.2168  0.6602
  169SAPE  H20R19128   0.438   2.549   7.667 -0.8728  0.4095  2.3381
  169SAPE  H20S19129   0.462   2.405   7.569 -2.1544  0.0695 -1.5462
  169SAPE  H20T19130   0.387   2.386   7.736  2.4273  2.1909  2.2759
  169SAPE   C3319131  -0.440   2.962   6.325  0.1829  0.3746 -0.2704
  169SAPE   H3X19132  -0.384   2.924   6.413 -2.4147 -1.9411  0.4409
  169SAPE   H3Y19133  -0.436   2.883   6.248 -1.0393 -1.6995  1.7453
  169SAPE   C3419134  -0.596   2.962   6.355 -0.0014  0.5069  0.2220
  169SAPE   H4X19135  -0.652   2.973   6.260  0.9462 -0.3522 -0.4493
  169SAPE   H4Y19136  -0.614   3.056   6.411  3.1017  0.6693  1.0346
  169SAPE   C3519137  -0.643   2.840   6.437 -0.0942 -0.1996  0.1646
  169SAPE   H5X19138  -0.562   2.827   6.511 -0.3008 -0.3774  0.3608
  169SAPE   H5Y19139  -0.663   2.757   6.365 -1.2111 -0.0992  0.3483
  169SAPE   C3619140  -0.775   2.873   6.507  0.0420 -0.3661  0.0191
  169SAPE   H6X19141  -0.837   2.920   6.428  1.4507  1.0464 -0.2634
  169SAPE   H6Y19142  -0.752   2.951   6.582  1.4506  0.2721 -1.0596
  169SAPE   C3719143  -0.842   2.754   6.573  0.1395 -0.0334  0.0355
  169SAPE   H7X19144  -0.942   2.791   6.601 -0.7393 -0.1782 -2.7292
  169SAPE   H7Y19145  -0.789   2.732   6.668  0.9428 -0.5501 -0.5216
  169SAPE   C3819146  -0.862   2.634   6.481 -0.4664 -0.4355 -0.2911
  169SAPE   H8X19147  -0.771   2.600   6.427 -0.9292  2.3154 -2.9166
  169SAPE   H8Y19148  -0.924   2.669   6.396  0.3128  0.7392 -0.3965
  169SAPE   C3919149  -0.930   2.516   6.545 -0.3173  0.7678 -0.1316
  169SAPE   H9X19150  -0.973   2.473   6.452  1.1818  0.1524 -0.5519
  169SAPE   H9Y19151  -1.017   2.554   6.602 -1.4178 -0.1995 -1.1380
  169SAPE  C31019152  -0.853   2.401   6.614  0.7195  0.3421 -0.1168
  169SAPE  H10X19153  -0.773   2.365   6.545  0.2043  1.0688 -1.1098
  169SAPE  H10Y19154  -0.913   2.308   6.622  0.8051  0.3519  0.6338
  169SAPE  C31119155  -0.788   2.439   6.749 -0.6959 -0.3024 -0.2446
  169SAPE  H11X19156  -0.851   2.484   6.828  0.3676  1.7904 -0.5674
  169SAPE  H11Y19157  -0.718   2.523   6.728  0.1734 -1.3162 -1.4636
  169SAPE  C31219158  -0.693   2.334   6.809 -0.1546  0.1706  0.0861
  169SAPE  H12X19159  -0.592   2.354   6.767 -0.7107  0.6776 -1.0181
  169SAPE  H12Y19160  -0.727   2.233   6.776 -0.1129  0.2474 -0.1886
  169SAPE  C31319161  -0.675   2.333   6.959  0.1773 -0.5301 -0.5086
  169SAPE  H13X19162  -0.587   2.266   6.971  0.3785 -0.6008 -2.2802
  169SAPE  H13Y19163  -0.763   2.279   7.001  0.3235 -2.7957 -2.9508
  169SAPE  C31419164  -0.658   2.474   7.024  0.3615  0.6954 -0.2129
  169SAPE  H14X19165  -0.742   2.543   7.002 -0.9798 -0.8315 -0.0487
  169SAPE  H14Y19166  -0.572   2.526   6.979  0.3737 -0.8756 -2.0700
  169SAPE  C31519167  -0.628   2.460   7.179  0.4120 -0.1967 -0.2248
  169SAPE  H15X19168  -0.580   2.366   7.214 -1.2494 -0.7049  0.7871
  169SAPE  H15Y19169  -0.720   2.468   7.242 -0.2566 -0.0204 -1.2091
  169SAPE  C31619170  -0.538   2.571   7.228  0.3183  0.2272  0.1822
  169SAPE  H16X19171  -0.434   2.556   7.193  0.2934  0.0128  0.1969
  169SAPE  H16Y19172  -0.530   2.558   7.338 -0.0889 -0.0142  0.1871
  169SAPE  C31719173  -0.584   2.714   7.199 -0.0304  0.2899  0.5824
  169SAPE  H17X19174  -0.687   2.728   7.238 -0.6983 -3.2239  0.2102
  169SAPE  H17Y19175  -0.597   2.723   7.089 -0.0409  1.5700  0.6756
  169SAPE  C31819176  -0.503   2.824   7.264 -0.1281  0.8524 -0.1542
  169SAPE  H18X19177  -0.528   2.931   7.248 -0.9648  0.6618 -0.1241
  169SAPE  H18Y19178  -0.398   2.817   7.229 -0.3483 -0.3512 -0.6045
  169SAPE  H18Z19179  -0.490   2.798   7.372  1.2742 -0.8070 -0.6892
  170SAPE     N19180   6.381   6.811   5.631 -0.3189  0.2710  0.3850
  170SAPE   HN119181   6.386   6.863   5.541 -0.1579 -0.1634  0.1389
  170SAPE   HN219182   6.469   6.757   5.640 -1.2446 -1.7300 -1.9510
  170SAPE   HN319183   6.299   6.748   5.643  1.3979 -2.1409 -0.1374
  170SAPE   C1219184   6.359   6.905   5.743  0.1038  0.2411 -0.3099
  170SAPE  H12A19185   6.366   6.846   5.837 -0.8831 -0.8657 -0.9153
  170SAPE  H12B19186   6.261   6.950   5.714  0.6762 -0.2740 -3.2297
  170SAPE   C1119187   6.462   7.025   5.733 -0.2916 -0.5921 -0.6074
  170SAPE  H11A19188   6.558   6.988   5.776  0.3804  2.2206  0.4812
  170SAPE  H11B19189   6.420   7.110   5.792 -1.4258 -1.4092 -0.2156
  170SAPE     P19190   6.616   7.169   5.582 -0.2104 -0.2037 -0.1900
  170SAPE   O1319191   6.741   7.096   5.556 -0.0465  0.2908 -0.1349
  170SAPE   O1419192   6.568   7.261   5.477  0.2811  0.3652 -0.2189
  170SAPE   O1219193   6.498   7.069   5.604  0.4448  0.3254  0.4162
  170SAPE   O1119194   6.625   7.239   5.726  0.2687  0.0537 -0.0077
  170SAPE    C119195   6.730   7.309   5.788  0.3547 -0.3786 -0.5902
  170SAPE    HA19196   6.799   7.353   5.712  0.8619  2.2300  1.3150
  170SAPE    HB19197   6.690   7.392   5.849  2.2715  1.4423 -1.7412
  170SAPE    C219198   6.822   7.217   5.873 -0.4587 -0.5440 -0.0990
  170SAPE    HS19199   6.851   7.142   5.796 -0.9144 -0.8000 -0.0243
  170SAPE   O2119200   6.743   7.173   5.983 -0.0034  0.3962 -0.0453
  170SAPE   C2119201   6.741   7.041   6.010  0.0040  0.3669 -0.2242
  170SAPE   O2219202   6.793   6.954   5.943 -0.7131 -0.3325 -0.1319
  170SAPE   C2219203   6.644   7.017   6.123 -0.1721  0.4716 -0.5007
  170SAPE   H2R19204   6.629   7.115   6.174 -2.6906 -0.1490  0.0287
  170SAPE   H2S19205   6.542   6.993   6.088 -0.9984  1.7214  0.9931
  170SAPE    C319206   6.958   7.274   5.917 -0.4860 -0.3024 -0.1371
  170SAPE    HX19207   7.006   7.304   5.822  0.9290 -0.0124  0.6571
  170SAPE    HY19208   7.021   7.189   5.953  0.0596  0.1401 -0.0436
  170SAPE   O3119209   6.949   7.382   6.017 -0.7170 -0.1266 -0.0364
  170SAPE   C3119210   6.960   7.345   6.139  0.2354  0.5678  0.1615
  170SAPE   O3219211   6.988   7.237   6.186  0.4005 -0.4794  0.2903
  170SAPE   C3219212   6.920   7.464   6.228 -0.3755  0.4365 -0.7913
  170SAPE   H2X19213   6.815   7.481   6.197 -1.4861  0.0607  2.4940
  170SAPE   H2Y19214   6.994   7.541   6.198 -1.4696  1.6669 -0.3763
  170SAPE   C2319215   6.684   6.893   6.215 -0.2307  0.4716 -0.6542
  170SAPE   H3R19216   6.770   6.909   6.284 -0.9027 -0.5722  0.4438
  170SAPE   H3S19217   6.696   6.800   6.156 -0.0378  1.7201 -2.6404
  170SAPE   C2419218   6.578   6.876   6.324  0.0134 -0.4357 -0.0784
  170SAPE   H4R19219   6.607   6.784   6.379  0.2888  1.1621  2.5176
  170SAPE   H4S19220   6.487   6.841   6.270 -0.0288 -0.2577 -0.1227
  170SAPE   C2519221   6.554   6.999   6.408 -0.1552 -0.3488 -0.0875
  170SAPE   H5R19222   6.485   7.072   6.365 -0.3013  0.2237  1.1043
  170SAPE   C2619223   6.613   7.022   6.526  0.6885 -0.2873 -0.0733
  170SAPE   H6R19224   6.565   7.110   6.572  0.8217  0.9869 -2.3098
  170SAPE   C2719225   6.718   6.937   6.593  0.2781  0.1865  0.3302
  170SAPE   H7R19226   6.708   6.832   6.559  0.3342  1.3567 -3.6177
  170SAPE   H7S19227   6.696   6.940   6.701 -0.7708 -3.9686  0.3192
  170SAPE   C2819228   6.854   6.975   6.566  0.1386 -0.0869  0.3385
  170SAPE   H8R19229   6.883   6.962   6.460 -1.0639  2.7194 -0.4029
  170SAPE   C2919230   6.939   7.036   6.658  0.4867 -0.0396  0.6786
  170SAPE   H9R19231   7.033   7.078   6.618  0.4506  1.0382  1.6780
  170SAPE  C21019232   6.916   7.082   6.798 -0.4724 -0.5156 -0.8064
  170SAPE  H10R19233   6.874   6.998   6.859 -0.1827  0.3603  0.6370
  170SAPE  H10S19234   6.827   7.149   6.802  0.7136  1.0238  0.4981
  170SAPE  C21119235   7.029   7.139   6.888  0.2769  0.7537  0.0429
  170SAPE  H11R19236   6.998   7.237   6.928  0.6753 -0.5318  3.6868
  170SAPE  C21219237   7.147   7.095   6.935  0.8202 -0.2932  0.4151
  170SAPE  H12R19238   7.210   7.165   6.992  0.9456 -1.4093  1.6730
  170SAPE  C21319239   7.203   6.962   6.904 -0.6284  0.0720 -0.7690
  170SAPE  H13R19240   7.140   6.909   6.828 -0.5274  0.4548 -1.1201
  170SAPE  H13S19241   7.205   6.903   6.998  0.7081  0.3024 -0.6408
  170SAPE  C21419242   7.344   6.957   6.851 -0.0135  0.3629 -0.2040
  170SAPE  H14R19243   7.346   6.931   6.744 -1.4016  3.8375 -1.1605
  170SAPE  C21519244   7.461   6.967   6.920  0.7446  0.0380  0.6270
  170SAPE  H15R19245   7.562   6.956   6.876  0.3045 -2.3323  0.1025
  170SAPE  C21619246   7.480   6.989   7.065  0.4160  0.8848 -0.1158
  170SAPE  H16R19247   7.385   7.025   7.110 -1.1656  0.1253 -2.7316
  170SAPE  H16S19248   7.560   7.067   7.061  0.1914  1.0568 -2.2804
  170SAPE  C21719249   7.545   6.872   7.136 -0.2054  0.1211 -0.2756
  170SAPE  H17R19250   7.624   6.835   7.068 -0.9227 -0.8609 -0.5824
  170SAPE  H17S19251   7.479   6.783   7.148  2.4514 -2.1201 -1.8477
  170SAPE  C21819252   7.626   6.925   7.253  0.4679 -0.2229 -0.0174
  170SAPE  H18R19253   7.562   6.986   7.320  0.1332 -1.7683  1.0966
  170SAPE  H18S19254   7.717   6.983   7.226  0.5080 -0.5418 -0.5744
  170SAPE  C21919255   7.670   6.813   7.359  0.2593  0.2247 -0.0477
  170SAPE  H19R19256   7.755   6.860   7.413  0.7214 -0.3852 -0.2426
  170SAPE  H19S19257   7.711   6.719   7.316  0.2138 -0.0491  0.5069
  170SAPE  C22019258   7.564   6.791   7.471 -0.2428 -0.0206  0.4956
  170SAPE  H20R19259   7.485   6.720   7.440  1.6867 -0.8713 -2.7886
  170SAPE  H20S19260   7.526   6.881   7.523  0.2667 -0.2471  1.2666
  170SAPE  H20T19261   7.615   6.735   7.552  2.3280 -0.4323 -1.3409
  170SAPE   C3319262   6.944   7.427   6.379  0.4427 -0.3765 -0.1018
  170SAPE   H3X19263   6.958   7.511   6.450  1.2387 -0.9516  0.4312
  170SAPE   H3Y19264   7.033   7.364   6.401  0.1540 -1.5603 -2.1679
  170SAPE   C3419265   6.824   7.352   6.433  0.1594 -0.2228  0.0379
  170SAPE   H4X19266   6.855   7.277   6.508 -0.3270  1.4458  1.9733
  170SAPE   H4Y19267   6.772   7.312   6.343 -0.5550  0.3482  0.1853
  170SAPE   C3519268   6.732   7.445   6.512  0.2108  0.0020  0.1614
  170SAPE   H5X19269   6.693   7.523   6.444  1.5796  0.1161 -0.5069
  170SAPE   H5Y19270   6.801   7.503   6.576  1.4182 -0.9776 -0.2285
  170SAPE   C3619271   6.616   7.379   6.586 -0.5499  0.6431  0.9697
  170SAPE   H6X19272   6.660   7.293   6.641 -0.0366 -0.0649 -0.5217
  170SAPE   H6Y19273   6.545   7.325   6.520  0.4373 -1.1665  1.3567
  170SAPE   C3719274   6.528   7.463   6.678  0.1190  0.2195  0.7640
  170SAPE   H7X19275   6.473   7.535   6.614  0.1515 -0.1068  0.3637
  170SAPE   H7Y19276   6.603   7.505   6.748  0.1447 -1.1780  1.5941
  170SAPE   C3819277   6.426   7.384   6.764 -0.7603 -0.4405  0.3816
  170SAPE   H8X19278   6.375   7.316   6.693  0.3934 -0.6453 -0.2732
  170SAPE   H8Y19279   6.351   7.453   6.809 -0.6907 -1.0142  1.3729
  170SAPE   C3919280   6.481   7.291   6.876 -0.6415  0.2457 -0.4690
  170SAPE   H9X19281   6.549   7.347   6.944  0.7619  0.5459 -2.0759
  170SAPE   H9Y19282   6.545   7.208   6.840 -2.5553 -0.7696 -1.6382
  170SAPE  C31019283   6.373   7.234   6.961 -0.3547  1.2123  0.3614
  170SAPE  H10X19284   6.313   7.157   6.907  0.4196  0.5182  0.4751
  170SAPE  H10Y19285   6.301   7.310   6.998 -0.2980  1.4040  0.0784
  170SAPE  C31119286   6.427   7.146   7.077  0.2312 -0.0961 -0.1119
  170SAPE  H11X19287   6.497   7.210   7.135  0.7648 -0.4802 -0.3198
  170SAPE  H11Y19288   6.478   7.059   7.029 -0.4478 -0.2819 -0.5036
  170SAPE  C31219289   6.317   7.089   7.174  0.4623 -0.1417  0.0445
  170SAPE  H12X19290   6.233   7.040   7.120  1.7534 -2.2066 -0.1266
  170SAPE  H12Y19291   6.278   7.164   7.246  1.9261  1.5389 -0.8769
  170SAPE  C31319292   6.367   6.973   7.261  0.8237  0.0924 -0.5825
  170SAPE  H13X19293   6.456   7.005   7.318 -1.2126 -0.2331  2.8840
  170SAPE  H13Y19294   6.386   6.880   7.203  1.1666 -0.0200 -0.2892
  170SAPE  C31419295   6.275   6.921   7.380 -0.1342  0.9321 -0.0203
  170SAPE  H14X19296   6.182   6.877   7.337  1.3510 -0.7106 -1.6438
  170SAPE  H14Y19297   6.248   7.014   7.434 -2.1686  0.1623  0.3438
  170SAPE  C31519298   6.342   6.821   7.481  0.2689 -0.6605 -0.1767
  170SAPE  H15X19299   6.264   6.774   7.546  0.0273 -0.4045 -0.2849
  170SAPE  H15Y19300   6.399   6.888   7.549  0.9955  0.2330 -1.6603
  170SAPE  C31619301   6.416   6.701   7.413  1.1539 -0.7040 -0.0931
  170SAPE  H16X19302   6.509   6.749   7.376  0.2644  0.3705 -0.9651
  170SAPE  H16Y19303   6.365   6.676   7.317 -1.4831 -3.1321  1.8671
  170SAPE  C31719304   6.451   6.576   7.500  0.7312  0.4927  0.0848
  170SAPE  H17X19305   6.492   6.498   7.433  0.4266 -0.2365  0.7502
  170SAPE  H17Y19306   6.361   6.540   7.555  1.7304 -0.9324  0.7922
  170SAPE  C31819307   6.552   6.615   7.608 -0.4656  0.3665 -0.0976
  170SAPE  H18X19308   6.624   6.682   7.558  0.0893 -1.8857 -2.4484
  170SAPE  H18Y19309   6.597   6.521   7.649  2.0775  1.7243  0.2890
  170SAPE  H18Z19310   6.502   6.663   7.695  1.3303  0.6383  0.7973
  171SAPE     N19311   0.636   0.529   5.720  0.5807 -0.4019 -0.0603
  171SAPE   HN119312   0.711   0.535   5.791  1.7741  4.2181 -1.5765
  171SAPE   HN219313   0.541   0.534   5.762  0.4776 -0.2516 -0.3156
  171SAPE   HN319314   0.649   0.434   5.680  3.1200 -0.2172  0.2924
  171SAPE   C1219315   0.646   0.637   5.611 -0.1803  0.1960 -0.1663
  171SAPE  H12A19316   0.557   0.625   5.546 -0.2654  1.1110 -0.2236
  171SAPE  H12B19317   0.740   0.619   5.555  0.4060 -1.8447  1.3792
  171SAPE   C1119318   0.656   0.776   5.670  0.5866  0.7082  0.3002
  171SAPE  H11A19319   0.669   0.849   5.587 -0.2997 -0.5225 -0.9411
  171SAPE  H11B19320   0.754   0.781   5.723  1.9966  0.1240 -2.1800
  171SAPE     P19321   0.455   0.938   5.734  0.1824  0.3401 -0.0130
  171SAPE   O1319322   0.533   1.058   5.766  0.1511 -0.1742  0.3987
  171SAPE   O1419323   0.386   0.928   5.604 -0.6454 -0.1805  0.5749
  171SAPE   O1219324   0.551   0.808   5.763  0.3335 -0.5668 -0.3925
  171SAPE   O1119325   0.354   0.917   5.858  0.6338  0.3015  0.3680
  171SAPE    C119326   0.381   0.829   5.969 -0.3466  0.3203  0.6642
  171SAPE    HA19327   0.355   0.722   5.955  0.2385  0.3178 -0.4354
  171SAPE    HB19328   0.488   0.837   5.994 -0.4468  1.0870  0.8568
  171SAPE    C219329   0.311   0.887   6.098  0.5488 -0.4665 -0.7577
  171SAPE    HS19330   0.204   0.893   6.068  0.7481 -0.0564 -1.3715
  171SAPE   O2119331   0.375   1.015   6.121 -0.0581 -0.1233 -0.0778
  171SAPE   C2119332   0.286   1.105   6.176  0.4403 -0.0050  0.2429
  171SAPE   O2219333   0.168   1.091   6.179 -0.0828 -0.0905  0.0534
  171SAPE   C2219334   0.366   1.226   6.227 -0.6629 -0.1265 -0.3325
  171SAPE   H2R19335   0.466   1.193   6.263 -0.9037 -0.6289 -0.1184
  171SAPE   H2S19336   0.382   1.301   6.147  0.0970 -0.5179 -0.5502
  171SAPE    C319337   0.320   0.791   6.222 -0.1161 -0.1060 -0.2115
  171SAPE    HX19338   0.284   0.692   6.187 -1.1067  0.3752 -0.5876
  171SAPE    HY19339   0.245   0.813   6.301 -1.0672 -0.4078 -1.0211
  171SAPE   O3119340   0.457   0.782   6.277 -0.1848 -0.2719 -0.2197
  171SAPE   C3119341   0.468   0.848   6.391 -0.5201  0.1096  0.4688
  171SAPE   O3219342   0.387   0.922   6.439 -0.5188  0.1193 -0.2449
  171SAPE   C3219343   0.606   0.812   6.443  0.3060 -0.0904  0.4102
  171SAPE   H2X19344   0.676   0.855   6.369  1.0288  0.6664  1.5113
  171SAPE   H2Y19345   0.623   0.702   6.447  0.6236 -0.0853 -0.7936
  171SAPE   C2319346   0.297   1.305   6.335  0.3497  0.4730 -0.0635
  171SAPE   H3R19347   0.191   1.333   6.317  0.4118  0.7803  0.0472
  171SAPE   H3S19348   0.351   1.402   6.344  2.5497 -0.6130 -1.0733
  171SAPE   C2419349   0.299   1.242   6.477  0.6068  0.3604  0.0347
  171SAPE   H4R19350   0.405   1.209   6.477  0.5064  0.0346  0.3822
  171SAPE   H4S19351   0.230   1.156   6.466 -0.2286  1.2447 -1.7706
  171SAPE   C2519352   0.259   1.331   6.595 -0.6888  0.5156 -0.2869
  171SAPE   H5R19353   0.150   1.340   6.607 -0.6271 -1.7642  2.5048
  171SAPE   C2619354   0.351   1.382   6.684 -0.2461 -0.4222  0.0163
  171SAPE   H6R19355   0.303   1.451   6.755  1.2581  1.3597 -0.6622
  171SAPE   C2719356   0.504   1.361   6.700 -0.0927  0.6738  0.2251
  171SAPE   H7R19357   0.566   1.449   6.726  0.4033  0.6004 -0.6699
  171SAPE   H7S19358   0.551   1.330   6.604  0.7141  1.1433  0.4676
  171SAPE   C2819359   0.541   1.252   6.805  0.2788  0.0411 -1.1416
  171SAPE   H8R19360   0.582   1.160   6.763 -0.3887 -0.6071 -0.3938
  171SAPE   C2919361   0.526   1.256   6.941 -0.5265 -1.1313 -0.0677
  171SAPE   H9R19362   0.541   1.160   6.994 -0.9230 -0.4013  1.3944
  171SAPE  C21019363   0.464   1.373   7.025 -0.6904  0.3511 -0.6189
  171SAPE  H10R19364   0.450   1.459   6.957 -3.5806  0.9706  0.6824
  171SAPE  H10S19365   0.541   1.411   7.096  0.6844 -0.7172 -1.5050
  171SAPE  C21119366   0.326   1.346   7.068 -0.4554 -0.0844 -1.5358
  171SAPE  H11R19367   0.258   1.294   6.999 -1.5540 -0.0880 -0.4744
  171SAPE  C21219368   0.268   1.398   7.178  0.1039  0.3658 -0.3125
  171SAPE  H12R19369   0.168   1.361   7.206  0.9308 -2.3515 -0.7826
  171SAPE  C21319370   0.324   1.485   7.281  0.1003 -0.6715  0.0526
  171SAPE  H13R19371   0.238   1.538   7.328  0.2193  0.7933 -1.3401
  171SAPE  H13S19372   0.387   1.568   7.242 -0.7648 -0.9207 -1.9228
  171SAPE  C21419373   0.402   1.401   7.386 -0.2694  0.5779  0.0340
  171SAPE  H14R19374   0.470   1.328   7.339 -0.2757 -0.3098  1.3739
  171SAPE  C21519375   0.389   1.391   7.521  0.0394 -0.6294 -0.0209
  171SAPE  H15R19376   0.457   1.318   7.566  0.8658  0.8227  1.1260
  171SAPE  C21619377   0.308   1.466   7.629  0.3685 -0.3533 -0.1707
  171SAPE  H16R19378   0.222   1.521   7.586  0.3530 -0.6903 -0.5723
  171SAPE  H16S19379   0.374   1.540   7.680 -1.7706 -1.2002  4.0692
  171SAPE  C21719380   0.251   1.386   7.751 -0.3721 -0.3539  0.3996
  171SAPE  H17R19381   0.221   1.458   7.830 -0.4291 -1.9750  1.8717
  171SAPE  H17S19382   0.330   1.319   7.791 -1.0852 -1.0128  0.7044
  171SAPE  C21819383   0.137   1.293   7.707  0.0694 -0.4371 -0.1882
  171SAPE  H18R19384   0.115   1.224   7.792  1.6974  0.9121  1.3613
  171SAPE  H18S19385   0.176   1.236   7.620 -0.0982  0.4450 -0.8413
  171SAPE  C21919386   0.008   1.365   7.660 -0.2182  0.7285  0.4640
  171SAPE  H19R19387   0.034   1.422   7.568 -0.7191 -2.9403 -2.0583
  171SAPE  H19S19388  -0.024   1.428   7.746  1.1702  1.0321  0.7703
  171SAPE  C22019389  -0.097   1.262   7.626 -0.0740 -0.0747 -0.0842
  171SAPE  H20R19390  -0.146   1.206   7.709  0.1611 -1.7321 -1.0308
  171SAPE  H20S19391  -0.052   1.192   7.551  0.8671  0.7865 -0.3314
  171SAPE  H20T19392  -0.180   1.317   7.578 -0.0821 -0.9979 -1.1501
  171SAPE   C3319393   0.632   0.876   6.581 -0.4386 -0.3344  0.0046
  171SAPE   H3X19394   0.607   0.984   6.569 -2.4144 -0.5609  1.7887
  171SAPE   H3Y19395   0.738   0.867   6.613 -0.3189 -1.3880 -0.6896
  171SAPE   C3419396   0.548   0.803   6.697  0.1833  0.2526  0.1870
  171SAPE   H4X19397   0.573   0.695   6.697 -1.3999 -0.1385 -0.7732
  171SAPE   H4Y19398   0.441   0.806   6.666  0.5784  1.5783 -1.0899
  171SAPE   C3519399   0.563   0.861   6.834  0.6472 -0.4972 -0.2635
  171SAPE   H5X19400   0.489   0.821   6.908  0.1622  2.6148  1.0111
  171SAPE   H5Y19401   0.532   0.966   6.818 -0.5816 -0.5998  1.3252
  171SAPE   C3619402   0.702   0.857   6.906 -0.4052  0.4223  0.3738
  171SAPE   H6X19403   0.720   0.944   6.973 -0.1749  0.3093  0.4599
  171SAPE   H6Y19404   0.775   0.862   6.822 -1.4756 -2.8118 -0.8216
  171SAPE   C3719405   0.744   0.727   6.986  0.9653 -0.0563 -0.5226
  171SAPE   H7X19406   0.849   0.745   7.018  0.1322  0.0021  2.3419
  171SAPE   H7Y19407   0.747   0.644   6.912  0.6433 -0.5209 -0.0204
  171SAPE   C3819408   0.654   0.704   7.111  0.1461  0.7241  0.3386
  171SAPE   H8X19409   0.548   0.705   7.078  0.0573 -2.3603  0.3844
  171SAPE   H8Y19410   0.669   0.781   7.190  2.7125 -0.9868  1.5886
  171SAPE   C3919411   0.680   0.570   7.175 -0.6825 -0.0375  0.2423
  171SAPE   H9X19412   0.785   0.569   7.212 -0.4393 -1.6546 -0.4566
  171SAPE   H9Y19413   0.672   0.501   7.089 -0.5078  0.6921 -0.3685
  171SAPE  C31019414   0.570   0.535   7.282 -0.7839  0.1949  0.1794
  171SAPE  H10X19415   0.547   0.427   7.271 -0.1874  0.1568 -0.7762
  171SAPE  H10Y19416   0.478   0.585   7.247 -0.4301  1.8682  1.5451
  171SAPE  C31119417   0.598   0.580   7.428  0.1484  0.4100  0.0799
  171SAPE  H11X19418   0.498   0.571   7.476 -0.2143  0.5956 -0.6223
  171SAPE  H11Y19419   0.637   0.683   7.418  2.9742 -0.8025 -2.0851
  171SAPE  C31219420   0.704   0.487   7.484 -0.4531 -0.2671  0.2960
  171SAPE  H12X19421   0.792   0.503   7.418  0.8777 -2.5583  1.4244
  171SAPE  H12Y19422   0.660   0.385   7.479  0.1850 -0.5977  1.2531
  171SAPE  C31319423   0.741   0.504   7.634  0.1587 -0.0983  0.1262
  171SAPE  H13X19424   0.822   0.428   7.640  0.1127 -0.2841 -1.5981
  171SAPE  H13Y19425   0.663   0.489   7.712 -0.3844 -1.0902 -0.6093
  171SAPE  C31419426   0.822   0.635   7.665 -0.1495  0.2764 -0.1106
  171SAPE  H14X19427   0.754   0.718   7.637  1.2795  1.7786  0.8207
  171SAPE  H14Y19428   0.916   0.633   7.606  0.1488 -1.4068  0.4002
  171SAPE  C31519429   0.852   0.652   7.814  0.9755 -0.6019  0.0190
  171SAPE  H15X19430   0.939   0.589   7.841  2.2697  0.7596 -0.8930
  171SAPE  H15Y19431   0.765   0.605   7.865  0.0755  0.7816 -0.2137
  171SAPE  C31619432   0.882   0.794   7.860 -0.0514  0.3264  0.3362
  171SAPE  H16X19433   0.922   0.797   7.963 -0.8138  0.4151  0.6304
  171SAPE  H16Y19434   0.782   0.843   7.862 -0.8980 -1.4384  2.0715
  171SAPE  C31719435   0.991   0.866   7.783 -0.2111 -0.1441 -0.0442
  171SAPE  H17X19436   0.965   0.864   7.675 -1.8641 -1.8172  0.3669
  171SAPE  H17Y19437   1.086   0.809   7.789 -0.7404 -0.7872  3.3753
  171SAPE  C31819438   1.026   1.003   7.847  0.9092 -0.3283  0.3474
  171SAPE  H18X19439   0.949   1.080   7.826 -0.1838 -1.5514 -0.1241
  171SAPE  H18Y19440   1.121   1.041   7.802  0.7273 -0.8315 -0.4610
  171SAPE  H18Z19441   1.029   0.992   7.958 -0.7277  1.8969  0.6465
  172SAPE     N19442   6.998   7.088   5.471  0.4023 -0.2833 -0.3179
  172SAPE   HN119443   7.009   7.024   5.390  0.8835  1.2611 -1.4720
  172SAPE   HN219444   6.900   7.092   5.505  0.9144  0.7309  1.0946
  172SAPE   HN319445   7.016   7.186   5.443 -0.3353 -0.0145  0.1314
  172SAPE   C1219446   7.077   7.048   5.589 -0.3601 -0.5347  0.3385
  172SAPE  H12A19447   7.082   7.120   5.673  3.3268  2.5139 -2.3113
  172SAPE  H12B19448   7.183   7.054   5.557 -1.0014  4.3123 -1.2843
  172SAPE   C1119449   7.035   6.907   5.648 -0.3592  0.2297 -0.0554
  172SAPE  H11A19450   7.049   6.831   5.569  1.4975  1.8701 -1.3490
  172SAPE  H11B19451   6.926   6.908   5.671 -0.4431  2.1509 -0.4155
  172SAPE     P19452   7.189   6.753   5.789  0.5584 -0.0249  0.0595
  172SAPE   O1319453   7.137   6.648   5.697 -0.4599  0.4477 -0.3295
  172SAPE   O1419454   7.335   6.783   5.773 -0.0563  0.0264  0.1001
  172SAPE   O1219455   7.108   6.893   5.765  0.5057 -0.0915  0.3225
  172SAPE   O1119456   7.161   6.704   5.939 -0.3496 -0.9209  0.6958
  172SAPE    C119457   7.111   6.789   6.047 -0.5894  0.6468  0.0531
  172SAPE    HA19458   7.027   6.855   6.017 -0.7486 -0.1192 -1.2136
  172SAPE    HB19459   7.072   6.734   6.135 -1.1391  1.1107  0.1028
  172SAPE    C219460   7.225   6.883   6.108  0.2201 -0.8218  0.0480
  172SAPE    HS19461   7.250   6.948   6.022 -0.0807 -1.2192 -0.3382
  172SAPE   O2119462   7.338   6.806   6.155 -0.2616  0.3388  0.2130
  172SAPE   C2119463   7.448   6.877   6.145 -0.2527  0.4194  0.2213
  172SAPE   O2219464   7.472   6.971   6.076  0.7175  0.2475 -0.0380
  172SAPE   C2219465   7.550   6.816   6.242 -0.3244 -0.0964  0.1160
  172SAPE   H2R19466   7.557   6.893   6.322  1.2609 -1.0828  0.9302
  172SAPE   H2S19467   7.514   6.725   6.293  0.0790 -0.5615 -0.4267
  172SAPE    C319468   7.160   6.957   6.230 -0.2063 -0.3851  0.0765
  172SAPE    HX19469   7.070   7.015   6.199 -1.5836 -2.0715  0.8144
  172SAPE    HY19470   7.233   7.034   6.262 -0.6192  0.1801 -0.3325
  172SAPE   O3119471   7.121   6.863   6.333 -0.4357  0.0118 -0.4778
  172SAPE   C3119472   7.185   6.863   6.447 -0.0530  0.3651  0.0570
  172SAPE   O3219473   7.275   6.946   6.471 -0.2678 -0.4488 -0.1045
  172SAPE   C3219474   7.138   6.741   6.530  0.4998  0.4525 -0.5231
  172SAPE   H2X19475   7.098   6.658   6.468  0.5094 -0.3464  0.5310
  172SAPE   H2Y19476   7.067   6.788   6.602  0.8197 -2.2908  1.6572
  172SAPE   C2319477   7.689   6.794   6.180 -0.1865  0.4301  0.5671
  172SAPE   H3R19478   7.736   6.895   6.171  1.0599 -0.1418  0.5365
  172SAPE   H3S19479   7.684   6.746   6.081  1.3774  0.2481  0.5559
  172SAPE   C2419480   7.773   6.708   6.274  0.0850 -0.3383  0.7837
  172SAPE   H4R19481   7.867   6.676   6.224 -0.9051  1.5647 -2.4766
  172SAPE   H4S19482   7.722   6.615   6.306  1.9686 -2.3140 -1.8178
  172SAPE   C2519483   7.810   6.788   6.401  0.3813  0.3005  0.2119
  172SAPE   H5R19484   7.869   6.880   6.386  0.5269 -0.1434 -2.1606
  172SAPE   C2619485   7.772   6.763   6.531 -0.1900 -0.0369 -0.1653
  172SAPE   H6R19486   7.802   6.828   6.615  1.2076  0.5434 -1.0976
  172SAPE   C2719487   7.698   6.635   6.572 -0.5561 -0.5594  0.0532
  172SAPE   H7R19488   7.769   6.555   6.598  1.6206  0.8904 -1.2692
  172SAPE   H7S19489   7.634   6.595   6.491 -2.7828 -0.9829  1.9437
  172SAPE   C2819490   7.598   6.664   6.686 -0.7028  0.0037  0.2464
  172SAPE   H8R19491   7.512   6.728   6.662 -2.7294 -1.9940  2.0078
  172SAPE   C2919492   7.614   6.621   6.808 -0.6126  0.1729  0.2455
  172SAPE   H9R19493   7.540   6.642   6.886 -0.5752  3.2971 -0.5016
  172SAPE  C21019494   7.728   6.538   6.859  0.1205  0.4324  0.0945
  172SAPE  H10R19495   7.827   6.561   6.815 -0.7129 -1.0183 -2.6363
  172SAPE  H10S19496   7.709   6.439   6.812  0.1171 -0.0559  1.1146
  172SAPE  C21119497   7.724   6.521   7.008  0.1182 -0.4552 -1.6012
  172SAPE  H11R19498   7.773   6.608   7.055 -0.8432  0.0033 -1.4237
  172SAPE  C21219499   7.652   6.434   7.084  0.4072 -0.3524  0.2154
  172SAPE  H12R19500   7.657   6.418   7.193 -0.7655 -0.8400  0.2032
  172SAPE  C21319501   7.567   6.322   7.035 -0.5280  0.5169 -0.3262
  172SAPE  H13R19502   7.493   6.361   6.962 -0.9687  0.7129  0.2237
  172SAPE  H13S19503   7.502   6.293   7.121 -0.0367  0.2627 -0.0342
  172SAPE  C21419504   7.625   6.198   6.971 -0.4981 -0.3110  0.0215
  172SAPE  H14R19505   7.702   6.143   7.027 -0.7192 -0.6622 -0.0184
  172SAPE  C21519506   7.599   6.158   6.843  0.7863  0.6858  1.0334
  172SAPE  H15R19507   7.652   6.066   6.814  0.7800  0.6204  1.2316
  172SAPE  C21619508   7.514   6.218   6.737  0.2950 -1.0583  1.0825
  172SAPE  H16R19509   7.457   6.306   6.773  0.3556 -0.2708 -0.7063
  172SAPE  H16S19510   7.442   6.144   6.695  0.6207 -0.8464  0.1519
  172SAPE  C21719511   7.598   6.260   6.619 -0.1395 -0.3221 -0.4941
  172SAPE  H17R19512   7.656   6.170   6.590  1.5191  0.2920  0.8081
  172SAPE  H17S19513   7.666   6.344   6.645 -0.6532  0.4583 -1.6154
  172SAPE  C21819514   7.521   6.303   6.497 -0.4618  0.0446 -1.1409
  172SAPE  H18R19515   7.464   6.393   6.527 -2.2934 -1.9404  1.4308
  172SAPE  H18S19516   7.444   6.225   6.479 -0.4486  0.1846 -1.8338
  172SAPE  C21919517   7.618   6.321   6.381  0.4438  0.4126 -0.2371
  172SAPE  H19R19518   7.677   6.228   6.366  0.3638 -0.2383  3.1049
  172SAPE  H19S19519   7.693   6.398   6.407  1.1218 -0.6809  1.0918
  172SAPE  C22019520   7.546   6.345   6.252  0.0127 -0.7050 -0.2624
  172SAPE  H20R19521   7.443   6.305   6.267 -0.1341  0.0349  0.8030
  172SAPE  H20S19522   7.600   6.294   6.170  1.8411  1.0966 -0.2300
  172SAPE  H20T19523   7.519   6.451   6.232  1.8359 -0.3353 -0.7751
  172SAPE   C3319524   7.247   6.683   6.623 -0.5288  0.3968  0.3239
  172SAPE   H3X19525   7.266   6.759   6.701 -2.4465  1.7566 -0.5025
  172SAPE   H3Y19526   7.341   6.673   6.565 -0.7010  1.9081 -0.2353
  172SAPE   C3419527   7.229   6.541   6.685 -0.3644 -0.3510 -0.4500
  172SAPE   H4X19528   7.329   6.501   6.713 -1.0460 -1.0253  1.0439
  172SAPE   H4Y19529   7.181   6.488   6.600  0.4936 -0.0883 -1.1121
  172SAPE   C3519530   7.125   6.527   6.796  0.2576  0.3552 -0.3665
  172SAPE   H5X19531   7.086   6.424   6.812 -0.4877  0.7802  0.5997
  172SAPE   H5Y19532   7.030   6.581   6.777 -0.3397  0.4285  2.5604
  172SAPE   C3619533   7.166   6.570   6.934 -0.6521 -0.7580  0.1631
  172SAPE   H6X19534   7.187   6.678   6.928  1.7207 -1.2001  0.2660
  172SAPE   H6Y19535   7.261   6.517   6.956  1.0558  1.0960 -2.5521
  172SAPE   C3719536   7.067   6.543   7.048 -0.2255  0.0641  0.7675
  172SAPE   H7X19537   7.106   6.535   7.152  1.6267 -2.4279 -0.0506
  172SAPE   H7Y19538   7.015   6.446   7.030  2.1944 -1.1143 -0.1621
  172SAPE   C3819539   6.958   6.654   7.060  0.5828 -0.0740  0.5928
  172SAPE   H8X19540   6.907   6.659   6.962 -0.4036 -1.5508  1.0136
  172SAPE   H8Y19541   6.998   6.755   7.085 -1.7286  0.9539  0.1611
  172SAPE   C3919542   6.867   6.620   7.179 -0.0665  0.1103  0.3396
  172SAPE   H9X19543   6.928   6.631   7.271  1.1122  2.1116 -0.6542
  172SAPE   H9Y19544   6.837   6.513   7.172  0.5027  0.0546 -1.6220
  172SAPE  C31019545   6.743   6.706   7.195 -0.3925 -0.1446  0.0278
  172SAPE  H10X19546   6.667   6.648   7.252 -1.1649  3.0260  2.4060
  172SAPE  H10Y19547   6.704   6.724   7.093  1.0940  1.0556 -0.3509
  172SAPE  C31119548   6.772   6.846   7.260  0.4886 -0.4777  0.1788
  172SAPE  H11X19549   6.839   6.829   7.347  0.1815  0.9823  0.7089
  172SAPE  H11Y19550   6.667   6.875   7.281  1.3526  3.4032 -0.4371
  172SAPE  C31219551   6.825   6.958   7.173 -0.1032 -0.2906 -0.6258
  172SAPE  H12X19552   6.783   6.939   7.072  0.1546  1.0367 -0.9974
  172SAPE  H12Y19553   6.935   6.953   7.161  0.0203  2.2681 -0.9077
  172SAPE  C31319554   6.799   7.098   7.228 -0.0068 -0.3891  0.0722
  172SAPE  H13X19555   6.702   7.135   7.190  1.0114  0.7074 -1.5090
  172SAPE  H13Y19556   6.866   7.175   7.185 -3.2961  1.9353 -1.0375
  172SAPE  C31419557   6.821   7.101   7.380 -0.0030 -0.2118  0.3949
  172SAPE  H14X19558   6.920   7.059   7.405 -0.5154 -1.0492  1.0649
  172SAPE  H14Y19559   6.731   7.053   7.425  0.3112 -2.0539 -0.8660
  172SAPE  C31519560   6.816   7.246   7.432  0.2337 -0.5624  0.0638
  172SAPE  H15X19561   6.822   7.242   7.543  0.3443 -0.5593  0.0578
  172SAPE  H15Y19562   6.720   7.297   7.409 -0.0527 -1.5274 -0.9147
  172SAPE  C31619563   6.930   7.332   7.378 -0.0480 -0.0676 -0.2931
  172SAPE  H16X19564   6.936   7.353   7.269  0.2090  0.4893 -0.1786
  172SAPE  H16Y19565   7.028   7.284   7.396 -0.6905 -2.3504 -2.6572
  172SAPE  C31719566   6.942   7.468   7.461  0.8511  0.1709 -0.3281
  172SAPE  H17X19567   7.047   7.505   7.463  0.8901  0.0475 -0.0761
  172SAPE  H17Y19568   6.904   7.457   7.565  0.1657 -0.2484 -0.6259
  172SAPE  C31819569   6.850   7.567   7.390  0.2542 -0.7359  0.7926
  172SAPE  H18X19570   6.743   7.543   7.378  0.1755 -1.1169  2.2375
  172SAPE  H18Y19571   6.908   7.583   7.296 -1.3634  1.2285  0.0847
  172SAPE  H18Z19572   6.861   7.665   7.441 -1.5575  0.8126 -1.6692
  173SOPE     N19573   3.932   4.837  10.109  0.1648  0.3407  0.1377
  173SOPE   HN119574   3.987   4.902  10.050 -1.4043  1.4736 -0.1399
  173SOPE   HN219575   3.856   4.894  10.152 -1.0177 -1.4256  0.4438
  173SOPE   HN319576   3.988   4.787  10.181 -1.3195 -0.4514  0.7895
  173SOPE   C1219577   3.870   4.730  10.022 -0.5563 -0.7129 -1.3368
  173SOPE  H12A19578   3.779   4.705  10.081  0.0332  0.9291  0.3161
  173SOPE  H12B19579   3.942   4.644  10.020 -1.0245 -1.3015  2.8646
  173SOPE   C1119580   3.832   4.780   9.885 -0.5247  0.2293 -0.1533
  173SOPE  H11A19581   3.787   4.702   9.819 -2.3319  1.2582 -0.1460
  173SOPE  H11B19582   3.933   4.801   9.844  0.5046 -0.2105  2.0827
  173SOPE     P19583   3.593   4.882   9.927  0.1434 -0.3179 -0.2286
  173SOPE   O1319584   3.577   4.943  10.065 -0.2946 -0.3507 -0.2301
  173SOPE   O1419585   3.557   4.736   9.910  0.3537 -0.3942  0.0983
  173SOPE   O1219586   3.747   4.893   9.893  0.4258 -0.1347  0.1793
  173SOPE   O1119587   3.523   4.965   9.817  0.3678 -0.1401  0.3585
  173SOPE    C119588   3.546   5.101   9.799 -0.2954  0.0090  0.1235
  173SOPE    HA19589   3.624   5.134   9.871 -2.0902  1.4904  1.4087
  173SOPE    HB19590   3.456   5.160   9.827 -0.1452 -0.3914  1.5016
  173SOPE    C219591   3.601   5.142   9.660  0.2257  0.2533  0.2106
  173SOPE    HS19592   3.611   5.253   9.659  1.1653  0.1852  1.1689
  173SOPE   O2119593   3.499   5.100   9.560  0.1567 -0.2977  0.0747
  173SOPE   C2119594   3.497   5.177   9.454 -0.3634  0.4598 -0.2173
  173SOPE   O2219595   3.578   5.267   9.433 -0.6556  0.3530  0.3458
  173SOPE   C2219596   3.392   5.130   9.362 -0.4310  0.1646 -0.1422
  173SOPE   H2R19597   3.294   5.131   9.414  0.0903  2.0692  0.8633
  173SOPE   H2S19598   3.413   5.025   9.332  0.5529  0.4797 -0.5761
  173SOPE    C319599   3.746   5.083   9.630 -0.3471 -0.0659  0.1462
  173SOPE    HX19600   3.742   4.973   9.643  1.4159 -0.1094  0.4910
  173SOPE    HY19601   3.812   5.137   9.702 -0.7982  0.8218 -0.0945
  173SOPE   O3119602   3.796   5.111   9.501  0.1144  0.2811 -0.3759
  173SOPE   C3119603   3.783   5.020   9.405 -0.2145 -0.1160  0.6785
  173SOPE   O3219604   3.725   4.914   9.415  0.2553  0.2261  0.2201
  173SOPE   C3219605   3.844   5.066   9.277 -0.0280  0.4044 -0.0260
  173SOPE   H2X19606   3.943   5.109   9.303 -0.4545  0.6348  1.2451
  173SOPE   H2Y19607   3.771   5.137   9.233 -1.0337 -0.5416  0.0933
  173SOPE   C2319608   3.374   5.207   9.233  0.5004 -0.2906  0.3535
  173SOPE   H3R19609   3.464   5.207   9.168  0.0843  1.1456 -0.2353
  173SOPE   H3S19610   3.333   5.309   9.249 -1.2696 -1.2745  2.2920
  173SOPE   C2419611   3.277   5.137   9.135  0.3072 -0.1112 -0.2507
  173SOPE   H4R19612   3.306   5.030   9.126 -0.5260 -0.3346 -0.3400
  173SOPE   H4S19613   3.172   5.146   9.168  0.3494 -0.1505 -0.1081
  173SOPE   C2519614   3.275   5.215   9.004  0.3204 -0.5372 -0.2143
  173SOPE   H5R19615   3.233   5.318   9.010 -2.3242 -1.4460 -2.0855
  173SOPE   H5S19616   3.377   5.226   8.960 -0.2249  0.7657 -1.1970
  173SOPE   C2619617   3.193   5.137   8.896 -0.1528 -0.6523  0.1756
  173SOPE   H6R19618   3.226   5.033   8.878  1.0234  0.0036 -1.6225
  173SOPE   H6S19619   3.087   5.129   8.929  0.7565 -0.0775  3.4301
  173SOPE   C2719620   3.201   5.202   8.759 -0.4025 -0.2285  0.6190
  173SOPE   H7R19621   3.164   5.306   8.761  0.4585  0.1069 -0.4810
  173SOPE   H7S19622   3.310   5.221   8.746 -0.9158  3.2012  1.0480
  173SOPE   C2819623   3.143   5.125   8.648 -0.3189  0.0410  0.1532
  173SOPE   H8R19624   3.182   5.171   8.555  0.0212 -0.9115 -0.1883
  173SOPE   H8S19625   3.174   5.018   8.646  0.4838  0.2684  0.0346
  173SOPE   C2919626   2.995   5.119   8.647  0.0610 -0.0426 -0.0492
  173SOPE   H9119627   2.950   5.076   8.738  0.4269 -1.8494 -0.6964
  173SOPE  C21019628   2.915   5.161   8.547  0.1061  0.0168  0.2247
  173SOPE  H10119629   2.807   5.153   8.566 -0.3012  2.8390 -0.5887
  173SOPE  C21119630   2.946   5.229   8.414 -0.4960  0.4414  0.5324
  173SOPE  H11R19631   3.043   5.283   8.410  0.1264 -0.7694 -1.7799
  173SOPE  H11S19632   2.864   5.299   8.388 -1.3434 -0.2640  1.3150
  173SOPE  C21219633   2.952   5.124   8.295 -0.1074  0.1355 -0.5386
  173SOPE  H12R19634   2.852   5.076   8.301  0.3041 -0.8992 -1.7798
  173SOPE  H12S19635   3.027   5.046   8.321  0.5805  0.4871 -1.4207
  173SOPE  C21319636   2.980   5.190   8.160 -0.3745  0.3269 -0.2791
  173SOPE  H13R19637   3.089   5.208   8.165 -0.3229 -0.5186  2.0445
  173SOPE  H13S19638   2.927   5.287   8.156  0.5544  0.8500  0.0222
  173SOPE  C21419639   2.953   5.103   8.040  0.0124 -0.4347 -0.5689
  173SOPE  H14R19640   2.848   5.067   8.037 -1.1797  2.3953  3.0725
  173SOPE  H14S19641   3.027   5.020   8.049 -0.7247 -0.8245  2.1480
  173SOPE  C21519642   2.995   5.176   7.911 -0.0115 -0.0945 -0.0045
  173SOPE  H15R19643   3.099   5.215   7.911  1.0289 -2.6575  3.0638
  173SOPE  H15S19644   2.937   5.271   7.919 -1.4848 -0.8181 -1.6246
  173SOPE  C21619645   2.965   5.112   7.773  0.0848  0.2075 -0.3450
  173SOPE  H16R19646   2.990   5.191   7.699 -2.2268  1.2049 -0.0736
  173SOPE  H16S19647   2.857   5.085   7.769 -0.0423  0.1827  2.3430
  173SOPE  C21719648   3.053   4.985   7.748  1.1729 -0.4405 -0.2714
  173SOPE  H17R19649   3.020   4.946   7.650 -2.1717 -0.5960  0.8618
  173SOPE  H17S19650   3.034   4.904   7.822  3.5100 -1.4013 -0.6577
  173SOPE  C21819651   3.205   5.013   7.755 -0.9976 -0.7302 -0.3334
  173SOPE  H18R19652   3.272   4.924   7.754  3.3815  2.3965 -1.7003
  173SOPE  H18S19653   3.220   5.055   7.857 -2.5055 -1.5726  0.2498
  173SOPE  H18T19654   3.234   5.070   7.665  2.3690 -0.3788  0.9161
  173SOPE   C3319655   3.866   4.948   9.175 -0.4770  0.5356 -0.1378
  173SOPE   H3X19656   3.905   4.860   9.230  2.0253  2.3123  1.0550
  173SOPE   H3Y19657   3.935   4.987   9.097 -0.6065 -0.3474 -0.6957
  173SOPE   C3419658   3.747   4.921   9.083 -0.4838  0.0825  0.1870
  173SOPE   H4X19659   3.680   5.005   9.057 -1.9901 -0.9676  0.5570
  173SOPE   H4Y19660   3.687   4.835   9.120  0.8049 -0.2842  1.4938
  173SOPE   C3519661   3.793   4.880   8.939  0.1139 -0.0597  0.3595
  173SOPE   H5X19662   3.863   4.794   8.950  0.8246  0.4624 -0.0296
  173SOPE   H5Y19663   3.852   4.953   8.880 -1.5104  0.4149 -0.7107
  173SOPE   C3619664   3.668   4.839   8.860  0.4097 -0.1824  0.4483
  173SOPE   H6X19665   3.631   4.941   8.835 -1.0028 -0.4471  1.4174
  173SOPE   H6Y19666   3.592   4.791   8.925  0.0032  0.3419  0.3670
  173SOPE   C3719667   3.688   4.753   8.734  0.7655  0.3904  0.2492
  173SOPE   H7X19668   3.720   4.649   8.759  0.8813  0.5080  0.6013
  173SOPE   H7Y19669   3.769   4.796   8.673  0.8529 -1.1355 -0.7422
  173SOPE   C3819670   3.558   4.744   8.653  0.4140  0.2504  0.3964
  173SOPE   H8X19671   3.522   4.845   8.622 -1.6962 -0.2588  1.1366
  173SOPE   H8Y19672   3.483   4.698   8.721 -0.7085 -0.3203 -1.2011
  173SOPE   C3919673   3.575   4.670   8.523  0.3619  0.2152  0.2926
  173SOPE   H9X19674   3.606   4.566   8.550 -0.1540 -0.4924 -1.7627
  173SOPE   H9Y19675   3.667   4.715   8.479  0.2314 -1.5062 -1.8433
  173SOPE  C31019676   3.461   4.666   8.424 -0.0784  0.9114 -0.0659
  173SOPE  H10X19677   3.455   4.590   8.343 -0.7740  1.7645 -0.8224
  173SOPE  H10Y19678   3.443   4.766   8.381 -1.7450  1.1319  1.1050
  173SOPE  C31119679   3.329   4.654   8.498 -0.0233  1.0216  0.0520
  173SOPE  H11X19680   3.296   4.751   8.541 -1.5673  0.2843  0.5470
  173SOPE  H11Y19681   3.349   4.585   8.582 -0.7672 -0.8765 -1.2908
  173SOPE  C31219682   3.212   4.591   8.411  1.0021 -0.2337 -0.2889
  173SOPE  H12X19683   3.247   4.510   8.344 -1.0505  0.8914 -2.8183
  173SOPE  H12Y19684   3.176   4.669   8.340  1.3276 -0.1818 -0.3962
  173SOPE  C31319685   3.096   4.547   8.502  0.6711  0.4326  0.3401
  173SOPE  H13X19686   3.086   4.638   8.566 -1.3443  0.9924 -0.7264
  173SOPE  H13Y19687   3.120   4.457   8.562  0.8219  0.9673  1.0864
  173SOPE  C31419688   2.963   4.537   8.425  0.2352 -0.3825  0.9066
  173SOPE  H14X19689   2.976   4.486   8.327  1.0987  0.5461  0.5242
  173SOPE  H14Y19690   2.922   4.640   8.416  0.4496 -0.2462  1.4604
  173SOPE  C31519691   2.843   4.465   8.488 -0.7270  0.1109  0.3089
  173SOPE  H15X19692   2.862   4.357   8.475 -1.5818 -0.0621  0.4909
  173SOPE  H15Y19693   2.755   4.472   8.420 -0.4935  1.6081  0.1272
  173SOPE  C31619694   2.809   4.519   8.629  0.4660 -0.9212 -0.4208
  173SOPE  H16X19695   2.759   4.615   8.603  0.0783 -0.5184  1.6428
  173SOPE  H16Y19696   2.900   4.547   8.687 -0.8809  2.2249  0.2862
  173SOPE  C31719697   2.720   4.418   8.712 -0.1941  0.0388 -0.2858
  173SOPE  H17X19698   2.787   4.332   8.728  1.2275  0.9483 -1.2202
  173SOPE  H17Y19699   2.641   4.394   8.638 -0.9779  1.2439  0.1414
  173SOPE  C31819700   2.664   4.482   8.835  1.0833 -1.0187 -0.0106
  173SOPE  H18X19701   2.622   4.583   8.814  0.3522 -1.2575  0.2704
  173SOPE  H18Y19702   2.748   4.493   8.907  1.4873 -0.5917 -0.5421
  173SOPE  H18Z19703   2.572   4.425   8.861  1.1024 -0.4754  1.3170
  174SOPE     N19704   5.101   3.653   9.752  0.7749  0.3072 -1.1143
  174SOPE   HN119705   5.117   3.585   9.829  0.1148  1.9281  0.4723
  174SOPE   HN219706   5.013   3.632   9.702  1.3753 -1.5116 -1.4537
  174SOPE   HN319707   5.175   3.645   9.680  1.4996 -1.8481 -0.1542
  174SOPE   C1219708   5.080   3.794   9.790  0.1939 -0.0236  0.0168
  174SOPE  H12A19709   5.117   3.853   9.704  2.4684 -4.1310 -1.9564
  174SOPE  H12B19710   5.149   3.815   9.875  0.1104  1.1233 -0.1838
  174SOPE   C1119711   4.936   3.812   9.836 -0.6127 -0.2297 -0.9951
  174SOPE  H11A19712   4.924   3.910   9.888  2.1116 -0.3875  0.0406
  174SOPE  H11B19713   4.897   3.750   9.919  0.9601 -0.1014 -0.1210
  174SOPE     P19714   4.702   3.855   9.739 -0.0838 -0.0513  0.2458
  174SOPE   O1319715   4.659   3.852   9.882 -0.2023 -0.5231  0.1644
  174SOPE   O1419716   4.615   3.775   9.651  0.0031  0.0530  0.2642
  174SOPE   O1219717   4.853   3.806   9.724 -0.2543  0.5256 -0.0407
  174SOPE   O1119718   4.697   4.004   9.697  0.4387  0.0925  0.2898
  174SOPE    C119719   4.810   4.085   9.656  0.8368 -0.3203  0.1148
  174SOPE    HA19720   4.910   4.039   9.674 -0.0052 -1.8953  0.8476
  174SOPE    HB19721   4.813   4.186   9.703  0.9814 -1.0547  1.6851
  174SOPE    C219722   4.805   4.110   9.501 -1.0710 -1.0255  0.2408
  174SOPE    HS19723   4.698   4.134   9.483 -0.5676  0.1140 -1.4923
  174SOPE   O2119724   4.846   3.991   9.435  0.4966  0.2339 -0.6210
  174SOPE   C2119725   4.744   3.926   9.373 -0.4331 -0.1863  0.3215
  174SOPE   O2219726   4.637   3.974   9.343  0.3509  0.4275  0.6785
  174SOPE   C2219727   4.787   3.781   9.348 -0.0879  1.4111 -0.3323
  174SOPE   H2R19728   4.848   3.750   9.435 -2.1708 -0.1706  0.6125
  174SOPE   H2S19729   4.843   3.778   9.252  2.0235 -0.1224  0.9263
  174SOPE    C319730   4.906   4.231   9.463  0.0784  0.9348 -0.0969
  174SOPE    HX19731   5.006   4.205   9.506  0.9046 -1.3893 -3.1956
  174SOPE    HY19732   4.881   4.325   9.516  1.5724  0.4272  1.5643
  174SOPE   O3119733   4.910   4.252   9.323 -0.4299  0.2803 -0.7704
  174SOPE   C3119734   4.995   4.348   9.277  0.4092 -0.2390  0.5067
  174SOPE   O3219735   5.076   4.403   9.351 -0.3910  0.2135  0.3933
  174SOPE   C3219736   4.968   4.382   9.135  0.0305 -0.2207  0.3244
  174SOPE   H2X19737   4.874   4.441   9.128  0.2333  0.0907  0.2103
  174SOPE   H2Y19738   4.968   4.288   9.075  0.3178  0.2410 -0.4082
  174SOPE   C2319739   4.662   3.687   9.337 -0.8219 -0.4348 -0.1533
  174SOPE   H3R19740   4.583   3.709   9.413 -1.6905 -0.6398 -0.9879
  174SOPE   H3S19741   4.706   3.587   9.353  3.9939  1.2647 -1.8949
  174SOPE   C2419742   4.599   3.682   9.199  0.2623  0.0016  1.2175
  174SOPE   H4R19743   4.511   3.615   9.206 -0.6181  0.6757 -2.6423
  174SOPE   H4S19744   4.561   3.783   9.175 -1.7940 -1.1188 -0.4396
  174SOPE   C2519745   4.691   3.625   9.086  0.0454  0.7175 -0.6661
  174SOPE   H5R19746   4.777   3.693   9.071 -0.0793  0.3432 -3.3582
  174SOPE   H5S19747   4.713   3.519   9.111 -0.2845  0.7791 -0.1101
  174SOPE   C2619748   4.612   3.613   8.955 -0.6642 -0.0002  0.7576
  174SOPE   H6R19749   4.663   3.546   8.883  0.2933  1.6499 -0.1203
  174SOPE   H6S19750   4.511   3.567   8.964 -0.6791 -0.3008 -0.8115
  174SOPE   C2719751   4.605   3.750   8.888  0.1500 -0.1356 -0.2536
  174SOPE   H7R19752   4.538   3.812   8.951 -0.0858 -0.1684 -0.4711
  174SOPE   H7S19753   4.709   3.790   8.883  0.5637 -1.1662 -0.2186
  174SOPE   C2819754   4.544   3.740   8.745 -0.1012 -0.3097 -0.3015
  174SOPE   H8R19755   4.616   3.681   8.685  0.7069  0.7747 -0.4247
  174SOPE   H8S19756   4.448   3.685   8.749 -0.4428  0.3026 -0.0507
  174SOPE   C2919757   4.522   3.882   8.678 -0.3555 -0.1288  0.2179
  174SOPE   H9119758   4.479   3.963   8.739  0.8528  1.5128 -1.0435
  174SOPE  C21019759   4.569   3.920   8.560 -0.4337 -0.2823 -0.4991
  174SOPE  H10119760   4.534   4.017   8.522 -0.3295  0.1898  0.5957
  174SOPE  C21119761   4.658   3.852   8.463 -0.2282 -0.1809  0.0993
  174SOPE  H11R19762   4.694   3.755   8.501 -4.1400 -0.1523  4.3395
  174SOPE  H11S19763   4.751   3.912   8.453 -0.8102  0.5547 -1.1110
  174SOPE  C21219764   4.606   3.823   8.319  0.1166  0.7936 -0.6775
  174SOPE  H12R19765   4.544   3.731   8.325 -0.6357  1.2755 -1.0867
  174SOPE  H12S19766   4.693   3.801   8.252  0.4203 -3.3592  0.9527
  174SOPE  C21319767   4.544   3.955   8.259 -1.1145  0.1940 -0.1365
  174SOPE  H13R19768   4.608   4.044   8.277  1.2292 -0.9240 -2.5996
  174SOPE  H13S19769   4.450   3.964   8.317 -0.4730  0.2500  0.9179
  174SOPE  C21419770   4.518   3.939   8.110 -0.0837 -0.0634 -0.1503
  174SOPE  H14R19771   4.609   3.914   8.052 -0.3000 -1.5873  0.1589
  174SOPE  H14S19772   4.489   4.040   8.074  0.5340  0.4133  0.6811
  174SOPE  C21519773   4.402   3.831   8.090 -0.0586 -0.1088  0.4176
  174SOPE  H15R19774   4.343   3.833   8.184  0.4592 -0.2277  0.7500
  174SOPE  H15S19775   4.442   3.728   8.086  0.8571  0.2748 -1.0710
  174SOPE  C21619776   4.309   3.854   7.966 -0.3367  1.5991  0.8678
  174SOPE  H16R19777   4.259   3.951   7.986 -0.6140  1.0318  3.0864
  174SOPE  H16S19778   4.230   3.776   7.970  1.3182 -0.0462  2.6811
  174SOPE  C21719779   4.388   3.836   7.843 -0.3888  0.1278 -0.5783
  174SOPE  H17R19780   4.428   3.733   7.832 -1.6763 -0.4243 -0.2188
  174SOPE  H17S19781   4.476   3.905   7.847  0.2113 -0.6988  1.4111
  174SOPE  C21819782   4.306   3.884   7.720  0.3717  0.4675  0.7596
  174SOPE  H18R19783   4.206   3.837   7.714  0.6581 -0.4769  2.9235
  174SOPE  H18S19784   4.370   3.851   7.636  0.5452 -1.1313  1.5002
  174SOPE  H18T19785   4.295   3.995   7.726  2.3168  0.6049  2.3997
  174SOPE   C3319786   5.082   4.471   9.081  0.2904  0.1787  0.4464
  174SOPE   H3X19787   5.178   4.416   9.087  0.4750  0.4106 -0.2649
  174SOPE   H3Y19788   5.101   4.556   9.149 -1.7920  0.6744  0.4594
  174SOPE   C3419789   5.056   4.528   8.941 -0.6165  0.2130  0.3193
  174SOPE   H4X19790   5.032   4.634   8.964 -0.5220  0.4607 -0.7036
  174SOPE   H4Y19791   4.974   4.472   8.891  0.8864 -1.1231 -0.6700
  174SOPE   C3519792   5.175   4.537   8.842 -0.4735 -0.3669  0.4620
  174SOPE   H5X19793   5.211   4.434   8.819 -0.5479 -0.3818  0.4143
  174SOPE   H5Y19794   5.261   4.588   8.891  0.6165 -0.9877 -0.7878
  174SOPE   C3619795   5.144   4.612   8.717 -0.2544  0.7294 -0.5690
  174SOPE   H6X19796   5.118   4.718   8.736 -2.0638  0.4193 -1.2050
  174SOPE   H6Y19797   5.055   4.566   8.669  0.0860 -1.0879  0.4697
  174SOPE   C3719798   5.265   4.609   8.627 -0.3805 -0.6276 -0.1977
  174SOPE   H7X19799   5.313   4.510   8.637 -1.1521 -1.0072 -0.2287
  174SOPE   H7Y19800   5.326   4.684   8.682 -1.0854  0.5095 -0.9228
  174SOPE   C3819801   5.224   4.659   8.484  0.2942 -0.3073 -0.0096
  174SOPE   H8X19802   5.158   4.747   8.498  0.7318  0.1981 -1.0853
  174SOPE   H8Y19803   5.169   4.568   8.450  1.3201 -0.1225 -2.2394
  174SOPE   C3919804   5.336   4.692   8.389  0.7175  0.2223  0.2678
  174SOPE   H9X19805   5.330   4.632   8.295 -2.7072  0.6278  0.1708
  174SOPE   H9Y19806   5.431   4.660   8.436  1.0933  2.1816  0.8685
  174SOPE  C31019807   5.352   4.833   8.338 -0.0060  0.5336  0.7616
  174SOPE  H10X19808   5.456   4.852   8.303 -0.5150 -1.0058 -1.7644
  174SOPE  H10Y19809   5.340   4.902   8.423 -0.6060  1.4164 -0.0352
  174SOPE  C31119810   5.250   4.860   8.227  0.5884  0.6159 -0.4360
  174SOPE  H11X19811   5.151   4.826   8.264  0.6338 -0.1763 -1.0484
  174SOPE  H11Y19812   5.282   4.803   8.138 -0.2795 -0.6637  0.0622
  174SOPE  C31219813   5.239   5.011   8.191  0.4534  0.3329  0.0786
  174SOPE  H12X19814   5.332   5.047   8.142 -1.4111  0.7325 -3.3872
  174SOPE  H12Y19815   5.216   5.069   8.282 -1.4647  1.3889 -1.0609
  174SOPE  C31319816   5.128   5.047   8.090  0.1318  0.1666  0.2072
  174SOPE  H13X19817   5.040   4.980   8.102 -0.0977  0.2962 -0.7177
  174SOPE  H13Y19818   5.164   5.021   7.988 -0.9882 -2.0596  0.3536
  174SOPE  C31419819   5.080   5.195   8.090 -0.5276 -0.7208 -0.0886
  174SOPE  H14X19820   5.169   5.262   8.092 -1.3630  0.3933  0.0397
  174SOPE  H14Y19821   5.015   5.213   8.178 -0.2317  1.7055 -0.3396
  174SOPE  C31519822   4.992   5.254   7.970 -0.1161  0.1430 -0.4178
  174SOPE  H15X19823   4.919   5.179   7.933  1.1296 -0.9577 -0.6846
  174SOPE  H15Y19824   5.059   5.272   7.884  0.0114  0.4059 -0.2635
  174SOPE  C31619825   4.911   5.380   8.015  0.0988  0.6186 -0.2936
  174SOPE  H16X19826   4.991   5.456   8.025  1.6400 -1.0076  0.0287
  174SOPE  H16Y19827   4.853   5.352   8.105  2.3669 -0.1752  0.9512
  174SOPE  C31719828   4.805   5.415   7.904 -0.4866 -0.2605  0.7020
  174SOPE  H17X19829   4.713   5.450   7.955  0.4617  1.2509  1.4260
  174SOPE  H17Y19830   4.777   5.324   7.848  1.5921  0.0542 -0.9283
  174SOPE  C31819831   4.857   5.512   7.799 -0.3481 -0.0241 -0.6213
  174SOPE  H18X19832   4.950   5.463   7.763 -0.8586 -3.0615  2.0041
  174SOPE  H18Y19833   4.889   5.605   7.851  1.8212  0.0533 -2.0313
  174SOPE  H18Z19834   4.796   5.534   7.709 -1.5641 -0.4696  0.0821
  175SOPE     N19835   4.845   5.550   9.486  0.1103 -0.0082 -0.2729
  175SOPE   HN119836   4.802   5.510   9.571 -2.2758  2.1487 -0.4056
  175SOPE   HN219837   4.915   5.624   9.506 -0.8640  0.2984  2.1488
  175SOPE   HN319838   4.780   5.597   9.420  0.3016  1.0492  0.2809
  175SOPE   C1219839   4.938   5.453   9.413 -0.9165 -0.4578 -0.4918
  175SOPE  H12A19840   4.956   5.496   9.312  1.0295 -0.9660 -0.3820
  175SOPE  H12B19841   4.882   5.358   9.409 -0.8013 -0.5764  0.4982
  175SOPE   C1119842   5.069   5.432   9.498  0.7414  0.8478  0.4439
  175SOPE  H11A19843   5.123   5.529   9.489 -1.4107  2.0054 -0.3349
  175SOPE  H11B19844   5.142   5.369   9.444  1.3913  2.8959 -1.1224
  175SOPE     P19845   5.094   5.253   9.695 -0.0526 -0.3179 -0.2051
  175SOPE   O1319846   5.025   5.218   9.822  0.4644  0.5381  0.6940
  175SOPE   O1419847   5.236   5.255   9.706  0.7125  0.2657 -0.0222
  175SOPE   O1219848   5.038   5.387   9.632  0.6257  0.2333 -0.3264
  175SOPE   O1119849   5.036   5.165   9.586 -0.4835 -0.0805  0.7025
  175SOPE    C119850   5.025   5.025   9.601  0.1225 -0.6980 -0.0025
  175SOPE    HA19851   4.941   5.005   9.531 -1.3732  3.8949  0.3549
  175SOPE    HB19852   5.000   4.995   9.705 -0.5398 -0.2417 -0.0290
  175SOPE    C219853   5.150   4.960   9.555 -0.1545 -0.6133  0.3121
  175SOPE    HS19854   5.231   4.978   9.628  1.8497 -0.2972 -1.9310
  175SOPE   O2119855   5.196   5.026   9.434  0.2615 -0.6144  0.3257
  175SOPE   C2119856   5.329   5.024   9.409 -0.4198  0.3069 -0.3677
  175SOPE   O2219857   5.409   4.961   9.480 -0.9796 -0.0923  0.4008
  175SOPE   C2219858   5.358   5.111   9.284 -0.3418 -0.3114 -0.2301
  175SOPE   H2R19859   5.463   5.143   9.299 -0.1990 -1.3164  0.9587
  175SOPE   H2S19860   5.273   5.182   9.278 -1.8373 -1.9851  0.6010
  175SOPE    C319861   5.130   4.805   9.530  0.0605  0.6168  0.1007
  175SOPE    HX19862   5.113   4.746   9.622 -2.2183 -0.3007 -0.8731
  175SOPE    HY19863   5.229   4.769   9.497  1.4051  3.2848  1.0659
  175SOPE   O3119864   5.027   4.774   9.436 -0.1255 -0.1833  0.7441
  175SOPE   C3119865   5.067   4.779   9.312  0.1709  0.2193 -0.2195
  175SOPE   O3219866   5.182   4.776   9.272  0.4649  0.1021 -0.3147
  175SOPE   C3219867   4.945   4.786   9.230  0.5162 -0.5500 -0.0118
  175SOPE   H2X19868   4.861   4.827   9.291  1.3388  0.0395  0.7345
  175SOPE   H2Y19869   4.921   4.691   9.177  2.7855 -0.2413 -1.6697
  175SOPE   C2319870   5.345   5.033   9.152 -0.3192 -0.2200 -0.3353
  175SOPE   H3R19871   5.282   4.943   9.169 -0.6224  0.3581  1.7900
  175SOPE   H3S19872   5.444   4.992   9.123 -0.2863 -0.4737  0.1249
  175SOPE   C2419873   5.291   5.122   9.040 -0.6697  0.0509 -0.7300
  175SOPE   H4R19874   5.280   5.060   8.949 -1.1158 -3.1320  1.3858
  175SOPE   H4S19875   5.192   5.165   9.069 -1.3281 -1.7976 -0.1285
  175SOPE   C2519876   5.390   5.241   9.012 -0.6973 -0.2653  0.4787
  175SOPE   H5R19877   5.375   5.320   9.090 -0.3936  1.9088 -1.6045
  175SOPE   H5S19878   5.496   5.209   9.018 -0.6819 -1.0415 -3.0718
  175SOPE   C2619879   5.368   5.297   8.871  0.6064  0.1927  0.0873
  175SOPE   H6R19880   5.430   5.388   8.854 -2.0455  1.9504 -0.5531
  175SOPE   H6S19881   5.405   5.220   8.800 -0.1383  0.0391 -0.1369
  175SOPE   C2719882   5.227   5.330   8.834 -0.3116  0.3404  0.2973
  175SOPE   H7R19883   5.166   5.239   8.811  0.4005 -0.1901  0.4946
  175SOPE   H7S19884   5.182   5.390   8.916  0.6837  1.8899 -0.2716
  175SOPE   C2819885   5.219   5.421   8.712  0.6321 -0.2448  0.1112
  175SOPE   H8R19886   5.116   5.463   8.710  0.8623  0.3281  0.4115
  175SOPE   H8S19887   5.283   5.506   8.742  0.1072  0.3512 -0.4591
  175SOPE   C2919888   5.253   5.342   8.580  0.1433 -0.6718 -0.3637
  175SOPE   H9119889   5.353   5.375   8.549  0.7799  0.2533  2.4967
  175SOPE  C21019890   5.171   5.263   8.508 -0.1620 -0.2713 -0.1739
  175SOPE  H10119891   5.213   5.219   8.417 -0.0257  1.0074 -0.7428
  175SOPE  C21119892   5.034   5.218   8.536  0.1917  0.1843  0.2530
  175SOPE  H11R19893   4.969   5.236   8.448 -0.5486 -1.2691  0.4990
  175SOPE  H11S19894   4.996   5.262   8.631  0.8942  0.7253  0.2960
  175SOPE  C21219895   5.042   5.065   8.555 -0.2980 -0.7475 -0.0466
  175SOPE  H12R19896   5.104   5.033   8.641  0.6282 -0.7264 -0.6948
  175SOPE  H12S19897   5.092   5.040   8.459 -1.5020 -0.7725 -0.6911
  175SOPE  C21319898   4.904   5.000   8.567 -0.5061 -0.0443  0.4708
  175SOPE  H13R19899   4.895   4.898   8.524 -1.6343  0.8617 -1.5257
  175SOPE  H13S19900   4.830   5.061   8.510  0.5571  0.0503 -0.8414
  175SOPE  C21419901   4.862   4.985   8.715 -0.5503 -0.2230 -0.1878
  175SOPE  H14R19902   4.836   5.080   8.767  0.5954 -1.3051  2.4513
  175SOPE  H14S19903   4.931   4.929   8.781  1.1996  1.2424 -0.7416
  175SOPE  C21519904   4.733   4.900   8.723 -0.1943  0.2479 -0.5014
  175SOPE  H15R19905   4.748   4.852   8.822  0.5588  2.5558  0.5576
  175SOPE  H15S19906   4.732   4.819   8.647 -1.6605 -1.6286  1.4647
  175SOPE  C21619907   4.611   4.987   8.734 -0.0128  0.3252 -0.3239
  175SOPE  H16R19908   4.628   5.075   8.800  1.4384  0.5964 -1.0424
  175SOPE  H16S19909   4.533   4.919   8.775 -0.8624  1.5825  0.1625
  175SOPE  C21719910   4.542   5.037   8.606 -0.4232  0.0808 -0.6975
  175SOPE  H17R19911   4.605   5.107   8.547  0.8037  0.6090  1.2051
  175SOPE  H17S19912   4.449   5.086   8.643 -0.6232 -2.0215  1.6855
  175SOPE  C21819913   4.500   4.931   8.504  0.7384  0.4376 -0.1212
  175SOPE  H18R19914   4.594   4.883   8.470  1.4131  1.9803 -0.5034
  175SOPE  H18S19915   4.445   4.970   8.416  0.0565 -1.1730 -0.4172
  175SOPE  H18T19916   4.430   4.859   8.550  3.5573 -1.6648  1.0327
  175SOPE   C3319917   4.953   4.885   9.114  0.0748 -0.4592  0.1887
  175SOPE   H3X19918   4.860   4.874   9.055  0.5657  2.0976 -1.1048
  175SOPE   H3Y19919   5.037   4.855   9.048 -0.7467  0.9972 -1.5564
  175SOPE   C3419920   4.964   5.028   9.158  0.1890 -0.0308 -0.4185
  175SOPE   H4X19921   5.064   5.044   9.205 -0.8637  3.1761  0.8999
  175SOPE   H4Y19922   4.892   5.047   9.241 -1.0085 -1.6477 -1.0740
  175SOPE   C3519923   4.939   5.135   9.051  0.3505 -0.1116  0.4341
  175SOPE   H5X19924   4.836   5.130   9.008  0.6615  4.8980 -1.3053
  175SOPE   H5Y19925   5.015   5.132   8.971 -1.2733  0.2217 -1.1410
  175SOPE   C3619926   4.942   5.280   9.106 -0.0076  0.1330 -0.7453
  175SOPE   H6X19927   5.050   5.306   9.103 -0.5381  2.4823 -0.9346
  175SOPE   H6Y19928   4.906   5.278   9.211 -0.4029 -1.2512 -0.8948
  175SOPE   C3719929   4.849   5.374   9.033 -0.2821  0.1176  0.7350
  175SOPE   H7X19930   4.836   5.476   9.075 -0.6930 -0.6691  2.5794
  175SOPE   H7Y19931   4.747   5.334   9.043 -0.1552  0.1492  2.2467
  175SOPE   C3819932   4.868   5.385   8.875 -0.5091 -0.6346  0.1638
  175SOPE   H8X19933   4.910   5.294   8.828  0.2557  0.1905 -0.8034
  175SOPE   H8Y19934   4.948   5.459   8.851  1.5191 -3.1237 -0.9687
  175SOPE   C3919935   4.741   5.409   8.796  0.3506  0.2204 -0.4267
  175SOPE   H9X19936   4.695   5.510   8.801  1.0807  0.7855 -3.8863
  175SOPE   H9Y19937   4.664   5.331   8.816  1.2898 -0.8035 -0.7789
  175SOPE  C31019938   4.769   5.408   8.644  0.0694 -0.3184  0.3324
  175SOPE  H10X19939   4.772   5.304   8.604 -0.1874  0.0778 -0.7084
  175SOPE  H10Y19940   4.859   5.468   8.620 -1.1450  0.9014 -1.2769
  175SOPE  C31119941   4.640   5.449   8.577 -0.2694 -0.4079 -0.0282
  175SOPE  H11X19942   4.605   5.542   8.627 -1.2738 -1.1395  0.6318
  175SOPE  H11Y19943   4.559   5.375   8.594 -0.3773  0.0686  1.6064
  175SOPE  C31219944   4.658   5.476   8.427 -0.4745 -0.1612  0.2972
  175SOPE  H12X19945   4.691   5.385   8.374  2.9464  0.6879  0.8126
  175SOPE  H12Y19946   4.747   5.543   8.420  0.1262 -0.9722  0.0637
  175SOPE  C31319947   4.528   5.547   8.372  0.2108  0.1252  0.1488
  175SOPE  H13X19948   4.504   5.626   8.447 -0.3679 -1.2801  1.4633
  175SOPE  H13Y19949   4.446   5.473   8.379 -1.0710  1.5656  0.6816
  175SOPE  C31419950   4.551   5.602   8.228  0.4833 -0.0299 -0.8268
  175SOPE  H14X19951   4.616   5.530   8.172  1.2836 -0.5557  0.7401
  175SOPE  H14Y19952   4.617   5.687   8.254 -1.0134  0.4149  1.6244
  175SOPE  C31519953   4.428   5.638   8.154  0.1027 -0.5756 -0.0286
  175SOPE  H15X19954   4.369   5.546   8.133  0.2889 -0.6718 -0.1332
  175SOPE  H15Y19955   4.467   5.672   8.055 -0.4896  3.1573  0.9381
  175SOPE  C31619956   4.350   5.760   8.203  0.5790  0.5995  0.2662
  175SOPE  H16X19957   4.424   5.820   8.261 -0.2564  0.1812  1.7927
  175SOPE  H16Y19958   4.268   5.729   8.271 -1.2126  2.0055 -1.2031
  175SOPE  C31719959   4.294   5.843   8.091 -0.0932 -0.0183 -0.0325
  175SOPE  H17X19960   4.361   5.832   8.003 -0.2490 -2.3649  0.1170
  175SOPE  H17Y19961   4.293   5.948   8.129  1.3302  0.3617 -0.9918
  175SOPE  C31819962   4.154   5.808   8.052  0.0476 -0.4699  0.7148
  175SOPE  H18X19963   4.122   5.872   7.967 -0.0456  0.0176  1.1125
  175SOPE  H18Y19964   4.075   5.822   8.129  0.4357  0.4595  0.9542
  175SOPE  H18Z19965   4.161   5.706   8.008 -0.2552 -0.4905  0.7163
  176SOPE     N19966   5.542   4.674   9.578 -0.4116  0.4877  0.6129
  176SOPE   HN119967   5.474   4.637   9.648 -0.9369  2.9921  1.4926
  176SOPE   HN219968   5.568   4.769   9.614  0.0125  0.6763 -0.1789
  176SOPE   HN319969   5.500   4.670   9.483  2.6290  1.9943 -0.8392
  176SOPE   C1219970   5.661   4.583   9.559  0.3894 -0.1212 -0.3878
  176SOPE  H12A19971   5.727   4.600   9.647  0.5569 -2.4557 -0.0238
  176SOPE  H12B19972   5.702   4.605   9.459  0.6052  0.2918 -0.2108
  176SOPE   C1119973   5.622   4.438   9.567  0.5337  0.7200  0.3059
  176SOPE  H11A19974   5.707   4.381   9.524  1.3395 -0.1853  3.0043
  176SOPE  H11B19975   5.538   4.409   9.501 -0.3878 -1.8150  2.5282
  176SOPE     P19976   5.547   4.269   9.769 -0.0370 -0.4769 -0.0597
  176SOPE   O1319977   5.413   4.273   9.817  0.0236 -0.1653  0.0071
  176SOPE   O1419978   5.653   4.220   9.860  0.4042  0.3829  0.6963
  176SOPE   O1219979   5.589   4.414   9.707 -0.2110 -0.3148  0.0018
  176SOPE   O1119980   5.565   4.179   9.641 -0.3414 -0.1628  0.7407
  176SOPE    C119981   5.552   4.040   9.657  0.0688 -0.3342  1.1374
  176SOPE    HA19982   5.494   4.007   9.746 -4.1071  0.2692 -1.2404
  176SOPE    HB19983   5.649   3.986   9.664  0.4876 -0.0659 -1.9679
  176SOPE    C219984   5.477   3.981   9.531  0.1419  0.1647  0.1876
  176SOPE    HS19985   5.494   3.872   9.520 -1.4740 -0.1037  0.2533
  176SOPE   O2119986   5.520   4.049   9.404  0.2246  0.1838 -0.5970
  176SOPE   C2119987   5.649   4.051   9.380 -0.1239  0.6844  0.2192
  176SOPE   O2219988   5.734   3.979   9.434 -0.3001  0.1070  0.3483
  176SOPE   C2219989   5.682   4.142   9.266  0.0966 -0.4761 -0.6027
  176SOPE   H2R19990   5.785   4.129   9.226  0.2870 -3.4551  0.7478
  176SOPE   H2S19991   5.683   4.246   9.305  0.2262 -0.4843 -0.5826
  176SOPE    C319992   5.322   3.982   9.550  1.1657 -0.1132 -0.3608
  176SOPE    HX19993   5.282   4.085   9.559 -1.0240 -0.8935 -0.9101
  176SOPE    HY19994   5.312   3.938   9.652 -0.1691 -1.1535 -0.9276
  176SOPE   O3119995   5.250   3.905   9.452 -0.4288  0.0498  0.0074
  176SOPE   C3119996   5.231   3.968   9.339  0.3205 -0.0810  0.7448
  176SOPE   O3219997   5.257   4.086   9.321  0.2891 -0.2537 -0.0588
  176SOPE   C3219998   5.146   3.884   9.250  0.6137  0.2800 -0.1734
  176SOPE   H2X19999   5.064   3.849   9.316 -0.4797  3.2207  0.1370
  176SOPE   H2Y20000   5.209   3.796   9.224  1.7275  0.2789  2.3380
  176SOPE   C2320001   5.582   4.135   9.144 -0.3294 -0.3552 -0.1253
  176SOPE   H3R20002   5.488   4.191   9.166  0.9934  1.6520  0.5690
  176SOPE   H3S20003   5.566   4.026   9.135 -1.0548 -0.2939  0.3862
  176SOPE   C2420004   5.638   4.184   9.008 -0.3477 -0.1710 -0.1445
  176SOPE   H4R20005   5.661   4.292   9.003  0.3164 -0.2212  1.5016
  176SOPE   H4S20006   5.728   4.125   8.983 -0.5365  0.0175 -1.3212
  176SOPE   C2520007   5.530   4.168   8.903 -0.1102  0.4114  0.6661
  176SOPE   H5R20008   5.503   4.060   8.893  2.0360 -0.1623  0.7816
  176SOPE   H5S20009   5.432   4.214   8.926 -0.9323 -0.9607 -0.0055
  176SOPE   C2620010   5.590   4.224   8.770  0.6336  0.0301  0.0177
  176SOPE   H6R20011   5.691   4.267   8.786 -0.7354  2.9567  1.2209
  176SOPE   H6S20012   5.618   4.139   8.705 -0.6209 -1.6666  1.6332
  176SOPE   C2720013   5.506   4.328   8.695 -0.5621 -0.2434 -0.7988
  176SOPE   H7R20014   5.415   4.288   8.645 -1.7357  1.2134  0.1386
  176SOPE   H7S20015   5.474   4.406   8.767  2.9555 -0.1007  0.7083
  176SOPE   C2820016   5.582   4.409   8.585 -0.3009 -0.4223  0.4537
  176SOPE   H8R20017   5.510   4.491   8.562 -0.9745 -1.1124  0.0842
  176SOPE   H8S20018   5.667   4.461   8.633 -1.0717  0.5342  0.8005
  176SOPE   C2920019   5.613   4.332   8.454  0.2289  0.3370  0.3335
  176SOPE   H9120020   5.594   4.225   8.472 -0.6164  0.7544  2.0213
  176SOPE  C21020021   5.642   4.371   8.329  0.4796 -0.0530  0.0942
  176SOPE  H10120022   5.672   4.305   8.247 -0.9747 -0.3208 -0.2453
  176SOPE  C21120023   5.641   4.513   8.277  0.2364  0.7348  0.0803
  176SOPE  H11R20024   5.568   4.575   8.334 -0.3018  1.6682 -1.5985
  176SOPE  H11S20025   5.630   4.512   8.167 -1.2676  0.1450  0.2093
  176SOPE  C21220026   5.784   4.568   8.304  0.2932 -0.0851 -0.0907
  176SOPE  H12R20027   5.851   4.493   8.255  0.6636  0.3857 -0.3080
  176SOPE  H12S20028   5.819   4.577   8.410  0.2123 -1.1414  0.0392
  176SOPE  C21320029   5.807   4.697   8.228  0.8281 -1.2255 -0.0148
  176SOPE  H13R20030   5.719   4.764   8.240 -0.0769 -2.7103  1.8199
  176SOPE  H13S20031   5.814   4.677   8.119  0.8307  0.8574 -0.4247
  176SOPE  C21420032   5.936   4.757   8.278 -0.4926 -0.3938  0.8469
  176SOPE  H14R20033   6.014   4.677   8.282  0.6869  0.7132  0.4763
  176SOPE  H14S20034   5.918   4.784   8.384 -0.7600  5.1810 -0.4609
  176SOPE  C21520035   5.997   4.866   8.183 -0.2852 -0.2485  0.2852
  176SOPE  H15R20036   6.096   4.890   8.226  0.0906 -0.4804 -0.4418
  176SOPE  H15S20037   5.929   4.951   8.206 -0.9473 -0.7420  0.1852
  176SOPE  C21620038   6.005   4.834   8.037 -0.2876 -0.5208  0.4137
  176SOPE  H16R20039   5.902   4.810   8.003 -0.6823  2.4666 -0.6465
  176SOPE  H16S20040   6.073   4.746   8.030 -0.1094 -0.2350 -2.1727
  176SOPE  C21720041   6.075   4.941   7.953 -0.3232  0.3189  0.0365
  176SOPE  H17R20042   6.072   4.913   7.845  2.6420  0.8546 -0.2434
  176SOPE  H17S20043   6.184   4.948   7.978 -0.6652  0.3147  1.5825
  176SOPE  C21820044   6.006   5.077   7.958 -0.5830  0.1150 -0.5947
  176SOPE  H18R20045   6.019   5.127   8.056 -1.9807  2.0928 -1.3938
  176SOPE  H18S20046   5.898   5.055   7.940 -0.1574 -1.3953 -1.4426
  176SOPE  H18T20047   6.036   5.156   7.886 -1.4956  0.5759 -0.4821
  176SOPE   C3320048   5.093   3.965   9.131  0.4531 -0.6078 -0.2231
  176SOPE   H3X20049   5.030   4.051   9.164  0.5039 -0.2156 -1.1367
  176SOPE   H3Y20050   5.019   3.897   9.084 -1.6394  0.8839  0.8196
  176SOPE   C3420051   5.199   4.004   9.025  0.3388  0.1922 -0.5292
  176SOPE   H4X20052   5.268   3.917   9.022  1.4928  1.1068 -0.9492
  176SOPE   H4Y20053   5.250   4.097   9.057  2.6447 -1.1132 -0.2921
  176SOPE   C3520054   5.133   4.027   8.889 -0.1800 -0.4053  0.6187
  176SOPE   H5X20055   5.048   4.094   8.913  0.3150  0.0356  1.1533
  176SOPE   H5Y20056   5.088   3.935   8.844 -2.2219  0.0695  1.6126
  176SOPE   C3620057   5.223   4.081   8.777  0.1264  0.1302 -0.2975
  176SOPE   H6X20058   5.307   4.018   8.740  0.7848  1.1580 -0.5840
  176SOPE   H6Y20059   5.268   4.177   8.810 -0.0914  0.2586 -0.3711
  176SOPE   C3720060   5.148   4.102   8.652 -0.8942  0.0102  0.2065
  176SOPE   H7X20061   5.106   4.014   8.599  2.5609 -0.6622 -1.6143
  176SOPE   H7Y20062   5.212   4.159   8.580 -2.6740  2.9091  0.8206
  176SOPE   C3820063   5.026   4.195   8.664  0.5011  0.5716 -0.1330
  176SOPE   H8X20064   5.059   4.274   8.734  1.7348 -1.9522  2.2504
  176SOPE   H8Y20065   4.931   4.148   8.696  0.5183  0.8788  0.3691
  176SOPE   C3920066   4.995   4.255   8.523  0.8025 -0.0691 -0.0100
  176SOPE   H9X20067   5.087   4.294   8.476 -0.1948  1.1192 -1.0201
  176SOPE   H9Y20068   4.932   4.342   8.553  1.4569  1.8957 -3.9604
  176SOPE  C31020069   4.924   4.157   8.428  0.6516  0.7234 -0.0612
  176SOPE  H10X20070   4.850   4.104   8.492  0.4361  1.0714 -0.0249
  176SOPE  H10Y20071   4.996   4.079   8.395 -1.0960 -0.6408 -0.7376
  176SOPE  C31120072   4.869   4.222   8.306  0.3924 -0.0003  0.1192
  176SOPE  H11X20073   4.815   4.147   8.245 -0.4738 -0.4667  1.4362
  176SOPE  H11Y20074   4.953   4.259   8.244  0.4455 -2.6753 -1.4789
  176SOPE  C31220075   4.780   4.334   8.346  0.0889 -0.2943  0.2331
  176SOPE  H12X20076   4.839   4.427   8.363 -1.0952  0.3904  0.7108
  176SOPE  H12Y20077   4.723   4.312   8.439 -0.2875  0.2223  0.1314
  176SOPE  C31320078   4.682   4.384   8.226  0.2171 -0.0835 -0.6716
  176SOPE  H13X20079   4.610   4.301   8.207 -0.5313 -0.1687  2.2951
  176SOPE  H13Y20080   4.747   4.409   8.140  2.4027  1.4690  1.3818
  176SOPE  C31420081   4.599   4.513   8.260 -0.6639  0.9481  0.5809
  176SOPE  H14X20082   4.672   4.595   8.277  1.9780 -1.3445  0.6251
  176SOPE  H14Y20083   4.548   4.490   8.356  0.8463 -1.4984  0.8430
  176SOPE  C31520084   4.493   4.531   8.154  0.1109  0.7341  0.4547
  176SOPE  H15X20085   4.440   4.435   8.142  1.9659 -0.3007  0.2982
  176SOPE  H15Y20086   4.542   4.542   8.055 -1.6639 -1.5668 -0.7065
  176SOPE  C31620087   4.392   4.640   8.193  0.1673 -0.3466 -0.1743
  176SOPE  H16X20088   4.432   4.734   8.237 -0.6305 -0.0581 -0.0528
  176SOPE  H16Y20089   4.322   4.611   8.275  0.0472  0.4404  0.0065
  176SOPE  C31720090   4.304   4.674   8.071  0.2612  0.8171 -0.3485
  176SOPE  H17X20091   4.236   4.591   8.045  1.5244  0.0283 -1.1533
  176SOPE  H17Y20092   4.384   4.674   7.994  0.2280 -1.3221 -0.4012
  176SOPE  C31820093   4.239   4.814   8.080 -0.1650 -0.6008  0.5692
  176SOPE  H18X20094   4.222   4.849   8.184 -2.8128 -1.4277  0.4355
  176SOPE  H18Y20095   4.139   4.806   8.033  0.1764  0.5321 -0.3470
  176SOPE  H18Z20096   4.302   4.882   8.020  1.6552  0.2392  3.3101
  177SOPE     N20097   5.418   1.719   9.998  0.4121  0.0416 -0.5774
  177SOPE   HN120098   5.442   1.792   9.927  0.8060  0.2474 -0.2343
  177SOPE   HN220099   5.391   1.773  10.082 -2.2199 -0.7582 -0.8639
  177SOPE   HN320100   5.511   1.675  10.016  1.4528  1.9297 -1.1507
  177SOPE   C1220101   5.298   1.630   9.958  0.7858  0.1369 -0.4368
  177SOPE  H12A20102   5.244   1.592  10.048  0.8795 -1.7706 -1.1634
  177SOPE  H12B20103   5.334   1.536   9.913  0.4936  0.3560 -1.1311
  177SOPE   C1120104   5.191   1.715   9.883 -0.0570 -0.5582  0.6913
  177SOPE  H11A20105   5.113   1.648   9.841 -1.5319  1.3087  0.4053
  177SOPE  H11B20106   5.220   1.773   9.793 -2.5974  0.9971  0.8243
  177SOPE     P20107   5.118   1.949   9.989 -0.2098  0.4684 -0.3378
  177SOPE   O1320108   5.260   1.991  10.024 -0.0546  0.6925  0.3659
  177SOPE   O1420109   4.999   1.994  10.071  0.2773 -0.1106  0.1193
  177SOPE   O1220110   5.119   1.794   9.976  0.1145  0.0081  0.2406
  177SOPE   O1120111   5.100   2.009   9.838 -0.2341  0.0275  0.5393
  177SOPE    C120112   4.982   1.979   9.765 -0.5359  0.1223  0.2020
  177SOPE    HA20113   4.898   2.017   9.827  2.1225  0.7965  3.5421
  177SOPE    HB20114   4.971   1.870   9.748 -0.2405 -0.3308  2.7232
  177SOPE    C220115   4.979   2.045   9.629  1.0072 -0.6340 -0.3237
  177SOPE    HS20116   4.884   2.031   9.572  0.5544  0.4215  0.1641
  177SOPE   O2120117   5.098   2.001   9.565 -0.6842 -0.2837  0.0550
  177SOPE   C2120118   5.089   1.882   9.508  0.5543  0.5915 -0.0409
  177SOPE   O2220119   4.987   1.818   9.505  0.0858 -0.0100  0.0813
  177SOPE   C2220120   5.233   1.842   9.464  0.1805 -0.5853 -0.2108
  177SOPE   H2R20121   5.299   1.849   9.554 -1.0177  1.7881  0.5319
  177SOPE   H2S20122   5.269   1.919   9.392 -1.7310 -1.3184 -1.9815
  177SOPE    C320123   4.982   2.204   9.658  0.2823 -0.2028  0.2041
  177SOPE    HX20124   5.067   2.231   9.724  1.6779 -0.8153 -1.3199
  177SOPE    HY20125   4.892   2.230   9.718  1.3318  0.6496  1.4501
  177SOPE   O3120126   4.983   2.284   9.541  0.4902  0.0565  0.8812
  177SOPE   C3120127   5.104   2.297   9.471 -0.2791  0.4613 -0.9877
  177SOPE   O3220128   5.209   2.254   9.520 -0.5845 -0.7691  0.0140
  177SOPE   C3220129   5.097   2.384   9.348  0.0597 -0.0363 -0.7991
  177SOPE   H2X20130   5.177   2.460   9.356  0.8242 -0.8868 -0.1594
  177SOPE   H2Y20131   5.001   2.439   9.357  0.2978  0.6538 -2.3633
  177SOPE   C2320132   5.252   1.706   9.402 -0.4337  0.3965  0.1407
  177SOPE   H3R20133   5.158   1.676   9.351  0.6564 -1.1411 -1.0304
  177SOPE   H3S20134   5.270   1.636   9.486  0.6487 -1.1159 -1.3211
  177SOPE   C2420135   5.369   1.703   9.301 -0.1100 -0.3438  0.6458
  177SOPE   H4R20136   5.373   1.599   9.265 -0.8535 -0.5918  1.2450
  177SOPE   H4S20137   5.335   1.771   9.219 -0.4324 -1.1638  0.0952
  177SOPE   C2520138   5.510   1.741   9.364  0.5865  0.3336 -0.1533
  177SOPE   H5R20139   5.506   1.847   9.400 -1.0796  0.9331 -2.0423
  177SOPE   H5S20140   5.528   1.683   9.457  0.0685  3.0859  1.7503
  177SOPE   C2620141   5.614   1.713   9.256 -0.0525  0.7380 -0.0707
  177SOPE   H6R20142   5.713   1.706   9.307 -0.2722  1.2489  0.4283
  177SOPE   H6S20143   5.605   1.620   9.197  0.2135  1.1858 -0.8286
  177SOPE   C2720144   5.619   1.821   9.150  1.0459  0.1255  1.0141
  177SOPE   H7R20145   5.515   1.834   9.114  1.5565 -0.3795 -0.7075
  177SOPE   H7S20146   5.643   1.920   9.194 -1.1219  0.1521  2.2237
  177SOPE   C2820147   5.697   1.793   9.016  0.3777  0.5860 -0.8981
  177SOPE   H8R20148   5.801   1.774   9.053  0.4866  2.2746 -0.2784
  177SOPE   H8S20149   5.664   1.698   8.970 -1.6787  1.7561 -1.8968
  177SOPE   C2920150   5.687   1.906   8.917  0.1556 -0.1976 -0.1132
  177SOPE   H9120151   5.697   2.008   8.955 -0.9615  0.4170 -1.4522
  177SOPE  C21020152   5.637   1.906   8.795 -0.0325  0.5005  0.7455
  177SOPE  H10120153   5.643   2.000   8.738  0.5271 -0.2749 -0.4700
  177SOPE  C21120154   5.576   1.780   8.722 -0.6476 -0.5913 -0.1424
  177SOPE  H11R20155   5.648   1.697   8.736  0.4843  0.3247 -0.3970
  177SOPE  H11S20156   5.579   1.799   8.612 -0.5620 -0.5746 -0.1377
  177SOPE  C21220157   5.439   1.759   8.777  1.0781 -0.5695  0.1614
  177SOPE  H12R20158   5.381   1.844   8.734  0.8742  0.2344  1.9651
  177SOPE  H12S20159   5.438   1.765   8.888  2.2324 -0.4756  0.1764
  177SOPE  C21320160   5.379   1.626   8.731  0.3427 -0.5066  0.3508
  177SOPE  H13R20161   5.420   1.597   8.632 -0.0601 -3.6020  1.0419
  177SOPE  H13S20162   5.271   1.652   8.721  1.0970  2.5228 -0.5887
  177SOPE  C21420163   5.388   1.503   8.828 -0.2528  0.6171  1.2431
  177SOPE  H14R20164   5.318   1.421   8.803  0.2062  0.1260  1.5552
  177SOPE  H14S20165   5.370   1.541   8.931 -0.5874 -0.7852  1.7056
  177SOPE  C21520166   5.536   1.442   8.829  0.0160  0.8732 -0.4674
  177SOPE  H15R20167   5.613   1.510   8.870 -0.2584  0.6213  0.4755
  177SOPE  H15S20168   5.566   1.432   8.722 -0.0220 -0.9440 -0.3214
  177SOPE  C21620169   5.554   1.310   8.902 -0.7896  0.5335 -0.6721
  177SOPE  H16R20170   5.660   1.280   8.888 -0.2170  1.4386  1.5055
  177SOPE  H16S20171   5.501   1.229   8.849 -0.9617 -0.4892  1.0323
  177SOPE  C21720172   5.507   1.311   9.044 -0.6951  0.0715 -0.1638
  177SOPE  H17R20173   5.398   1.334   9.050 -0.3437  1.2415  2.2304
  177SOPE  H17S20174   5.550   1.393   9.104  1.7009  1.2853 -3.4099
  177SOPE  C21820175   5.510   1.189   9.128 -0.0096 -0.4287 -0.5804
  177SOPE  H18R20176   5.613   1.179   9.169 -1.1594 -0.4963  2.4477
  177SOPE  H18S20177   5.465   1.103   9.073  1.2495 -1.2231 -0.3964
  177SOPE  H18T20178   5.440   1.204   9.213  1.8454  3.2181  0.3732
  177SOPE   C3320179   5.118   2.298   9.227  0.0778  0.0838  0.2247
  177SOPE   H3X20180   5.210   2.237   9.241  0.0622  0.8519  3.9749
  177SOPE   H3Y20181   5.124   2.363   9.137  0.1347  0.4416  0.4877
  177SOPE   C3420182   5.003   2.202   9.194  0.1285  0.5173 -0.3874
  177SOPE   H4X20183   4.913   2.265   9.178 -0.6901 -0.2057  1.2676
  177SOPE   H4Y20184   4.997   2.141   9.287 -0.5605  1.7765  0.4159
  177SOPE   C3520185   5.032   2.114   9.070  0.1276  0.0391  0.1513
  177SOPE   H5X20186   5.113   2.044   9.099 -1.0952 -1.5911 -0.3131
  177SOPE   H5Y20187   5.074   2.173   8.985 -0.6025  0.8008  0.3100
  177SOPE   C3620188   4.911   2.026   9.045  0.2065 -0.0984  0.5159
  177SOPE   H6X20189   4.876   1.968   9.133 -1.9336 -0.6493 -0.6584
  177SOPE   H6Y20190   4.943   1.943   8.979  0.6509  2.5481 -2.7121
  177SOPE   C3720191   4.795   2.106   8.979  0.1879  1.2777 -0.1214
  177SOPE   H7X20192   4.828   2.181   8.903 -0.3327  1.1868 -0.4406
  177SOPE   H7Y20193   4.742   2.153   9.064 -0.3701  0.0871  0.2043
  177SOPE   C3820194   4.680   2.015   8.919 -0.4768  0.2649  0.6875
  177SOPE   H8X20195   4.592   2.080   8.903 -0.9529 -0.2680  1.1251
  177SOPE   H8Y20196   4.648   1.928   8.980 -1.0418 -0.9629 -1.3391
  177SOPE   C3920197   4.712   1.963   8.781 -0.6355 -0.5910 -0.1985
  177SOPE   H9X20198   4.630   1.897   8.745 -1.3272  0.8887 -1.4212
  177SOPE   H9Y20199   4.803   1.899   8.779  1.1826  1.9272 -1.3634
  177SOPE  C31020200   4.736   2.060   8.669  0.6325 -0.5108 -0.4302
  177SOPE  H10X20201   4.826   2.111   8.709  0.1944  1.4552 -1.8390
  177SOPE  H10Y20202   4.654   2.133   8.651 -1.1312 -1.9272  1.6057
  177SOPE  C31120203   4.794   2.013   8.534 -0.4981  0.0078  0.4841
  177SOPE  H11X20204   4.871   1.936   8.554 -0.9124 -0.6435 -0.3696
  177SOPE  H11Y20205   4.855   2.096   8.492  0.3827 -1.5351 -1.3493
  177SOPE  C31220206   4.692   1.959   8.437  0.0163 -0.4432 -0.9255
  177SOPE  H12X20207   4.632   1.880   8.486  0.0361  0.3057  0.3480
  177SOPE  H12Y20208   4.741   1.918   8.346  3.6496  2.2693 -0.3391
  177SOPE  C31320209   4.588   2.063   8.392 -0.2367 -0.3760 -0.3260
  177SOPE  H13X20210   4.642   2.140   8.333  0.8376 -1.0053 -0.1754
  177SOPE  H13Y20211   4.547   2.117   8.480  1.9752  0.8728 -0.0246
  177SOPE  C31420212   4.474   2.009   8.308  0.4512  0.4311 -0.4997
  177SOPE  H14X20213   4.521   1.943   8.232 -0.3972  1.1940 -1.7018
  177SOPE  H14Y20214   4.420   2.096   8.266 -2.3160 -0.7823  0.4367
  177SOPE  C31520215   4.373   1.937   8.396  0.5427  0.3129  0.1955
  177SOPE  H15X20216   4.331   1.999   8.478 -0.8638 -0.0062 -0.2833
  177SOPE  H15Y20217   4.418   1.844   8.437  0.2025 -0.0361 -0.2111
  177SOPE  C31620218   4.264   1.889   8.290  0.1042  0.2379 -0.3302
  177SOPE  H16X20219   4.308   1.827   8.210 -1.0259  0.2165 -0.9342
  177SOPE  H16Y20220   4.214   1.975   8.240  1.5579 -0.1778 -2.5616
  177SOPE  C31720221   4.139   1.820   8.347  0.2858 -0.2594  0.4564
  177SOPE  H17X20222   4.159   1.739   8.421  0.5621  0.2695  0.9587
  177SOPE  H17Y20223   4.096   1.769   8.258 -2.0000  1.3753  0.5567
  177SOPE  C31820224   4.038   1.908   8.424 -0.6154 -0.4795  0.4325
  177SOPE  H18X20225   4.092   1.962   8.505  1.2402 -1.1766 -0.3183
  177SOPE  H18Y20226   3.957   1.842   8.460 -0.2300  0.1259  2.5327
  177SOPE  H18Z20227   4.000   1.979   8.347 -0.6455 -0.7346  0.2156
  178SOPE     N20228   2.125   7.145   9.789 -0.1622 -0.1336 -0.3842
  178SOPE   HN120229   2.061   7.064   9.776  0.6131 -0.9551  0.7991
  178SOPE   HN220230   2.133   7.169   9.890 -0.1534 -0.4653 -0.3060
  178SOPE   HN320231   2.081   7.232   9.753 -0.3578  0.4956  1.2947
  178SOPE   C1220232   2.247   7.110   9.712 -0.8219  0.4488  0.3001
  178SOPE  H12A20233   2.298   7.202   9.678 -0.0095 -0.1451 -0.0917
  178SOPE  H12B20234   2.215   7.058   9.619  1.2561  0.0728 -0.2193
  178SOPE   C1120235   2.359   7.035   9.788 -0.0999  0.3315 -0.2019
  178SOPE  H11A20236   2.389   7.094   9.877 -2.1190  1.4629 -0.2464
  178SOPE  H11B20237   2.456   7.022   9.734  1.3013  0.8255  2.1111
  178SOPE     P20238   2.306   6.789   9.754 -0.3535  0.3513 -0.0348
  178SOPE   O1320239   2.163   6.752   9.750 -0.0173  0.3006 -0.1032
  178SOPE   O1420240   2.406   6.688   9.792 -0.0446 -0.1774 -0.0810
  178SOPE   O1220241   2.324   6.911   9.848  0.3525  0.5889  0.1302
  178SOPE   O1120242   2.352   6.840   9.611  0.1854 -0.4962 -0.1690
  178SOPE    C120243   2.323   6.751   9.501 -0.2909 -0.4184  0.1265
  178SOPE    HA20244   2.213   6.739   9.498 -0.5281  1.6943 -0.1219
  178SOPE    HB20245   2.371   6.652   9.517 -1.3759 -0.8385  0.8439
  178SOPE    C220246   2.369   6.800   9.360 -0.7984 -0.3574  0.4577
  178SOPE    HS20247   2.392   6.709   9.301 -0.4039 -1.7332  2.7047
  178SOPE   O2120248   2.486   6.887   9.369 -0.1533  1.1680  0.3729
  178SOPE   C2120249   2.598   6.826   9.407 -0.3526 -0.0527  0.0920
  178SOPE   O2220250   2.626   6.707   9.399  0.0564  0.0808 -0.3674
  178SOPE   C2220251   2.693   6.924   9.481  0.5151 -0.8634 -0.6448
  178SOPE   H2R20252   2.662   6.923   9.588  1.2963 -0.1563 -0.4043
  178SOPE   H2S20253   2.682   7.026   9.440 -3.5907 -1.0432 -0.1884
  178SOPE    C320254   2.250   6.867   9.296 -0.4100 -0.5263  0.5397
  178SOPE    HX20255   2.208   6.933   9.375 -0.4636 -1.6974  1.5100
  178SOPE    HY20256   2.164   6.805   9.265 -0.8175  0.1847  0.2483
  178SOPE   O3120257   2.291   6.931   9.172  0.8397  0.4279  0.4117
  178SOPE   C3120258   2.198   6.982   9.093  0.5565  0.0710  0.5065
  178SOPE   O3220259   2.079   6.977   9.112  0.0726 -0.1184 -0.3382
  178SOPE   C3220260   2.256   7.028   8.958  0.1376 -0.1914 -0.5537
  178SOPE   H2X20261   2.211   6.966   8.877 -2.5732  0.5486  0.3058
  178SOPE   H2Y20262   2.366   7.017   8.967  0.2953  0.1310 -2.0137
  178SOPE   C2320263   2.836   6.880   9.460  0.4572 -0.5059 -0.0196
  178SOPE   H3R20264   2.853   6.891   9.351  2.6481 -2.9153  0.0090
  178SOPE   H3S20265   2.858   6.772   9.479 -1.7831 -0.5868  2.4947
  178SOPE   C2420266   2.935   6.958   9.545  0.0733  0.3219 -1.0692
  178SOPE   H4R20267   2.911   6.961   9.653  0.9924 -0.2198 -0.8458
  178SOPE   H4S20268   3.034   6.909   9.540 -0.4350 -0.7689 -0.5317
  178SOPE   C2520269   2.960   7.101   9.502 -0.1218 -0.0304 -0.3905
  178SOPE   H5R20270   2.869   7.163   9.508  0.7841  1.1201  1.8575
  178SOPE   H5S20271   3.036   7.147   9.569  0.2472  1.4395 -1.7883
  178SOPE   C2620272   3.031   7.119   9.362  0.7368 -0.4268 -0.5481
  178SOPE   H6R20273   3.139   7.092   9.359  1.5451  2.4546  1.3535
  178SOPE   H6S20274   2.978   7.065   9.281 -0.0045  0.6641 -0.7910
  178SOPE   C2720275   3.034   7.266   9.320  0.8337 -0.1810 -0.4695
  178SOPE   H7R20276   2.937   7.316   9.342  0.9199 -0.5734  0.8074
  178SOPE   H7S20277   3.119   7.309   9.378 -0.4244  0.3555  1.0314
  178SOPE   C2820278   3.072   7.287   9.174  0.3626 -0.2547 -0.1363
  178SOPE   H8R20279   3.158   7.217   9.167 -0.5693 -1.7291  2.4071
  178SOPE   H8S20280   2.993   7.247   9.107  1.8377 -1.6576 -1.0676
  178SOPE   C2920281   3.116   7.427   9.133  0.5047 -0.1734  0.0244
  178SOPE   H9120282   3.139   7.502   9.210 -0.3414  0.0086  0.1011
  178SOPE  C21020283   3.109   7.483   9.006  0.4941 -0.0613 -0.4848
  178SOPE  H10120284   3.133   7.589   8.987  1.4145 -0.0887  0.4141
  178SOPE  C21120285   3.066   7.405   8.882 -0.1985  0.1949  0.0321
  178SOPE  H11R20286   2.956   7.409   8.868 -0.5995 -2.8409  1.8852
  178SOPE  H11S20287   3.085   7.296   8.896  0.7380  0.4017  0.3830
  178SOPE  C21220288   3.143   7.453   8.756 -0.1378 -1.3866  0.2747
  178SOPE  H12R20289   3.252   7.468   8.770 -0.7164  1.5604  2.1626
  178SOPE  H12S20290   3.100   7.549   8.722  3.1189 -0.2355 -0.6960
  178SOPE  C21320291   3.130   7.350   8.643  0.1406  0.3362 -0.6062
  178SOPE  H13R20292   3.172   7.256   8.684  1.3673  0.5365 -1.3598
  178SOPE  H13S20293   3.192   7.386   8.558  0.4574  0.6716 -0.2380
  178SOPE  C21420294   2.982   7.319   8.606 -0.1852  0.9091 -0.5804
  178SOPE  H14R20295   2.926   7.409   8.574  1.0309  2.1658  0.7339
  178SOPE  H14S20296   2.934   7.268   8.693 -1.7442  1.0156 -1.3631
  178SOPE  C21520297   2.993   7.215   8.493 -0.0941 -0.3708  0.3605
  178SOPE  H15R20298   3.091   7.228   8.443 -1.9069  0.3281 -3.2179
  178SOPE  H15S20299   2.910   7.221   8.419 -0.1758  0.9151  0.5403
  178SOPE  C21620300   2.991   7.065   8.535 -0.0151  0.7342 -1.1076
  178SOPE  H16R20301   3.048   7.039   8.626 -1.5941 -2.0468 -0.8499
  178SOPE  H16S20302   3.034   7.003   8.453  2.2373  0.6094  0.1584
  178SOPE  C21720303   2.845   7.013   8.557 -0.0813  0.5636  0.1091
  178SOPE  H17R20304   2.789   7.057   8.472  0.7018 -0.1382 -0.7829
  178SOPE  H17S20305   2.800   7.049   8.653  0.4897  3.6143 -0.7198
  178SOPE  C21820306   2.836   6.852   8.567 -0.3747  0.3650 -0.0595
  178SOPE  H18R20307   2.728   6.824   8.570  0.0009 -1.1837 -0.4789
  178SOPE  H18S20308   2.884   6.814   8.660 -2.9450 -0.2456  1.0931
  178SOPE  H18T20309   2.896   6.805   8.487  0.4010  1.5080 -0.1555
  178SOPE   C3320310   2.207   7.173   8.938 -0.6683 -0.1556 -0.1297
  178SOPE   H3X20311   2.225   7.239   9.026 -1.2854 -2.2313  1.6223
  178SOPE   H3Y20312   2.096   7.174   8.924 -1.0333  4.1857  2.2253
  178SOPE   C3420313   2.267   7.243   8.813  0.8461 -0.2636 -0.1883
  178SOPE   H4X20314   2.225   7.345   8.802 -0.5060 -0.9848 -2.0039
  178SOPE   H4Y20315   2.232   7.188   8.723 -0.4927 -0.3078  0.3424
  178SOPE   C3520316   2.424   7.261   8.807  0.0817  0.1977 -0.3545
  178SOPE   H5X20317   2.475   7.163   8.825  1.7527  1.3113  1.1694
  178SOPE   H5Y20318   2.448   7.331   8.890 -0.7882  0.6516 -0.4852
  178SOPE   C3620319   2.469   7.308   8.668 -0.5482  0.5230  0.2292
  178SOPE   H6X20320   2.572   7.350   8.673 -0.5294  0.7916 -1.9942
  178SOPE   H6Y20321   2.401   7.389   8.631 -0.5144  0.5529  0.2344
  178SOPE   C3720322   2.480   7.207   8.557 -0.1074  0.2211 -0.3996
  178SOPE   H7X20323   2.382   7.165   8.526  1.2032 -2.3020 -1.2596
  178SOPE   H7Y20324   2.537   7.123   8.600  0.5739  2.9375  4.3124
  178SOPE   C3820325   2.563   7.253   8.437 -0.2925  0.2917  0.1714
  178SOPE   H8X20326   2.581   7.175   8.360  0.1087  0.6350 -0.0857
  178SOPE   H8Y20327   2.663   7.296   8.461  1.1429 -1.5132 -2.2420
  178SOPE   C3920328   2.487   7.358   8.347  0.0358  0.0707 -0.9499
  178SOPE   H9X20329   2.468   7.450   8.406  0.2494 -1.2518  1.2871
  178SOPE   H9Y20330   2.388   7.310   8.336 -0.5964  0.4736  2.4548
  178SOPE  C31020331   2.547   7.392   8.213  0.3538  0.7045 -0.3323
  178SOPE  H10X20332   2.657   7.394   8.230  0.7031 -0.1258 -2.3576
  178SOPE  H10Y20333   2.513   7.490   8.173 -1.0770  0.8169  1.1007
  178SOPE  C31120334   2.519   7.295   8.103  0.0726 -0.0115 -1.4038
  178SOPE  H11X20335   2.415   7.285   8.064  0.1900  0.2282 -1.7733
  178SOPE  H11Y20336   2.551   7.193   8.135 -0.8234  0.9034  2.6701
  178SOPE  C31220337   2.599   7.316   7.970  0.2868  0.0739  0.5679
  178SOPE  H12X20338   2.703   7.322   8.009  0.9349 -2.1544 -0.7574
  178SOPE  H12Y20339   2.576   7.416   7.928 -0.0471 -0.3796 -0.3284
  178SOPE  C31320340   2.564   7.199   7.877  0.4806  0.0265  0.2256
  178SOPE  H13X20341   2.454   7.211   7.870  0.7143  2.1062 -0.3112
  178SOPE  H13Y20342   2.589   7.104   7.928  0.1168 -1.0848 -1.6437
  178SOPE  C31420343   2.620   7.211   7.731 -0.7821  0.2368 -1.1374
  178SOPE  H14X20344   2.591   7.309   7.688  0.7002 -0.4970 -3.9375
  178SOPE  H14Y20345   2.566   7.130   7.678 -1.5490  0.5453 -0.8273
  178SOPE  C31520346   2.774   7.195   7.720 -0.3584  0.7497  0.0125
  178SOPE  H15X20347   2.807   7.094   7.754 -2.1768  0.1126 -0.0413
  178SOPE  H15Y20348   2.805   7.273   7.793 -3.6213  0.7214  1.5258
  178SOPE  C31620349   2.826   7.236   7.580  0.1580  0.3847 -0.0608
  178SOPE  H16X20350   2.776   7.331   7.551  1.1684  0.7961 -0.5121
  178SOPE  H16Y20351   2.794   7.154   7.513 -1.5177 -2.3960  3.9978
  178SOPE  C31720352   2.982   7.256   7.584  0.3594  0.2488  0.4446
  178SOPE  H17X20353   3.048   7.166   7.592 -0.5845 -0.6676 -1.6419
  178SOPE  H17Y20354   3.009   7.328   7.663  0.4726  0.5643  0.1169
  178SOPE  C31820355   3.018   7.324   7.460 -0.7339  0.8758  0.0571
  178SOPE  H18X20356   2.952   7.285   7.379 -0.7560  0.2601  0.3702
  178SOPE  H18Y20357   3.124   7.318   7.430 -0.1463  0.8045  2.0495
  178SOPE  H18Z20358   3.002   7.433   7.477 -2.7147  0.6598 -0.2798
  179SOPE     N20359   3.871   3.795   5.997 -0.0559  0.3595  0.7840
  179SOPE   HN120360   3.933   3.869   5.957  1.0122 -1.0964 -0.2909
  179SOPE   HN220361   3.804   3.764   5.924 -0.5279  2.1499  0.4215
  179SOPE   HN320362   3.814   3.833   6.075 -1.1016 -1.6460  1.0240
  179SOPE   C1220363   3.969   3.698   6.056 -0.4086  0.6598 -0.0762
  179SOPE  H12A20364   3.921   3.644   6.141  2.1521  1.8706  2.2426
  179SOPE  H12B20365   4.051   3.754   6.106  2.6577 -2.3417 -1.4845
  179SOPE   C1120366   4.033   3.613   5.950 -0.2446 -0.0316  0.1479
  179SOPE  H11A20367   4.122   3.565   5.997  0.4696  1.3573  0.2105
  179SOPE  H11B20368   4.085   3.681   5.879 -0.8779  1.5038  1.1370
  179SOPE     P20369   3.942   3.479   5.745 -0.4802  0.2151 -0.1158
  179SOPE   O1320370   3.938   3.611   5.680  0.1301 -0.3110  0.8099
  179SOPE   O1420371   3.831   3.390   5.705 -0.0710 -0.0290  0.2445
  179SOPE   O1220372   3.943   3.508   5.902 -0.0301  0.4191  0.2708
  179SOPE   O1120373   4.089   3.417   5.724  0.1550 -0.5856 -0.0709
  179SOPE    C120374   4.106   3.275   5.735 -0.8757 -0.2992  0.2620
  179SOPE    HA20375   4.134   3.232   5.637  2.0158  1.0531  0.4406
  179SOPE    HB20376   4.017   3.222   5.774 -0.1218 -0.9840  1.0762
  179SOPE    C220377   4.233   3.240   5.823  0.6600  0.0857  0.2354
  179SOPE    HS20378   4.226   3.129   5.827 -2.2376  0.1914 -0.4707
  179SOPE   O2120379   4.234   3.306   5.947  0.3365 -0.2477 -0.5070
  179SOPE   C2120380   4.148   3.264   6.032  0.3665 -0.2984 -0.2873
  179SOPE   O2220381   4.061   3.180   6.012 -0.4531  0.0802  0.0514
  179SOPE   C2220382   4.160   3.338   6.163  0.3100  0.6000  0.0333
  179SOPE   H2R20383   4.206   3.437   6.145  0.1764  0.8661  1.0901
  179SOPE   H2S20384   4.233   3.284   6.227 -0.6779  0.1580  0.8120
  179SOPE    C320385   4.357   3.268   5.734 -0.0163  0.0265 -0.7973
  179SOPE    HX20386   4.350   3.376   5.709 -0.1784  0.6322  1.7285
  179SOPE    HY20387   4.346   3.215   5.637  0.3251  1.8787 -1.8588
  179SOPE   O3120388   4.481   3.244   5.790 -0.6502 -0.2774  0.1584
  179SOPE   C3120389   4.517   3.117   5.813 -0.0500 -0.0798 -0.0434
  179SOPE   O3220390   4.452   3.021   5.782  0.1523  0.4137  0.3038
  179SOPE   C3220391   4.654   3.113   5.885  0.2242 -0.0656 -0.2013
  179SOPE   H2X20392   4.666   3.206   5.944 -2.5353  1.6682 -2.2467
  179SOPE   H2Y20393   4.734   3.120   5.808  0.3231  0.7190 -0.0264
  179SOPE   C2320394   4.021   3.348   6.220  0.5292 -0.1387  0.1869
  179SOPE   H3R20395   3.976   3.247   6.235  1.1982 -0.7878 -1.9264
  179SOPE   H3S20396   3.960   3.410   6.151  0.9499  0.0079 -0.0518
  179SOPE   C2420397   4.026   3.436   6.351  0.3488 -0.3993 -0.4594
  179SOPE   H4R20398   4.074   3.533   6.328  0.2685 -0.3776 -0.5367
  179SOPE   H4S20399   3.928   3.466   6.394  1.1544  1.6157 -0.0213
  179SOPE   C2520400   4.110   3.365   6.460  0.2073  0.3210 -0.4040
  179SOPE   H5R20401   4.077   3.260   6.446 -1.8820  0.7698  0.8964
  179SOPE   H5S20402   4.221   3.355   6.456  0.3887  0.7313  2.2859
  179SOPE   C2620403   4.069   3.407   6.604 -0.3047  0.4596  0.1170
  179SOPE   H6R20404   4.097   3.514   6.613 -1.4504  0.8479 -0.9423
  179SOPE   H6S20405   3.960   3.391   6.598 -0.0484 -0.6649 -2.1228
  179SOPE   C2720406   4.136   3.308   6.697 -0.1972 -0.1352 -0.1698
  179SOPE   H7R20407   4.161   3.215   6.641  1.8796  0.5779 -0.4615
  179SOPE   H7S20408   4.236   3.347   6.727 -0.6193  1.7191 -1.1773
  179SOPE   C2820409   4.055   3.279   6.828  0.0208 -0.3324  1.2859
  179SOPE   H8R20410   4.042   3.379   6.874  3.2625 -0.3798  2.3704
  179SOPE   H8S20411   3.962   3.233   6.786  1.1020 -0.5763 -0.9495
  179SOPE   C2920412   4.123   3.180   6.917 -0.5275  0.3811  0.1429
  179SOPE   H9120413   4.168   3.099   6.858 -1.5102 -0.4738  0.5351
  179SOPE  C21020414   4.122   3.181   7.050  0.6772 -0.3965 -0.0590
  179SOPE  H10120415   4.190   3.114   7.104 -0.2799 -1.6257 -0.3599
  179SOPE  C21120416   4.057   3.296   7.128  0.2542  0.4224 -0.2477
  179SOPE  H11R20417   3.946   3.294   7.127  0.2204  2.3700 -0.4537
  179SOPE  H11S20418   4.098   3.395   7.099  0.8512  0.1205 -0.4431
  179SOPE  C21220419   4.100   3.280   7.273  0.3156  0.4193 -1.1438
  179SOPE  H12R20420   4.211   3.289   7.273  0.1899  2.3397  0.2441
  179SOPE  H12S20421   4.073   3.179   7.310 -0.9878  1.0900 -0.2276
  179SOPE  C21320422   4.041   3.379   7.373  0.3761 -0.6116 -0.3403
  179SOPE  H13R20423   3.931   3.363   7.376  0.3889 -0.6576 -0.0498
  179SOPE  H13S20424   4.053   3.482   7.334  1.3596 -0.8257 -0.6210
  179SOPE  C21420425   4.112   3.355   7.512 -0.0009  0.1742  0.0292
  179SOPE  H14R20426   4.220   3.376   7.501  0.4312 -1.5701  0.8164
  179SOPE  H14S20427   4.110   3.247   7.538 -1.0866  0.6716  2.0895
  179SOPE  C21520428   4.048   3.446   7.614  0.4981 -0.3695 -0.2574
  179SOPE  H15R20429   3.940   3.420   7.603  0.5885 -1.9310  2.0714
  179SOPE  H15S20430   4.055   3.554   7.591  0.1541 -0.1568  0.5933
  179SOPE  C21620431   4.085   3.429   7.765  0.0037  0.2096 -0.7583
  179SOPE  H16R20432   4.080   3.320   7.784 -0.5020 -0.3885 -3.9819
  179SOPE  H16S20433   4.007   3.483   7.823  1.0609  1.6029 -0.6089
  179SOPE  C21720434   4.220   3.483   7.798 -0.1529 -0.3984  0.2264
  179SOPE  H17R20435   4.230   3.589   7.764 -2.0689  0.0876  1.1405
  179SOPE  H17S20436   4.298   3.424   7.745 -0.3265 -0.8069  0.4328
  179SOPE  C21820437   4.246   3.487   7.948  0.0091 -0.6734  0.7637
  179SOPE  H18R20438   4.235   3.384   7.988 -0.2430 -0.8070  0.3549
  179SOPE  H18S20439   4.187   3.557   8.010  1.7596  2.3527 -0.8279
  179SOPE  H18T20440   4.350   3.521   7.969  0.4122 -1.4435  0.0450
  179SOPE   C3320441   4.670   2.989   5.971 -0.2920 -0.6132 -0.1228
  179SOPE   H3X20442   4.769   2.997   6.021 -1.7700 -0.5929  2.8989
  179SOPE   H3Y20443   4.659   2.892   5.917  0.6273 -0.3303 -0.8239
  179SOPE   C3420444   4.568   2.973   6.087  0.1548  0.7052  0.8630
  179SOPE   H4X20445   4.562   2.867   6.118 -2.9209  0.2632 -0.9647
  179SOPE   H4Y20446   4.465   2.993   6.049  0.2803 -1.0528 -0.4713
  179SOPE   C3520447   4.592   3.061   6.205 -0.5637 -0.1277  0.5325
  179SOPE   H5X20448   4.611   3.166   6.175  1.5231 -1.2434 -2.2455
  179SOPE   H5Y20449   4.695   3.034   6.237 -0.9643  0.9978  2.8789
  179SOPE   C3620450   4.483   3.044   6.312  0.2072 -0.5207 -0.3421
  179SOPE   H6X20451   4.453   2.937   6.314 -0.3697 -0.3713  3.6329
  179SOPE   H6Y20452   4.404   3.112   6.274  0.4766  0.2474  0.4433
  179SOPE   C3720453   4.542   3.082   6.447  0.2024 -0.0376  0.1733
  179SOPE   H7X20454   4.566   3.190   6.455 -0.3763  0.3529 -2.9250
  179SOPE   H7Y20455   4.642   3.034   6.460  1.5314  2.5014 -0.1919
  179SOPE   C3820456   4.458   3.036   6.566 -0.1367 -0.5700 -0.3050
  179SOPE   H8X20457   4.404   2.943   6.537  0.7411 -1.0108 -0.5403
  179SOPE   H8Y20458   4.373   3.101   6.595  2.7627  2.5852  1.3545
  179SOPE   C3920459   4.540   3.017   6.693  0.3422  0.5331  0.1832
  179SOPE   H9X20460   4.633   3.078   6.700  0.4168  0.2058  2.4219
  179SOPE   H9Y20461   4.580   2.914   6.679  1.7505  1.4954 -3.5518
  179SOPE  C31020462   4.471   3.048   6.825 -0.3487  0.6387 -0.6075
  179SOPE  H10X20463   4.379   2.986   6.837  1.3034 -2.0757 -1.4517
  179SOPE  H10Y20464   4.451   3.157   6.826 -2.3101  0.3092 -1.1046
  179SOPE  C31120465   4.556   3.020   6.955  0.4479  0.3623  0.2112
  179SOPE  H11X20466   4.639   3.094   6.949  0.0834  1.0777  3.3738
  179SOPE  H11Y20467   4.616   2.926   6.956  0.8829  0.6477  1.8834
  179SOPE  C31220468   4.475   3.042   7.085  0.2459 -0.1297  0.1378
  179SOPE  H12X20469   4.402   2.958   7.082 -0.7618  0.7544 -3.9529
  179SOPE  H12Y20470   4.425   3.141   7.080  1.1917  0.3560  0.2422
  179SOPE  C31320471   4.567   3.053   7.206 -0.7928 -0.1493 -0.4987
  179SOPE  H13X20472   4.627   3.146   7.197  1.1389 -1.1272  1.6940
  179SOPE  H13Y20473   4.650   2.984   7.180 -0.9460 -0.3244 -0.5206
  179SOPE  C31420474   4.504   3.026   7.343 -0.5665 -0.1503 -0.0830
  179SOPE  H14X20475   4.454   2.927   7.336 -1.1294  0.1105  0.1648
  179SOPE  H14Y20476   4.418   3.093   7.369 -0.2447  0.6884 -1.1263
  179SOPE  C31520477   4.596   3.030   7.469  0.0507  0.3073 -0.3224
  179SOPE  H15X20478   4.701   3.018   7.433  0.1162  0.1407 -0.0742
  179SOPE  H15Y20479   4.571   2.939   7.527 -0.3110  0.5225 -0.1411
  179SOPE  C31620480   4.584   3.166   7.541 -0.0226  0.1698  0.3423
  179SOPE  H16X20481   4.548   3.242   7.469  0.2475  0.0695  0.1050
  179SOPE  H16Y20482   4.684   3.202   7.573 -0.1449 -0.7062  1.7752
  179SOPE  C31720483   4.506   3.167   7.675  0.6137 -0.2203 -0.6997
  179SOPE  H17X20484   4.403   3.139   7.647  1.0823 -0.5316 -2.1381
  179SOPE  H17Y20485   4.509   3.262   7.733  0.1320 -0.6910  0.1054
  179SOPE  C31820486   4.571   3.060   7.772  0.0718 -0.3748  0.1482
  179SOPE  H18X20487   4.679   3.079   7.790 -0.0948  0.2615  0.5242
  179SOPE  H18Y20488   4.551   2.962   7.725 -1.2228 -0.3091  0.5214
  179SOPE  H18Z20489   4.511   3.056   7.866 -2.0182 -3.9248 -1.2256
  180SOPE     N20490   3.683   1.068   5.541 -0.0662  0.0204 -0.1611
  180SOPE   HN120491   3.732   1.001   5.603 -0.4107 -0.9417 -0.9301
  180SOPE   HN220492   3.660   1.130   5.621 -2.3113  0.8217 -1.3897
  180SOPE   HN320493   3.607   1.027   5.484  0.1506 -1.0300  0.2959
  180SOPE   C1220494   3.781   1.151   5.459  0.4485  0.0856  0.5675
  180SOPE  H12A20495   3.746   1.256   5.463  0.5749  0.0822  2.3218
  180SOPE  H12B20496   3.769   1.128   5.351  0.7173 -1.5371  0.8691
  180SOPE   C1120497   3.924   1.135   5.497  0.1480 -0.6269  0.3476
  180SOPE  H11A20498   3.986   1.196   5.426  1.7999 -0.8621  1.5573
  180SOPE  H11B20499   3.954   1.029   5.481 -1.5194 -1.2876  1.5807
  180SOPE     P20500   4.100   1.175   5.680  0.0995  0.3212  0.0423
  180SOPE   O1320501   4.141   1.312   5.700  0.4341  0.0099 -0.1355
  180SOPE   O1420502   4.176   1.100   5.578  0.4482  0.2649  0.1067
  180SOPE   O1220503   3.948   1.170   5.637  0.4651  0.8108  0.0546
  180SOPE   O1120504   4.097   1.100   5.812  0.7381  0.0709  0.0864
  180SOPE    C120505   4.214   1.072   5.883  0.2929 -0.0350 -0.2704
  180SOPE    HA20506   4.309   1.114   5.844 -0.5298  1.7571 -0.4080
  180SOPE    HB20507   4.229   0.962   5.871 -0.4025 -0.0482 -1.0848
  180SOPE    C220508   4.200   1.107   6.033 -0.5424  0.8474  0.1267
  180SOPE    HS20509   4.298   1.086   6.082 -1.5132 -0.9985  1.3543
  180SOPE   O2120510   4.091   1.037   6.094  0.4065  0.0882 -0.2722
  180SOPE   C2120511   4.122   0.913   6.127  0.4203  1.2502  0.4710
  180SOPE   O2220512   4.233   0.861   6.110  0.6409  0.1406  0.6144
  180SOPE   C2220513   4.000   0.851   6.212 -0.1545  0.4221  1.1766
  180SOPE   H2R20514   3.912   0.862   6.145 -0.8081 -2.6618  1.4702
  180SOPE   H2S20515   3.991   0.921   6.298  0.6946 -0.7510  2.2392
  180SOPE    C320516   4.169   1.259   6.047  0.0174  0.2555 -0.3419
  180SOPE    HX20517   4.087   1.285   5.976 -0.3122 -0.4024 -0.2181
  180SOPE    HY20518   4.263   1.310   6.019 -0.2830  0.8284 -0.3187
  180SOPE   O3120519   4.115   1.298   6.181  0.4800  0.2084  0.1952
  180SOPE   C3120520   4.196   1.333   6.268  0.3010 -0.1863  0.3320
  180SOPE   O3220521   4.319   1.337   6.252  0.0913  0.6931 -0.2942
  180SOPE   C3220522   4.128   1.394   6.396  0.6132 -0.0273 -0.6883
  180SOPE   H2X20523   4.019   1.405   6.378  0.1315 -1.3230  1.1972
  180SOPE   H2Y20524   4.187   1.487   6.408  0.0586  0.1519  0.8190
  180SOPE   C2320525   4.014   0.711   6.275 -0.1140 -0.3353  0.1243
  180SOPE   H3R20526   4.027   0.637   6.194 -0.6558  0.0982 -0.3673
  180SOPE   H3S20527   3.919   0.686   6.327 -0.1390  1.5063  0.9944
  180SOPE   C2420528   4.132   0.694   6.370  0.6522 -0.1243 -0.2378
  180SOPE   H4R20529   4.211   0.772   6.359  1.3404 -0.6434  0.8949
  180SOPE   H4S20530   4.101   0.712   6.475  0.9399  1.6730 -0.4451
  180SOPE   C2520531   4.204   0.567   6.359 -0.1812  0.2686  0.7125
  180SOPE   H5R20532   4.151   0.476   6.396 -0.1021 -0.0882 -0.0361
  180SOPE   H5S20533   4.241   0.537   6.258  1.1204  0.7793  1.0321
  180SOPE   C2620534   4.321   0.570   6.455 -0.3187 -0.1353 -0.1327
  180SOPE   H6R20535   4.399   0.638   6.415  0.1354  0.4473  1.7075
  180SOPE   H6S20536   4.295   0.606   6.557 -1.9331  0.9893 -0.9148
  180SOPE   C2720537   4.384   0.434   6.458 -0.5237 -0.0567 -0.5218
  180SOPE   H7R20538   4.303   0.362   6.479 -2.2007  1.3663 -1.9076
  180SOPE   H7S20539   4.431   0.394   6.365 -1.2288 -0.8073 -0.5529
  180SOPE   C2820540   4.492   0.424   6.568  0.3867 -0.2526  0.2839
  180SOPE   H8R20541   4.584   0.467   6.522 -0.9161  0.5016 -1.6729
  180SOPE   H8S20542   4.460   0.497   6.646 -1.9695 -2.6505  1.6534
  180SOPE   C2920543   4.509   0.294   6.637  0.2458  0.0652  0.2945
  180SOPE   H9120544   4.583   0.235   6.580  0.8107  0.9340  0.1101
  180SOPE  C21020545   4.436   0.247   6.736 -0.2127 -0.0709 -0.1542
  180SOPE  H10120546   4.430   0.145   6.777  2.7924 -0.8485 -1.4953
  180SOPE  C21120547   4.340   0.336   6.804  0.4056  0.1831 -0.6969
  180SOPE  H11R20548   4.252   0.278   6.839  0.7067 -1.0808 -1.9648
  180SOPE  H11S20549   4.312   0.430   6.753 -0.3049  0.1904 -0.2932
  180SOPE  C21220550   4.406   0.381   6.941  0.4940  0.1264 -0.3469
  180SOPE  H12R20551   4.353   0.467   6.985  0.0137 -0.8319  1.0052
  180SOPE  H12S20552   4.513   0.409   6.928  0.7975 -1.3740 -1.2298
  180SOPE  C21320553   4.402   0.266   7.038  0.2445  0.1334 -0.5244
  180SOPE  H13R20554   4.478   0.191   7.006  1.0664  1.5883 -2.0912
  180SOPE  H13S20555   4.306   0.212   7.049  0.7940 -0.7898 -0.1767
  180SOPE  C21420556   4.446   0.315   7.173  0.9028 -0.4440  0.8797
  180SOPE  H14R20557   4.512   0.404   7.163  1.3845 -0.7441  1.3642
  180SOPE  H14S20558   4.484   0.230   7.233  1.3418 -0.8581  0.0203
  180SOPE  C21520559   4.324   0.367   7.255 -0.1392 -0.2648  0.1639
  180SOPE  H15R20560   4.251   0.284   7.271  0.3499 -0.4486  1.5599
  180SOPE  H15S20561   4.271   0.440   7.191  1.5359 -0.7428 -1.8396
  180SOPE  C21620562   4.354   0.447   7.378 -0.2252 -0.1206  0.2106
  180SOPE  H16R20563   4.262   0.455   7.440 -0.7249 -1.5846 -0.3178
  180SOPE  H16S20564   4.398   0.547   7.355  0.1877 -0.4824 -0.6123
  180SOPE  C21720565   4.454   0.384   7.471 -0.1330 -0.3183 -0.8611
  180SOPE  H17R20566   4.553   0.351   7.434  0.5858  0.0253  0.7002
  180SOPE  H17S20567   4.408   0.292   7.514  0.5754  0.0283  0.6929
  180SOPE  C21820568   4.493   0.481   7.586  0.6210  0.0360 -0.1607
  180SOPE  H18R20569   4.400   0.501   7.643  0.1507 -2.2040 -0.1077
  180SOPE  H18S20570   4.538   0.577   7.553 -0.0305 -0.7632 -3.5946
  180SOPE  H18T20571   4.565   0.427   7.650 -0.2309 -0.5317  0.3207
  180SOPE   C3320572   4.138   1.305   6.515 -0.1651 -0.4523  0.2370
  180SOPE   H3X20573   4.094   1.353   6.605  1.8187  1.1316  0.3976
  180SOPE   H3Y20574   4.246   1.288   6.537  0.2438  2.3885  0.6276
  180SOPE   C3420575   4.071   1.163   6.498 -0.3793 -0.6515  0.3059
  180SOPE   H4X20576   4.141   1.109   6.430  0.9658  1.8641 -0.3543
  180SOPE   H4Y20577   3.970   1.167   6.452  0.1087 -0.5120 -0.7622
  180SOPE   C3520578   4.050   1.097   6.635 -0.1903  0.0767  0.5513
  180SOPE   H5X20579   3.969   1.154   6.685  0.7390  2.4861 -0.6221
  180SOPE   H5Y20580   4.144   1.112   6.693  0.4592  0.0120 -0.4755
  180SOPE   C3620581   4.022   0.944   6.637 -0.1794 -0.5007 -0.4874
  180SOPE   H6X20582   4.109   0.887   6.598  1.5133  2.2384 -0.8209
  180SOPE   H6Y20583   3.939   0.939   6.562 -0.9204  0.0549  0.2841
  180SOPE   C3720584   3.968   0.881   6.775  0.0233  0.3514 -0.1323
  180SOPE   H7X20585   3.869   0.928   6.790 -0.8353 -1.7443  0.9583
  180SOPE   H7Y20586   4.040   0.917   6.853 -0.9234  0.2598  0.7935
  180SOPE   C3820587   3.947   0.731   6.782  0.2404 -0.3818  0.1884
  180SOPE   H8X20588   4.047   0.684   6.765 -0.6522 -2.0045 -0.7206
  180SOPE   H8Y20589   3.880   0.695   6.701  0.5063  0.8102 -0.5602
  180SOPE   C3920590   3.913   0.680   6.930 -0.0464 -0.0384 -0.3764
  180SOPE   H9X20591   3.996   0.718   6.994 -0.4672  1.0941 -0.4958
  180SOPE   H9Y20592   3.922   0.570   6.924 -1.8081 -0.4316  2.9965
  180SOPE  C31020593   3.777   0.725   6.979  0.2338  0.4002 -0.3192
  180SOPE  H10X20594   3.738   0.637   7.035  1.7619  1.9719  3.4203
  180SOPE  H10Y20595   3.702   0.745   6.900  0.6941 -3.4231 -1.8469
  180SOPE  C31120596   3.769   0.840   7.085  0.4796 -0.2757 -0.0303
  180SOPE  H11X20597   3.790   0.933   7.028  0.4555  0.6632  1.4865
  180SOPE  H11Y20598   3.844   0.822   7.165  0.1117 -2.7681 -0.2019
  180SOPE  C31220599   3.634   0.863   7.148  0.3413 -0.2778  0.1338
  180SOPE  H12X20600   3.608   0.768   7.199 -0.0782 -0.6491 -0.7468
  180SOPE  H12Y20601   3.569   0.888   7.061 -0.9053  0.6205  1.3092
  180SOPE  C31320602   3.636   0.979   7.247  0.8819 -0.2449  0.1171
  180SOPE  H13X20603   3.679   1.072   7.205  0.0491 -0.0592 -0.3464
  180SOPE  H13Y20604   3.701   0.959   7.334 -1.8443 -0.8746  2.0799
  180SOPE  C31420605   3.497   1.020   7.289  0.0276 -0.5094 -0.4541
  180SOPE  H14X20606   3.445   1.060   7.199  0.6788  0.9970 -0.1834
  180SOPE  H14Y20607   3.491   1.107   7.358 -1.1476  1.5253 -3.0209
  180SOPE  C31520608   3.405   0.912   7.343 -0.9295 -0.1060  0.0641
  180SOPE  H15X20609   3.454   0.875   7.436 -2.7158  0.6661  1.3377
  180SOPE  H15Y20610   3.403   0.821   7.280 -0.7779 -0.6399  0.8280
  180SOPE  C31620611   3.276   0.977   7.365  0.3386 -0.6381  0.2035
  180SOPE  H16X20612   3.232   1.011   7.269  0.0115  0.7972  0.8466
  180SOPE  H16Y20613   3.285   1.063   7.434  1.0249 -1.4568  1.1583
  180SOPE  C31720614   3.181   0.879   7.436  0.3246  0.1019 -0.3875
  180SOPE  H17X20615   3.232   0.829   7.521  1.1926  1.2281 -0.2249
  180SOPE  H17Y20616   3.153   0.796   7.369  1.4803  0.1474 -0.9398
  180SOPE  C31820617   3.056   0.931   7.506  0.5319 -0.5001  0.2500
  180SOPE  H18X20618   3.084   1.009   7.580  2.0422 -0.7391 -0.0473
  180SOPE  H18Y20619   3.007   0.850   7.562  1.3018  0.6999  2.7214
  180SOPE  H18Z20620   2.986   0.980   7.434  1.7629 -1.9947 -1.9961
  181SOPE     N20621   2.552   7.093   5.487 -0.3485  0.5089  0.0897
  181SOPE   HN120622   2.489   7.169   5.454  0.8224  1.3668 -0.1959
  181SOPE   HN220623   2.568   7.028   5.408  0.6479 -1.1352  1.6188
  181SOPE   HN320624   2.490   7.038   5.550  0.9890 -0.9364  0.1626
  181SOPE   C1220625   2.677   7.155   5.546  0.0382  0.6859 -0.4224
  181SOPE  H12A20626   2.728   7.213   5.465 -2.2300  1.9048 -1.0129
  181SOPE  H12B20627   2.740   7.065   5.563 -0.6068  0.7116  2.3134
  181SOPE   C1120628   2.649   7.241   5.667  0.2422  0.2758 -0.0513
  181SOPE  H11A20629   2.745   7.256   5.723  0.0668  1.5124 -0.0832
  181SOPE  H11B20630   2.579   7.181   5.729 -0.3616  0.8881 -0.1352
  181SOPE     P20631   2.659   7.491   5.628 -0.0399 -0.1806 -0.1987
  181SOPE   O1320632   2.574   7.593   5.568  0.4937 -0.0392 -0.4933
  181SOPE   O1420633   2.790   7.467   5.562  0.3794  0.6739 -0.1164
  181SOPE   O1220634   2.575   7.357   5.629  0.5036  0.4487 -0.1320
  181SOPE   O1120635   2.674   7.524   5.779  0.3012  0.5145 -0.0964
  181SOPE    C120636   2.676   7.656   5.838  0.1633 -0.7330  0.1354
  181SOPE    HA20637   2.602   7.676   5.919  0.9803  0.8835  0.5041
  181SOPE    HB20638   2.660   7.737   5.765 -0.8667  0.5118  1.7057
  181SOPE    C220639   2.807   7.677   5.917  0.2687  0.1423  0.6531
  181SOPE    HS20640   2.893   7.663   5.849  1.3364 -0.1558  2.0359
  181SOPE   O2120641   2.820   7.571   6.009  0.2560 -0.1216 -0.2126
  181SOPE   C2120642   2.945   7.525   6.034 -0.0494 -0.8136  0.1027
  181SOPE   O2220643   3.043   7.563   5.972  0.5883 -0.2525 -0.3798
  181SOPE   C2220644   2.941   7.407   6.130 -0.2858  0.1106 -0.1733
  181SOPE   H2R20645   2.869   7.332   6.090 -0.5332  0.6083 -0.6769
  181SOPE   H2S20646   2.912   7.440   6.232  1.0230  1.0403 -0.0893
  181SOPE    C320647   2.817   7.814   5.982 -0.2285  0.7829  0.2829
  181SOPE    HX20648   2.733   7.837   6.051  0.7653 -0.2588  1.8524
  181SOPE    HY20649   2.822   7.887   5.898 -2.7774  0.9221  0.2091
  181SOPE   O3120650   2.929   7.828   6.073 -1.0384  0.1542  0.4863
  181SOPE   C3120651   3.028   7.916   6.047  0.5062  0.1226  0.3086
  181SOPE   O3220652   3.055   7.959   5.937  0.6695  0.1532 -0.3516
  181SOPE   C3220653   3.114   7.948   6.171  0.1901 -0.3821  0.2463
  181SOPE   H2X20654   3.175   7.855   6.174  1.7465  0.5630 -1.1107
  181SOPE   H2Y20655   3.053   7.944   6.263 -0.3603 -0.3100 -0.1141
  181SOPE   C2320656   3.080   7.340   6.136  0.4400  0.1388  0.4352
  181SOPE   H3R20657   3.137   7.390   6.216  0.0434  1.8453 -0.3379
  181SOPE   H3S20658   3.146   7.358   6.049  2.6213  0.7687  2.1798
  181SOPE   C2420659   3.064   7.193   6.159 -0.2494  0.4595  0.6309
  181SOPE   H4R20660   3.016   7.133   6.078  1.1638  0.8715 -0.5488
  181SOPE   H4S20661   3.166   7.147   6.164 -1.1790 -2.0464 -1.6208
  181SOPE   C2520662   2.987   7.158   6.284  0.6142 -0.1051 -0.4775
  181SOPE   H5R20663   2.887   7.205   6.286  0.4712 -0.4153 -0.2434
  181SOPE   H5S20664   2.966   7.050   6.291 -0.9943  0.3301  2.3650
  181SOPE   C2620665   3.064   7.202   6.410 -0.3896 -0.1044 -0.0096
  181SOPE   H6R20666   3.162   7.151   6.419 -1.1005 -1.5008 -0.1694
  181SOPE   H6S20667   3.079   7.312   6.405  0.0297 -0.2644 -2.3031
  181SOPE   C2720668   2.992   7.190   6.541 -0.5404  0.0143 -0.0676
  181SOPE   H7R20669   3.056   7.227   6.624  0.0641 -1.3752  0.1051
  181SOPE   H7S20670   2.896   7.246   6.542 -0.5432  0.0092  1.6249
  181SOPE   C2820671   2.947   7.045   6.571 -0.2757 -0.3678 -0.6693
  181SOPE   H8R20672   2.884   7.063   6.661 -0.4800 -0.5367 -0.7757
  181SOPE   H8S20673   2.882   7.002   6.491  0.1887 -0.3894 -1.0387
  181SOPE   C2920674   3.068   6.967   6.609  0.3058  0.1110  0.2434
  181SOPE   H9120675   3.118   6.912   6.528 -1.0831  0.1158 -0.6190
  181SOPE  C21020676   3.127   6.957   6.730 -0.0038 -0.4404 -0.5556
  181SOPE  H10120677   3.233   6.927   6.726 -0.6341 -2.8940  0.4235
  181SOPE  C21120678   3.082   7.026   6.855 -0.0890  0.4993  0.4031
  181SOPE  H11R20679   3.032   7.121   6.827 -0.6911  0.2119  0.5014
  181SOPE  H11S20680   3.161   7.062   6.926 -1.4672  3.1188  0.6651
  181SOPE  C21220681   2.988   6.935   6.939  0.1712  0.2656  0.6607
  181SOPE  H12R20682   3.040   6.837   6.945  2.0232  1.1868  0.1249
  181SOPE  H12S20683   2.893   6.915   6.885  1.2518 -3.0227 -0.0967
  181SOPE  C21320684   2.963   7.000   7.073 -0.2147 -0.0157 -0.3426
  181SOPE  H13R20685   2.903   7.092   7.062 -1.1172 -0.7348 -1.5056
  181SOPE  H13S20686   3.059   7.039   7.114  0.2705 -0.7322 -0.7917
  181SOPE  C21420687   2.886   6.915   7.177  0.1783 -0.2248 -0.6735
  181SOPE  H14R20688   2.959   6.835   7.203 -1.7322 -2.2527 -1.4418
  181SOPE  H14S20689   2.794   6.871   7.134 -0.9924  2.2669 -0.8073
  181SOPE  C21520690   2.852   6.982   7.315  0.3982 -0.6743  0.0723
  181SOPE  H15R20691   2.803   7.080   7.293 -0.6159 -1.4927 -1.4348
  181SOPE  H15S20692   2.952   7.014   7.351  0.7476 -0.9610 -0.6229
  181SOPE  C21620693   2.766   6.904   7.408  0.3343 -0.5030  0.9053
  181SOPE  H16R20694   2.661   6.902   7.372 -0.1148 -0.3767  2.1785
  181SOPE  H16S20695   2.767   6.958   7.505  0.7213 -1.6106  1.5177
  181SOPE  C21720696   2.824   6.771   7.431 -0.1294  0.3888 -0.7071
  181SOPE  H17R20697   2.931   6.773   7.459 -0.1847  0.0805 -0.4692
  181SOPE  H17S20698   2.807   6.711   7.339 -1.1684 -0.0002 -0.2725
  181SOPE  C21820699   2.747   6.693   7.543 -0.4685  0.1374  0.0220
  181SOPE  H18R20700   2.721   6.758   7.629  2.2925 -0.6109  1.4957
  181SOPE  H18S20701   2.820   6.616   7.578  0.3581  0.1375 -1.6760
  181SOPE  H18T20702   2.655   6.644   7.505 -0.1637 -1.4406  1.2400
  181SOPE   C3320703   3.202   8.076   6.171  0.0992  0.7272  0.8827
  181SOPE   H3X20704   3.144   8.171   6.171  0.2550  0.8425 -0.9332
  181SOPE   H3Y20705   3.268   8.080   6.082  1.7633  0.0832  2.0637
  181SOPE   C3420706   3.299   8.052   6.286 -0.4220 -0.0595 -0.0776
  181SOPE   H4X20707   3.348   7.956   6.264  2.0664  1.1770 -0.0916
  181SOPE   H4Y20708   3.243   8.039   6.382 -2.8801  1.3580 -1.2622
  181SOPE   C3520709   3.407   8.156   6.300  0.3483  0.4573 -1.1964
  181SOPE   H5X20710   3.365   8.257   6.321 -0.3394  0.2585 -1.6229
  181SOPE   H5Y20711   3.447   8.174   6.198  3.1538  1.3993  0.0224
  181SOPE   C3620712   3.527   8.122   6.383 -0.7465 -0.3315 -0.5974
  181SOPE   H6X20713   3.613   8.186   6.354 -1.0497  0.2061 -0.3181
  181SOPE   H6Y20714   3.569   8.021   6.364  0.6231  0.1069 -0.0077
  181SOPE   C3720715   3.504   8.148   6.534 -0.3118  0.2225  0.5524
  181SOPE   H7X20716   3.402   8.192   6.545 -1.6099 -2.1659 -1.5147
  181SOPE   H7Y20717   3.572   8.231   6.563  1.5311 -1.9060  2.4768
  181SOPE   C3820718   3.518   8.024   6.626 -0.7802  0.2685 -0.2215
  181SOPE   H8X20719   3.619   7.979   6.616 -1.2515 -0.7393 -0.5008
  181SOPE   H8Y20720   3.458   7.950   6.569 -0.9876  0.3934 -0.1674
  181SOPE   C3920721   3.478   8.043   6.774  0.9085 -0.2582  0.3751
  181SOPE   H9X20722   3.527   8.137   6.807 -0.6878  1.5167 -2.0552
  181SOPE   H9Y20723   3.518   7.957   6.832 -0.1726  0.3334  2.0140
  181SOPE  C31020724   3.333   8.054   6.811 -0.4554 -0.3031 -0.6862
  181SOPE  H10X20725   3.279   7.963   6.780 -2.1007  0.5872 -0.4777
  181SOPE  H10Y20726   3.301   8.140   6.749  0.0429  1.8200  1.8896
  181SOPE  C31120727   3.297   8.092   6.957  0.1159 -0.6178  0.5254
  181SOPE  H11X20728   3.340   8.193   6.975 -1.9486  0.4664 -0.4521
  181SOPE  H11Y20729   3.335   8.012   7.024 -1.1705  0.1743  2.2537
  181SOPE  C31220730   3.149   8.085   6.991  0.1806 -0.2493  0.1981
  181SOPE  H12X20731   3.094   8.134   6.907 -0.8950  1.1483  1.6809
  181SOPE  H12Y20732   3.130   8.145   7.083  1.9510  0.2160  0.2722
  181SOPE  C31320733   3.096   7.948   7.007  1.0750 -0.3485  0.2790
  181SOPE  H13X20734   3.134   7.903   7.101  1.3104 -3.2325 -1.1240
  181SOPE  H13Y20735   3.123   7.880   6.922  4.2190 -1.0984  1.7958
  181SOPE  C31420736   2.947   7.946   7.004  0.3079  0.3192  0.0014
  181SOPE  H14X20737   2.905   7.961   6.903  0.2273  0.0661 -0.0040
  181SOPE  H14Y20738   2.916   8.030   7.070  0.5556 -0.0687  0.6184
  181SOPE  C31520739   2.884   7.810   7.043 -1.0547 -0.0182  0.3238
  181SOPE  H15X20740   2.774   7.819   7.038 -1.3641 -2.6962  1.3598
  181SOPE  H15Y20741   2.906   7.784   7.149 -1.9339  1.8519  0.9810
  181SOPE  C31620742   2.932   7.693   6.957 -0.7171  0.3250  0.1016
  181SOPE  H16X20743   3.035   7.707   6.918 -0.6990 -0.9473 -0.3204
  181SOPE  H16Y20744   2.870   7.704   6.865 -2.0231 -1.4163  0.7494
  181SOPE  C31720745   2.945   7.562   7.026 -0.2084  0.0341  0.0885
  181SOPE  H17X20746   2.853   7.545   7.086 -1.2250  0.9825 -1.1851
  181SOPE  H17Y20747   3.032   7.566   7.095  1.0421 -0.5443 -1.4148
  181SOPE  C31820748   2.976   7.443   6.930  0.5473 -0.3370 -0.6962
  181SOPE  H18X20749   2.881   7.412   6.881 -0.0743  1.5267 -0.7125
  181SOPE  H18Y20750   3.006   7.354   6.989 -0.2882  0.2055  0.5616
  181SOPE  H18Z20751   3.055   7.467   6.855  1.7744  0.5223  0.8357
  182SOPE     N20752   4.339   0.646   5.896  0.3494  0.9931 -0.0491
  182SOPE   HN120753   4.355   0.744   5.864 -0.5416  0.8406 -0.9799
  182SOPE   HN220754   4.345   0.582   5.814 -0.4306  0.1744  0.5225
  182SOPE   HN320755   4.238   0.640   5.919  0.4541 -1.1180 -0.0493
  182SOPE   C1220756   4.418   0.596   6.015  0.6539 -0.1915  0.3432
  182SOPE  H12A20757   4.411   0.486   6.003 -1.7603 -0.0938  0.6085
  182SOPE  H12B20758   4.376   0.638   6.109 -0.4604 -2.0114  0.6668
  182SOPE   C1120759   4.559   0.646   6.000 -0.6502  0.2080  0.6659
  182SOPE  H11A20760   4.620   0.606   6.083 -0.9293 -1.2836  0.1772
  182SOPE  H11B20761   4.561   0.755   6.020  1.9834  0.4053 -0.4983
  182SOPE     P20762   4.698   0.504   5.827 -0.1584 -0.2026 -0.2270
  182SOPE   O1320763   4.784   0.536   5.710 -0.3114  0.2559 -0.6325
  182SOPE   O1420764   4.585   0.409   5.798  0.0200 -0.1462 -0.5570
  182SOPE   O1220765   4.622   0.636   5.875 -0.5279 -0.1887  0.4936
  182SOPE   O1120766   4.785   0.458   5.959 -0.2977 -0.0076  0.2620
  182SOPE    C120767   4.896   0.370   5.930 -0.0510 -0.5348  0.1210
  182SOPE    HA20768   4.952   0.375   6.026  1.3943  1.0172 -0.7773
  182SOPE    HB20769   4.952   0.416   5.845  1.5418 -1.3642  0.6959
  182SOPE    C220770   4.863   0.225   5.886 -0.1892 -0.5411 -0.4784
  182SOPE    HS20771   4.804   0.228   5.792  1.3875  0.7203 -1.4643
  182SOPE   O2120772   4.797   0.168   6.002 -0.3214 -0.4058 -0.1189
  182SOPE   C2120773   4.764   0.043   5.986 -0.0160  0.0816  0.1251
  182SOPE   O2220774   4.759  -0.020   5.882  0.5314  0.2475 -0.6112
  182SOPE   C2220775   4.723  -0.017   6.131  0.3238 -0.5975  0.8108
  182SOPE   H2R20776   4.758   0.059   6.205  0.3685 -0.0540  0.2376
  182SOPE   H2S20777   4.788  -0.105   6.152 -0.4785 -1.4487 -0.2449
  182SOPE    C320778   4.993   0.152   5.848 -0.1827  0.0518  0.1933
  182SOPE    HX20779   5.035   0.193   5.753 -1.3610  0.9197  0.0257
  182SOPE    HY20780   4.977   0.049   5.810 -0.7570 -0.2006  1.1258
  182SOPE   O3120781   5.095   0.152   5.954 -0.0513  0.3568  0.4569
  182SOPE   C3120782   5.106   0.037   6.018 -0.0884  0.0330 -0.1703
  182SOPE   O3220783   5.058  -0.072   5.985 -0.3287 -0.2783  0.0172
  182SOPE   C3220784   5.203   0.054   6.137  0.0597  0.0674  0.4310
  182SOPE   H2X20785   5.298   0.087   6.090 -0.8080 -0.6070 -1.8203
  182SOPE   H2Y20786   5.217  -0.047   6.181 -0.8853 -0.4766 -0.4988
  182SOPE   C2320787   4.570  -0.049   6.123  0.0496  0.1026 -0.2583
  182SOPE   H3R20788   4.565  -0.137   6.056 -0.0841 -2.2496  2.7298
  182SOPE   H3S20789   4.513   0.038   6.083 -0.5190 -0.1672 -0.0400
  182SOPE   C2420790   4.525  -0.111   6.257  0.3595  0.1674 -0.0159
  182SOPE   H4R20791   4.441  -0.178   6.231  0.8234  0.3691 -2.0684
  182SOPE   H4S20792   4.613  -0.150   6.313 -0.3140 -3.9080 -1.6632
  182SOPE   C2520793   4.456  -0.006   6.344 -0.4120  0.3139  0.1131
  182SOPE   H5R20794   4.526   0.080   6.356 -0.6014  0.3149  1.3290
  182SOPE   H5S20795   4.368   0.039   6.294  0.4498  2.3561  0.3576
  182SOPE   C2620796   4.403  -0.057   6.478  0.3046 -0.7064 -0.3139
  182SOPE   H6R20797   4.379   0.033   6.539 -2.3096 -1.6687  0.1422
  182SOPE   H6S20798   4.322  -0.130   6.461  0.5491 -1.4036  1.3892
  182SOPE   C2720799   4.513  -0.132   6.566  0.2616  0.2452  0.2104
  182SOPE   H7R20800   4.531  -0.228   6.513  1.6614  1.3920 -1.4645
  182SOPE   H7S20801   4.604  -0.071   6.580 -1.5425  3.1679 -0.4197
  182SOPE   C2820802   4.462  -0.163   6.705  0.2763  0.0841 -0.3064
  182SOPE   H8R20803   4.426  -0.073   6.760  4.2690 -0.8953  4.2288
  182SOPE   H8S20804   4.375  -0.232   6.706 -0.5482  1.1003 -0.4401
  182SOPE   C2920805   4.556  -0.246   6.787  0.4334  0.4611 -0.0702
  182SOPE   H9120806   4.629  -0.304   6.729  0.9093  0.7235  0.2659
  182SOPE  C21020807   4.554  -0.255   6.924 -0.1443 -0.2969 -0.4145
  182SOPE  H10120808   4.626  -0.317   6.979  0.2163 -0.0099 -0.5665
  182SOPE  C21120809   4.457  -0.182   7.010  0.6459 -0.3798 -0.2587
  182SOPE  H11R20810   4.357  -0.192   6.962  0.0713 -0.2300  0.8936
  182SOPE  H11S20811   4.474  -0.073   7.000 -1.4185  0.2164  2.3953
  182SOPE  C21220812   4.441  -0.226   7.153  0.7521 -0.2470 -0.3547
  182SOPE  H12R20813   4.536  -0.238   7.211  0.7625 -0.7808 -0.4818
  182SOPE  H12S20814   4.396  -0.327   7.142 -0.1813  0.0233  0.9324
  182SOPE  C21320815   4.341  -0.148   7.240 -0.6711  0.5143  0.6006
  182SOPE  H13R20816   4.315  -0.225   7.316  0.1170 -2.6321 -2.1717
  182SOPE  H13S20817   4.248  -0.127   7.182 -0.1946 -2.0889 -1.2309
  182SOPE  C21420818   4.394  -0.018   7.307 -0.4426 -0.6389  0.2053
  182SOPE  H14R20819   4.337   0.072   7.274 -0.8269 -1.2090 -0.7339
  182SOPE  H14S20820   4.505  -0.008   7.305 -0.4920  0.1974  1.5974
  182SOPE  C21520821   4.353  -0.010   7.454  0.0480  0.0084 -0.6374
  182SOPE  H15R20822   4.411   0.067   7.509 -0.5050 -1.7858  2.6505
  182SOPE  H15S20823   4.373  -0.109   7.502 -1.7661  0.2160  0.5922
  182SOPE  C21620824   4.203   0.004   7.485  0.2004 -0.4781 -0.1253
  182SOPE  H16R20825   4.155  -0.092   7.458  0.9950 -0.8118 -0.3856
  182SOPE  H16S20826   4.161   0.072   7.407  0.6842  0.2846  0.2700
  182SOPE  C21720827   4.170   0.058   7.628 -0.8386  0.2253  0.0884
  182SOPE  H17R20828   4.224   0.151   7.655  1.0691 -1.1269  1.0764
  182SOPE  H17S20829   4.190  -0.017   7.708 -0.3269 -0.4697 -0.6773
  182SOPE  C21820830   4.025   0.101   7.644  0.7754 -0.9751 -0.2746
  182SOPE  H18R20831   4.023   0.211   7.632  0.1699 -1.0114 -0.5538
  182SOPE  H18S20832   3.984   0.083   7.746  0.6413  1.5818  0.1469
  182SOPE  H18T20833   3.964   0.053   7.565  1.4142 -1.0144 -0.7490
  182SOPE   C3320834   5.145   0.133   6.247 -0.2977  0.3559 -0.2607
  182SOPE   H3X20835   5.104   0.233   6.220 -2.0408 -0.3161 -0.1734
  182SOPE   H3Y20836   5.224   0.154   6.322  0.9532 -0.4572 -1.3301
  182SOPE   C3420837   5.027   0.063   6.323  0.0655  1.0935 -0.1182
  182SOPE   H4X20838   5.073  -0.016   6.386  2.7564  1.7285 -1.2172
  182SOPE   H4Y20839   4.959   0.018   6.248 -0.9228  1.0726  0.7825
  182SOPE   C3520840   4.947   0.158   6.414 -0.6144  0.4545  0.5854
  182SOPE   H5X20841   4.871   0.088   6.456 -2.5038  0.4948 -2.6022
  182SOPE   H5Y20842   4.897   0.234   6.350 -0.2916  0.3769  0.2384
  182SOPE   C3620843   5.027   0.233   6.522  0.5487  0.3381  0.2577
  182SOPE   H6X20844   5.096   0.306   6.475 -0.3349 -0.4209 -2.2602
  182SOPE   H6Y20845   5.087   0.152   6.570  1.1943 -0.1908 -1.3932
  182SOPE   C3720846   4.943   0.301   6.627 -0.0618 -0.6063 -0.3692
  182SOPE   H7X20847   4.861   0.360   6.581  0.9845  1.1496 -0.0358
  182SOPE   H7Y20848   5.010   0.372   6.680  1.4553 -1.7403 -0.7290
  182SOPE   C3820849   4.902   0.197   6.724  0.3852 -0.2588  0.5592
  182SOPE   H8X20850   4.983   0.143   6.777  2.4873  0.7324 -1.5764
  182SOPE   H8Y20851   4.840   0.120   6.673  0.6474  0.0821 -0.2906
  182SOPE   C3920852   4.809   0.262   6.831 -0.1892  0.6609 -0.1782
  182SOPE   H9X20853   4.722   0.304   6.776 -1.2899 -0.1128  0.9332
  182SOPE   H9Y20854   4.861   0.342   6.888 -1.1532  1.6498 -0.6613
  182SOPE  C31020855   4.737   0.166   6.923  0.5837  0.1349  0.3702
  182SOPE  H10X20856   4.678   0.094   6.863  1.7298 -1.7900  1.5153
  182SOPE  H10Y20857   4.676   0.233   6.986 -0.7390  1.2697 -2.0413
  182SOPE  C31120858   4.824   0.095   7.024  0.2881  0.7116  0.0051
  182SOPE  H11X20859   4.893   0.163   7.079 -0.0557  0.3190  0.9312
  182SOPE  H11Y20860   4.893   0.028   6.967 -1.5149 -1.9216  0.7938
  182SOPE  C31220861   4.747   0.004   7.128 -0.0181  0.3548 -0.5269
  182SOPE  H12X20862   4.694  -0.081   7.080  1.2045 -0.4408 -0.4866
  182SOPE  H12Y20863   4.666   0.063   7.177 -0.4831 -1.2992  0.7467
  182SOPE  C31320864   4.844  -0.061   7.237  0.3303 -0.1017 -0.1799
  182SOPE  H13X20865   4.778  -0.098   7.319  0.9852  2.2691  1.4691
  182SOPE  H13Y20866   4.908   0.022   7.273  2.5547 -0.7537 -2.4622
  182SOPE  C31420867   4.930  -0.181   7.191  0.1650  0.7670 -0.5927
  182SOPE  H14X20868   4.977  -0.147   7.096 -0.3005 -1.9726 -1.8331
  182SOPE  H14Y20869   4.862  -0.261   7.155 -0.4293  0.8465  0.3313
  182SOPE  C31520870   5.024  -0.246   7.299 -0.0896 -0.6028  0.0518
  182SOPE  H15X20871   5.103  -0.171   7.319 -0.0867 -0.4366 -0.5817
  182SOPE  H15Y20872   5.077  -0.334   7.255  2.1821  0.8485 -0.1930
  182SOPE  C31620873   4.948  -0.295   7.425 -0.1531  0.0279 -0.4067
  182SOPE  H16X20874   4.853  -0.353   7.420  0.3020 -0.6429 -1.6309
  182SOPE  H16Y20875   4.911  -0.201   7.469  0.2479  0.1285 -0.2835
  182SOPE  C31720876   5.049  -0.361   7.518 -0.1451 -0.3725 -0.4311
  182SOPE  H17X20877   5.137  -0.297   7.537  0.0329 -0.2199 -1.7346
  182SOPE  H17Y20878   5.091  -0.450   7.467  0.3865 -0.1396 -0.3992
  182SOPE  C31820879   4.977  -0.394   7.656  0.1041 -0.0975 -0.3819
  182SOPE  H18X20880   5.047  -0.424   7.736 -1.3925 -1.5988  0.4098
  182SOPE  H18Y20881   4.905  -0.478   7.644 -2.5240  1.7167  1.9683
  182SOPE  H18Z20882   4.927  -0.297   7.676 -1.4635 -1.5600  3.2272
  183SOPE     N20883   6.890   6.187   5.560  0.1651  0.0220  0.4212
  183SOPE   HN120884   6.927   6.275   5.601  0.6144  0.7996 -1.5925
  183SOPE   HN220885   6.958   6.168   5.483  2.2972  0.3981  2.1512
  183SOPE   HN320886   6.795   6.199   5.520  0.4647 -3.6761 -1.6738
  183SOPE   C1220887   6.894   6.078   5.674  0.6420  0.0588 -0.2571
  183SOPE  H12A20888   6.819   6.094   5.755  0.8491  0.1872 -0.0911
  183SOPE  H12B20889   6.998   6.087   5.712 -0.1849  1.6144  1.7065
  183SOPE   C1120890   6.884   5.934   5.617  0.1678 -0.5953  0.6375
  183SOPE  H11A20891   6.915   5.857   5.690 -1.5341 -0.0537  1.9603
  183SOPE  H11B20892   6.945   5.913   5.526  1.6926  1.9985  1.0081
  183SOPE     P20893   6.633   5.874   5.671  0.3230 -0.0286  0.5204
  183SOPE   O1320894   6.569   5.749   5.629  0.0224  0.4585  0.3291
  183SOPE   O1420895   6.541   5.995   5.671  0.1752  0.5413  0.4708
  183SOPE   O1220896   6.753   5.907   5.574  0.2747  0.0831 -0.1404
  183SOPE   O1120897   6.693   5.856   5.821 -0.4552 -0.3775 -0.4247
  183SOPE    C120898   6.757   5.736   5.859  0.0382 -0.8741  0.4893
  183SOPE    HA20899   6.863   5.739   5.827 -1.3897  1.1695 -4.4858
  183SOPE    HB20900   6.707   5.647   5.814  0.5329 -0.8402 -0.1325
  183SOPE    C220901   6.745   5.706   6.012 -0.4109 -0.7376 -0.2779
  183SOPE    HS20902   6.832   5.645   6.046 -0.5878  0.6572  2.9345
  183SOPE   O2120903   6.621   5.645   6.044 -0.1699  0.0489 -0.1750
  183SOPE   C2120904   6.609   5.584   6.156 -0.1147  0.1378 -0.6864
  183SOPE   O2220905   6.704   5.546   6.228 -0.1959  0.3543  0.2732
  183SOPE   C2220906   6.467   5.546   6.174 -0.3330  0.2700 -0.2700
  183SOPE   H2R20907   6.448   5.454   6.115  1.3164 -0.6436  0.5734
  183SOPE   H2S20908   6.395   5.626   6.147  0.2916  0.4174 -1.5489
  183SOPE    C320909   6.750   5.845   6.077 -0.0618 -0.0320 -0.0112
  183SOPE    HX20910   6.666   5.909   6.041  0.5068 -0.4366 -2.1344
  183SOPE    HY20911   6.837   5.908   6.050 -0.7720  1.0152  0.1167
  183SOPE   O3120912   6.738   5.841   6.225  0.4338  0.0108  0.0331
  183SOPE   C3120913   6.848   5.794   6.284  0.9433  0.3210 -0.2254
  183SOPE   O3220914   6.948   5.757   6.229  0.2160 -0.1681 -0.3052
  183SOPE   C3220915   6.816   5.783   6.431 -0.9736 -0.3075  0.6039
  183SOPE   H2X20916   6.711   5.747   6.438 -0.9711 -0.3113  0.6065
  183SOPE   H2Y20917   6.833   5.884   6.474  1.4720 -0.1812 -0.5753
  183SOPE   C2320918   6.436   5.499   6.316 -0.0842 -0.1165 -0.5003
  183SOPE   H3R20919   6.479   5.567   6.393 -2.1805  1.7503 -0.9426
  183SOPE   H3S20920   6.477   5.395   6.316 -1.1316 -0.5396 -1.3676
  183SOPE   C2420921   6.287   5.499   6.348  0.4776 -0.0285  0.0069
  183SOPE   H4R20922   6.233   5.593   6.325  0.6138  0.4664  1.6670
  183SOPE   H4S20923   6.240   5.424   6.280 -2.1396  1.5984 -0.0213
  183SOPE   C2520924   6.251   5.448   6.489  0.3876  0.1274  0.6504
  183SOPE   H5R20925   6.140   5.449   6.493  0.2586 -2.7715 -0.8355
  183SOPE   H5S20926   6.277   5.342   6.510  2.5047 -0.1361 -2.9061
  183SOPE   C2620927   6.287   5.541   6.606 -0.4850 -0.0573 -0.4032
  183SOPE   H6R20928   6.396   5.563   6.605 -0.1767 -1.5176 -1.0891
  183SOPE   H6S20929   6.237   5.636   6.576 -0.6824 -0.7552 -2.3772
  183SOPE   C2720930   6.239   5.501   6.751  0.0227  0.0940 -0.6564
  183SOPE   H7R20931   6.202   5.596   6.795  0.7087  1.7161 -3.4381
  183SOPE   H7S20932   6.150   5.435   6.748  0.1495 -0.0412 -2.3229
  183SOPE   C2820933   6.354   5.442   6.831  0.0014  0.0142  0.2624
  183SOPE   H8R20934   6.441   5.510   6.824 -0.0531  0.2699  1.9085
  183SOPE   H8S20935   6.331   5.447   6.939  1.2841  2.7978  0.4270
  183SOPE   C2920936   6.395   5.298   6.805  0.3642 -0.0145 -0.3538
  183SOPE   H9120937   6.409   5.278   6.698  1.6576 -2.3373  0.2287
  183SOPE  C21020938   6.401   5.197   6.896  0.2453 -0.3799 -0.2695
  183SOPE  H10120939   6.443   5.102   6.860 -3.7184 -2.0067 -0.8944
  183SOPE  C21120940   6.357   5.195   7.046  0.1164 -0.1138 -0.6355
  183SOPE  H11R20941   6.310   5.096   7.065 -0.8719  0.5925  0.6952
  183SOPE  H11S20942   6.286   5.278   7.063 -0.4948 -0.3912 -1.8006
  183SOPE  C21220943   6.471   5.221   7.152  0.0501 -0.5527 -0.7047
  183SOPE  H12R20944   6.522   5.318   7.132 -2.8273  0.9486 -1.0044
  183SOPE  H12S20945   6.542   5.136   7.148  1.3111  0.4082  0.8257
  183SOPE  C21320946   6.407   5.218   7.295 -0.4699  0.7602 -0.3206
  183SOPE  H13R20947   6.361   5.117   7.305 -0.7347  0.8241 -0.8744
  183SOPE  H13S20948   6.329   5.296   7.308 -0.2058  1.0295 -0.3367
  183SOPE  C21420949   6.510   5.238   7.412  0.5954 -0.0738  0.5459
  183SOPE  H14R20950   6.452   5.213   7.503  1.7962 -0.4907  1.2135
  183SOPE  H14S20951   6.528   5.347   7.426 -1.1065  0.2132  0.5868
  183SOPE  C21520952   6.638   5.155   7.404  0.0670 -0.5056 -0.1073
  183SOPE  H15R20953   6.703   5.221   7.343 -0.0787 -0.9197 -0.7005
  183SOPE  H15S20954   6.624   5.065   7.341 -1.0375 -0.7683  0.4971
  183SOPE  C21620955   6.689   5.112   7.544  0.4519 -0.0396  0.4873
  183SOPE  H16R20956   6.619   5.046   7.599  1.0412 -0.7260  0.4202
  183SOPE  H16S20957   6.712   5.209   7.594  2.1568  1.7074 -3.4673
  183SOPE  C21720958   6.816   5.029   7.539 -0.2681  0.2693 -0.7252
  183SOPE  H17R20959   6.779   4.931   7.503  2.3149 -0.6081 -1.1260
  183SOPE  H17S20960   6.866   5.026   7.638  0.8154  2.8394 -1.1442
  183SOPE  C21820961   6.932   5.070   7.448  0.4718 -0.4106  0.2632
  183SOPE  H18R20962   6.955   5.173   7.483 -0.0838 -0.7634  1.6763
  183SOPE  H18S20963   6.894   5.071   7.343  0.4565  2.2543  0.2647
  183SOPE  H18T20964   7.020   5.003   7.458  1.2101  0.9080  3.0868
  183SOPE   C3320965   6.894   5.681   6.520  0.8669 -0.7963  0.5318
  183SOPE   H3X20966   7.003   5.686   6.499  0.6088 -1.2366 -1.0182
  183SOPE   H3Y20967   6.881   5.575   6.488  3.1459 -1.4790  1.8045
  183SOPE   C3420968   6.856   5.710   6.667 -0.3058  0.5306  0.9257
  183SOPE   H4X20969   6.889   5.813   6.691  2.3391  0.5339 -2.3740
  183SOPE   H4Y20970   6.923   5.642   6.722  3.4955  3.3371 -0.0067
  183SOPE   C3520971   6.715   5.669   6.699 -0.4513 -0.9041 -0.1063
  183SOPE   H5X20972   6.721   5.580   6.764  0.6823 -2.0884 -1.7983
  183SOPE   H5Y20973   6.650   5.646   6.612  1.2860 -1.1735 -1.3701
  183SOPE   C3620974   6.637   5.776   6.786 -0.0397 -0.9177 -0.4351
  183SOPE   H6X20975   6.546   5.728   6.829 -1.1719  2.2828  0.8553
  183SOPE   H6Y20976   6.597   5.851   6.714  0.3478 -1.4059 -1.1765
  183SOPE   C3720977   6.706   5.833   6.910  0.0186 -0.0084  0.4033
  183SOPE   H7X20978   6.626   5.886   6.965  0.8019  2.6822 -0.9438
  183SOPE   H7Y20979   6.782   5.907   6.875 -1.4705  0.6463 -1.5325
  183SOPE   C3820980   6.764   5.727   7.011  0.2042  0.3149  0.3818
  183SOPE   H8X20981   6.858   5.685   6.968 -0.0168  0.9787 -0.7790
  183SOPE   H8Y20982   6.689   5.646   7.020  0.7562 -0.0572  1.6559
  183SOPE   C3920983   6.807   5.780   7.152 -0.4371 -0.8401 -0.6070
  183SOPE   H9X20984   6.723   5.821   7.211  0.9182 -0.1375  0.8608
  183SOPE   H9Y20985   6.890   5.848   7.123  0.0780 -0.3131  1.9658
  183SOPE  C31020986   6.893   5.683   7.233 -1.1620 -0.4160  0.4461
  183SOPE  H10X20987   6.944   5.732   7.319  0.1947  0.0471 -0.6001
  183SOPE  H10Y20988   6.972   5.622   7.185 -2.6267 -1.3618 -0.8221
  183SOPE  C31120989   6.811   5.584   7.321 -0.3031  0.2931  0.3387
  183SOPE  H11X20990   6.814   5.483   7.275  1.7490 -0.3077  1.6734
  183SOPE  H11Y20991   6.706   5.617   7.330 -1.1194 -2.3014  0.5715
  183SOPE  C31220992   6.849   5.574   7.471  0.2334  0.5331  0.3726
  183SOPE  H12X20993   6.848   5.676   7.516  1.2195 -0.4137  2.5914
  183SOPE  H12Y20994   6.948   5.526   7.460 -0.3380 -0.4768 -0.3666
  183SOPE  C31320995   6.752   5.479   7.547 -0.6178  0.4248  0.4500
  183SOPE  H13X20996   6.781   5.374   7.525 -0.8970  0.5773 -0.6594
  183SOPE  H13Y20997   6.649   5.496   7.510 -1.4767 -3.8894  0.6096
  183SOPE  C31420998   6.748   5.485   7.698 -0.0780 -0.4239 -0.1778
  183SOPE  H14X20999   6.839   5.433   7.736  0.0104 -2.4072 -2.9335
  183SOPE  H14Y21000   6.656   5.430   7.726 -0.8715  0.7448 -0.4468
  183SOPE  C31521001   6.739   5.624   7.758  0.2442  0.4002  0.0761
  183SOPE  H15X21002   6.649   5.671   7.712  0.7206  0.6386 -0.6239
  183SOPE  H15Y21003   6.825   5.691   7.741 -0.1287  1.3197  1.7677
  183SOPE  C31621004   6.698   5.621   7.902  0.5225  0.2234  0.2754
  183SOPE  H16X21005   6.594   5.583   7.912  0.6393  0.2765  1.8882
  183SOPE  H16Y21006   6.686   5.721   7.949 -1.9245  0.3772 -0.6542
  183SOPE  C31721007   6.793   5.541   7.991  0.3626 -0.7445  0.3198
  183SOPE  H17X21008   6.898   5.578   7.986  0.8691 -2.0744  0.9895
  183SOPE  H17Y21009   6.795   5.437   7.952  0.6450 -0.9852  0.9761
  183SOPE  C31821010   6.754   5.527   8.137  0.3321 -0.2872 -0.2097
  183SOPE  H18X21011   6.768   5.625   8.189 -1.7830  0.5328 -1.1458
  183SOPE  H18Y21012   6.820   5.462   8.198 -0.6542 -1.4512 -0.3780
  183SOPE  H18Z21013   6.647   5.500   8.142  0.3979 -0.2519  1.7363
  184SOPE     N21014   5.087   6.892   5.760  0.2262  0.0484  0.3629
  184SOPE   HN121015   5.153   6.949   5.816 -1.3489  0.7886  1.5132
  184SOPE   HN221016   5.131   6.814   5.708  2.0356  2.1234 -1.3055
  184SOPE   HN321017   5.046   6.950   5.684 -0.1276  2.0936  2.0850
  184SOPE   C1221018   4.972   6.834   5.840 -0.2785 -0.1897  0.5300
  184SOPE  H12A21019   4.916   6.912   5.896 -0.8383 -0.0971 -0.1522
  184SOPE  H12B21020   5.015   6.761   5.912 -1.1374 -1.5707 -0.3627
  184SOPE   C1121021   4.865   6.758   5.749 -0.4499  0.6333  0.6000
  184SOPE  H11A21022   4.787   6.713   5.814 -0.8550 -0.1362 -0.4082
  184SOPE  H11B21023   4.916   6.680   5.690 -1.6382  0.0188  0.3614
  184SOPE     P21024   4.706   6.838   5.558  0.3577  0.3413  0.1761
  184SOPE   O1321025   4.757   6.730   5.475 -0.4039  0.2226  0.4363
  184SOPE   O1421026   4.680   6.972   5.492  0.3450  1.3706 -0.1500
  184SOPE   O1221027   4.810   6.866   5.673 -0.5030 -0.1159  0.6145
  184SOPE   O1121028   4.587   6.793   5.647  0.0233 -0.2447 -0.4032
  184SOPE    C121029   4.555   6.877   5.763 -0.6118  0.3860 -0.8978
  184SOPE    HA21030   4.586   6.982   5.744 -0.7228  0.5987  0.0664
  184SOPE    HB21031   4.618   6.848   5.850 -2.4118 -0.4650  0.1573
  184SOPE    C221032   4.409   6.858   5.790 -0.0213  0.9177 -0.2751
  184SOPE    HS21033   4.361   6.864   5.690 -0.5286 -4.2373 -0.4640
  184SOPE   O2121034   4.361   6.953   5.887 -0.0674  0.0544 -0.6600
  184SOPE   C2121035   4.231   6.972   5.880  0.5298  0.3949 -0.6065
  184SOPE   O2221036   4.157   6.929   5.797 -0.8158  0.1495 -0.6237
  184SOPE   C2221037   4.187   7.048   6.000  0.5125  0.2034 -0.1968
  184SOPE   H2R21038   4.190   7.154   5.967 -1.3337  1.0604  2.2668
  184SOPE   H2S21039   4.266   7.043   6.079 -0.6128  1.8189  1.0840
  184SOPE    C321040   4.376   6.712   5.830 -0.0093 -0.2052 -1.2388
  184SOPE    HX21041   4.430   6.661   5.748  1.3735  2.1671 -1.8510
  184SOPE    HY21042   4.268   6.684   5.821  0.3048 -2.2277  0.6352
  184SOPE   O3121043   4.434   6.682   5.953 -0.1760 -0.0162 -0.5314
  184SOPE   C3121044   4.364   6.693   6.065  0.8429  0.3070  0.3234
  184SOPE   O3221045   4.242   6.713   6.062 -0.2265  0.1355 -0.1421
  184SOPE   C3221046   4.453   6.656   6.184  0.1408  0.0697 -0.0023
  184SOPE   H2X21047   4.547   6.713   6.171 -0.5003  1.2240  0.4106
  184SOPE   H2Y21048   4.474   6.546   6.183  2.2817  0.4544 -0.6222
  184SOPE   C2321049   4.042   7.014   6.041  0.0777  0.1110  0.0213
  184SOPE   H3R21050   4.053   6.911   6.083  2.3409  0.8759  1.4544
  184SOPE   H3S21051   3.963   7.026   5.965 -0.2969  0.1715  0.4143
  184SOPE   C2421052   3.982   7.092   6.163 -0.2098 -0.4090  0.4721
  184SOPE   H4R21053   4.024   7.194   6.149 -0.4752 -0.3746 -0.1035
  184SOPE   H4S21054   3.871   7.086   6.156 -0.2294 -4.0397  2.6731
  184SOPE   C2521055   4.037   7.038   6.297  0.3614  0.2133  0.4520
  184SOPE   H5R21056   3.994   6.936   6.306  1.0954 -0.4474 -2.8867
  184SOPE   H5S21057   4.146   7.019   6.293  0.1305 -1.1144  0.1311
  184SOPE   C2621058   4.011   7.113   6.419  0.8312  0.4173 -0.5943
  184SOPE   H6R21059   4.066   7.209   6.420 -2.6685  2.5139 -1.4068
  184SOPE   H6S21060   3.908   7.153   6.434  0.0402 -1.6676 -0.3076
  184SOPE   C2721061   4.048   7.037   6.545  0.3223 -0.1737  0.7614
  184SOPE   H7R21062   3.961   6.979   6.584 -0.6537 -0.0339 -1.1325
  184SOPE   H7S21063   4.132   6.965   6.539 -0.3689 -1.0892  1.9484
  184SOPE   C2821064   4.075   7.143   6.659  0.2769 -0.0841 -0.4928
  184SOPE   H8R21065   4.146   7.222   6.629  0.9244 -0.3922  0.2204
  184SOPE   H8S21066   3.977   7.192   6.681  0.5788  0.8352 -1.1761
  184SOPE   C2921067   4.131   7.086   6.788  0.0927  0.5163  0.4937
  184SOPE   H9121068   4.238   7.105   6.801  0.0066  0.0917  1.8781
  184SOPE  C21021069   4.057   7.033   6.889  0.6000 -0.0324  0.8945
  184SOPE  H10121070   4.109   7.007   6.982 -0.4840  2.4488  2.2320
  184SOPE  C21121071   3.908   7.009   6.893  0.0570 -0.6571  0.3764
  184SOPE  H11R21072   3.888   6.904   6.864 -0.0486 -1.3769  2.9321
  184SOPE  H11S21073   3.851   7.073   6.822 -2.1145 -1.2570  1.5387
  184SOPE  C21221074   3.842   7.038   7.034 -0.3659 -0.4475  1.1208
  184SOPE  H12R21075   3.736   7.045   7.001 -0.6985  0.0751  2.2682
  184SOPE  H12S21076   3.878   7.136   7.072 -0.1836  0.0854 -0.3968
  184SOPE  C21321077   3.878   6.946   7.147 -0.6380  0.3200 -0.0982
  184SOPE  H13R21078   3.980   6.972   7.184 -0.5065 -3.1249  2.1338
  184SOPE  H13S21079   3.879   6.843   7.107 -0.7893  0.3703 -0.2310
  184SOPE  C21421080   3.790   6.972   7.268 -0.7690 -0.7827  0.4829
  184SOPE  H14R21081   3.683   6.982   7.241 -0.1289 -1.4435 -2.5549
  184SOPE  H14S21082   3.811   7.071   7.314 -0.6332 -0.6427  0.1218
  184SOPE  C21521083   3.806   6.871   7.376  0.0411 -0.6311 -0.7207
  184SOPE  H15R21084   3.910   6.879   7.414  0.0710  0.0140 -0.9328
  184SOPE  H15S21085   3.797   6.765   7.344 -1.1197 -0.2411 -1.7428
  184SOPE  C21621086   3.706   6.885   7.490  0.2958 -0.6367  0.0478
  184SOPE  H16R21087   3.603   6.876   7.450 -0.1184  0.0987  0.9121
  184SOPE  H16S21088   3.713   6.989   7.530  2.7312 -0.0484 -1.8283
  184SOPE  C21721089   3.711   6.770   7.592  0.2728 -0.6944 -0.4246
  184SOPE  H17R21090   3.653   6.802   7.682  2.4827  3.1421 -0.2603
  184SOPE  H17S21091   3.817   6.764   7.623 -0.6396 -0.6911  2.9452
  184SOPE  C21821092   3.648   6.639   7.550 -0.3271  0.1457 -0.3511
  184SOPE  H18R21093   3.705   6.554   7.594 -0.1002  0.0369 -0.8491
  184SOPE  H18S21094   3.643   6.623   7.440  1.1695 -0.2106 -0.3800
  184SOPE  H18T21095   3.543   6.627   7.584  0.4175 -1.1903  1.5265
  184SOPE   C3321096   4.393   6.687   6.328  0.3944  0.1241 -0.3434
  184SOPE   H3X21097   4.353   6.789   6.345  1.3320  1.0726 -3.4917
  184SOPE   H3Y21098   4.477   6.676   6.399  4.2316 -0.6927 -4.7143
  184SOPE   C3421099   4.279   6.599   6.353  0.7140  0.2902 -0.8544
  184SOPE   H4X21100   4.315   6.495   6.373  1.5065  0.7023 -0.1109
  184SOPE   H4Y21101   4.217   6.580   6.262 -0.1064  0.7037 -0.3908
  184SOPE   C3521102   4.182   6.645   6.473 -0.4200  0.3062  0.0112
  184SOPE   H5X21103   4.088   6.587   6.465 -1.3615  1.9548 -1.1439
  184SOPE   H5Y21104   4.152   6.750   6.453 -3.7788 -0.6187 -0.0243
  184SOPE   C3621105   4.245   6.640   6.614 -0.2682 -0.9934  0.3348
  184SOPE   H6X21106   4.324   6.717   6.625 -0.5022 -0.2646 -2.4962
  184SOPE   H6Y21107   4.287   6.538   6.622  0.6905 -0.9654 -3.2011
  184SOPE   C3721108   4.141   6.665   6.727 -1.0198 -1.3165 -0.4695
  184SOPE   H7X21109   4.055   6.597   6.710 -0.9043 -1.5818  0.0029
  184SOPE   H7Y21110   4.102   6.768   6.719  0.9295 -0.6691 -2.1411
  184SOPE   C3821111   4.205   6.644   6.867  0.6165 -0.1174  0.6899
  184SOPE   H8X21112   4.280   6.724   6.880 -0.2886  0.8727 -0.0383
  184SOPE   H8Y21113   4.258   6.547   6.875  1.1448 -0.1150 -2.0563
  184SOPE   C3921114   4.096   6.651   6.971 -0.0787  0.1258  0.3795
  184SOPE   H9X21115   4.024   6.566   6.971  1.3086 -1.0999 -1.5198
  184SOPE   H9Y21116   4.023   6.735   6.966 -0.2230 -0.0323 -0.2636
  184SOPE  C31021117   4.141   6.657   7.118 -0.8580  0.1281  0.4043
  184SOPE  H10X21118   4.172   6.763   7.133 -0.3845 -0.2289  2.0717
  184SOPE  H10Y21119   4.234   6.599   7.138 -1.8943 -1.2293  1.3785
  184SOPE  C31121120   4.039   6.622   7.226  0.8550 -0.1874 -0.2256
  184SOPE  H11X21121   3.961   6.552   7.189  0.3568  1.2328 -1.9190
  184SOPE  H11Y21122   3.996   6.718   7.259  1.3564 -0.3098  0.7936
  184SOPE  C31221123   4.102   6.558   7.351  0.4587 -0.2834  0.1562
  184SOPE  H12X21124   4.203   6.595   7.379  0.7400 -0.6125 -0.4248
  184SOPE  H12Y21125   4.136   6.453   7.338  0.6695 -0.1194 -0.6733
  184SOPE  C31321126   4.020   6.587   7.475  0.1369 -0.4467  0.5197
  184SOPE  H13X21127   3.912   6.568   7.459  0.1773 -0.2522  0.0061
  184SOPE  H13Y21128   4.038   6.696   7.490 -0.3073 -0.5381  1.7815
  184SOPE  C31421129   4.056   6.520   7.605 -0.2908  0.1215  0.1778
  184SOPE  H14X21130   3.981   6.557   7.679  0.4081  1.6456  0.1478
  184SOPE  H14Y21131   4.143   6.561   7.659  0.0379 -2.0217  1.3363
  184SOPE  C31521132   4.054   6.373   7.601 -0.4455 -0.0449 -0.6106
  184SOPE  H15X21133   4.123   6.338   7.521 -1.1472  0.6020 -1.5092
  184SOPE  H15Y21134   3.953   6.330   7.587 -0.4062 -0.1116 -0.6799
  184SOPE  C31621135   4.105   6.308   7.728  0.0157  0.0512 -0.0838
  184SOPE  H16X21136   4.213   6.334   7.734  0.0404 -0.4391  2.1074
  184SOPE  H16Y21137   4.098   6.197   7.721  0.2620  0.1439 -2.2690
  184SOPE  C31721138   4.022   6.338   7.852 -0.5082 -0.2937  0.4162
  184SOPE  H17X21139   4.057   6.440   7.881  0.0013 -0.0927 -0.8782
  184SOPE  H17Y21140   4.052   6.257   7.921 -0.3363 -0.9183 -0.3958
  184SOPE  C31821141   3.865   6.329   7.848  0.5595 -0.2421  0.4039
  184SOPE  H18X21142   3.839   6.235   7.794 -1.8994  1.7671 -2.0449
  184SOPE  H18Y21143   3.815   6.416   7.801  0.7085 -1.5485 -2.3221
  184SOPE  H18Z21144   3.824   6.330   7.951 -0.2804  1.2919  0.0650
  185SAPI   C1221145   5.655   2.093   9.770  0.1637 -0.4873 -1.0152
  185SAPI    H221146   5.580   2.158   9.720 -0.5556 -0.3080  0.2919
  185SAPI    O221147   5.652   2.130   9.911  0.3156 -0.1854 -0.7142
  185SAPI   HO221148   5.710   2.204   9.928  1.6049 -1.0412 -1.2352
  185SAPI   C1321149   5.619   1.940   9.755 -0.0718  0.0844  0.2920
  185SAPI    H321150   5.627   1.924   9.646 -0.5182 -0.5721  0.3559
  185SAPI    O321151   5.492   1.908   9.799  0.4577 -0.3577 -0.4752
  185SAPI   HO321152   5.432   1.979   9.775 -1.2980 -2.0795 -1.2675
  185SAPI   C1421153   5.726   1.860   9.826 -0.1698  1.1868  0.0731
  185SAPI    H421154   5.723   1.854   9.936 -0.4588  1.3396  0.0733
  185SAPI    O421155   5.699   1.725   9.791 -0.3234  0.2826 -0.0994
  185SAPI   HO421156   5.748   1.675   9.857  1.4053 -0.0257 -1.5794
  185SAPI   C1521157   5.870   1.894   9.784  1.0957  0.7440 -0.5800
  185SAPI    H521158   5.877   1.868   9.676 -0.3512  0.3589 -0.5983
  185SAPI    O521159   5.971   1.817   9.855  0.6237 -0.2749 -0.1961
  185SAPI   HO521160   6.046   1.814   9.796  0.2310  0.2465 -0.7277
  185SAPI   C1621161   5.901   2.044   9.783 -0.4560 -0.1414  0.3542
  185SAPI    H621162   5.910   2.071   9.891  0.4124  1.2603 -0.0482
  185SAPI    O621163   6.027   2.064   9.723  0.5986  0.1072  0.0418
  185SAPI   HO621164   6.017   2.132   9.656 -0.4187 -0.4796 -0.4117
  185SAPI   C1121165   5.790   2.124   9.715  0.8970 -0.5613 -0.0869
  185SAPI    H121166   5.785   2.098   9.607  1.2523  1.6306 -0.6458
  185SAPI     P21167   5.880   2.356   9.611  0.3727  0.4485  0.0109
  185SAPI   O1321168   5.993   2.273   9.560  0.3295 -0.1113 -0.2471
  185SAPI   O1421169   5.918   2.490   9.662  0.0852 -0.4674  0.5062
  185SAPI   O1221170   5.810   2.267   9.731  0.0630  0.2807 -0.3848
  185SAPI   O1121171   5.769   2.377   9.497  0.6963 -0.5099 -0.5837
  185SAPI    C121172   5.648   2.454   9.507 -0.4393  0.5831 -0.6735
  185SAPI    HA21173   5.589   2.397   9.581  1.9818 -0.2156  0.6925
  185SAPI    HB21174   5.667   2.546   9.568 -0.7296  0.0166  0.2873
  185SAPI    C221175   5.576   2.485   9.375  0.2831 -0.5353  0.3327
  185SAPI    HS21176   5.472   2.516   9.399  0.0669 -1.0837  0.1066
  185SAPI   O2121177   5.568   2.370   9.290 -0.0468  0.2869 -1.0856
  185SAPI   C2121178   5.488   2.380   9.190  0.3328  0.2315 -0.2769
  185SAPI   O2221179   5.416   2.473   9.161  0.7622  0.0147 -0.0557
  185SAPI   C2221180   5.492   2.240   9.117 -0.2965 -0.0059  0.8547
  185SAPI   H2R21181   5.597   2.205   9.130  0.3348  1.7468  0.5954
  185SAPI   H2S21182   5.413   2.187   9.174  1.1721  0.7465  3.6876
  185SAPI    C321183   5.650   2.606   9.297 -0.5796 -0.0092 -0.2463
  185SAPI    HX21184   5.665   2.686   9.372 -0.8492  0.0116 -0.2134
  185SAPI    HY21185   5.582   2.656   9.225 -2.3614  0.2342  1.5704
  185SAPI   O3121186   5.775   2.566   9.232  0.2099 -0.1992  0.6544
  185SAPI   C3121187   5.890   2.590   9.303  0.2289  0.4595 -0.0253
  185SAPI   O3221188   5.891   2.656   9.410 -0.3966 -0.3776  0.1437
  185SAPI   C3221189   6.007   2.515   9.246  0.1005 -0.1326  0.1065
  185SAPI   H2X21190   5.981   2.412   9.214  0.5351 -0.1378 -0.2268
  185SAPI   H2Y21191   6.075   2.511   9.333 -1.9242  1.2942  1.8091
  185SAPI   C2321192   5.476   2.254   8.967 -0.7079 -0.5776  0.7468
  185SAPI   H3R21193   5.374   2.297   8.954  0.0628  1.3316  0.8999
  185SAPI   H3S21194   5.485   2.159   8.911  1.4024 -0.6373  1.1618
  185SAPI   C2421195   5.576   2.352   8.901  0.0527  0.5355  0.3254
  185SAPI   H4R21196   5.575   2.458   8.934 -1.0504  0.8190 -0.5829
  185SAPI   H4S21197   5.538   2.365   8.797 -0.8318  0.5998  0.6569
  185SAPI   C2521198   5.716   2.302   8.892 -1.0342  0.2111 -0.8898
  185SAPI   H5R21199   5.770   2.280   8.985 -1.7315  0.0110 -0.5277
  185SAPI   C2621200   5.789   2.288   8.782  0.3748 -0.2897  0.7226
  185SAPI   H6R21201   5.895   2.263   8.797  0.2143 -1.2617  0.2730
  185SAPI   C2721202   5.750   2.323   8.641 -0.3972  0.4448 -0.0742
  185SAPI   H7R21203   5.756   2.434   8.637 -1.1636  0.4227 -1.9585
  185SAPI   H7S21204   5.643   2.297   8.626  0.0107 -0.9335 -0.6729
  185SAPI   C2821205   5.822   2.266   8.524 -0.3839 -0.2681 -0.3773
  185SAPI   H8R21206   5.868   2.166   8.535 -0.3728 -0.0980  1.3823
  185SAPI   C2921207   5.825   2.320   8.399 -0.5644  0.2985 -0.8337
  185SAPI   H9R21208   5.882   2.271   8.319  1.3556 -0.7545  1.1342
  185SAPI  C21021209   5.757   2.446   8.359 -0.7295 -0.2765  0.2976
  185SAPI  H10R21210   5.745   2.514   8.446 -1.4919 -2.0971  1.6460
  185SAPI  H10S21211   5.657   2.420   8.320 -0.3119  0.4628 -1.2834
  185SAPI  C21121212   5.837   2.515   8.247  0.3012  0.4716  0.1080
  185SAPI  H11R21213   5.937   2.552   8.276  0.0239 -0.2895  2.1020
  185SAPI  C21221214   5.802   2.533   8.118 -0.1512 -0.4201  0.6587
  185SAPI  H12R21215   5.887   2.560   8.054 -2.3446  1.1117 -1.7179
  185SAPI  C21321216   5.671   2.505   8.048 -1.4138  0.6822  0.5862
  185SAPI  H13R21217   5.593   2.469   8.117 -0.4485  0.1971  1.4386
  185SAPI  H13S21218   5.691   2.413   7.988  0.0672 -0.5891  2.9724
  185SAPI  C21421219   5.633   2.611   7.945 -0.5962 -0.2854  0.1450
  185SAPI  H14R21220   5.618   2.707   7.997 -0.1038 -1.0202  1.6914
  185SAPI  C21521221   5.619   2.594   7.813 -0.0500 -0.7289  0.0101
  185SAPI  H15R21222   5.616   2.687   7.755  1.6481 -1.2317 -0.9303
  185SAPI  C21621223   5.647   2.472   7.723 -0.2537  0.3270 -0.3768
  185SAPI  H16R21224   5.671   2.376   7.774  2.1541  1.0734 -0.0696
  185SAPI  H16S21225   5.728   2.490   7.650 -0.8777  1.0196 -0.9000
  185SAPI  C21721226   5.522   2.437   7.636 -0.0394 -0.5944  0.1569
  185SAPI  H17R21227   5.453   2.383   7.704  1.8349 -2.9749  0.2516
  185SAPI  H17S21228   5.545   2.367   7.553 -3.2497 -1.3395 -0.1538
  185SAPI  C21821229   5.462   2.560   7.560  0.4148 -0.5513  0.0516
  185SAPI  H18R21230   5.428   2.642   7.627  0.7076  0.7566 -1.3788
  185SAPI  H18S21231   5.366   2.530   7.515 -0.0440 -1.8841  1.8432
  185SAPI  C21921232   5.546   2.611   7.445 -0.2948 -0.3759 -0.8702
  185SAPI  H19R21233   5.645   2.650   7.477 -1.4856  3.5231 -1.6908
  185SAPI  H19S21234   5.504   2.702   7.398  1.6237  2.2773  2.3473
  185SAPI  C22021235   5.575   2.515   7.326 -0.3361  0.1010  0.3323
  185SAPI  H20R21236   5.569   2.564   7.226  1.1355 -0.6361 -0.1184
  185SAPI  H20S21237   5.494   2.439   7.338 -0.5484  0.6181  2.4102
  185SAPI  H20T21238   5.672   2.464   7.343  0.9789  2.3749 -0.1251
  185SAPI   C3321239   6.076   2.596   9.134 -0.4440 -0.5896 -0.6022
  185SAPI   H3X21240   6.172   2.541   9.126 -0.1175 -0.1361  0.1102
  185SAPI   H3Y21241   6.114   2.690   9.179  0.0729 -1.8134  1.5780
  185SAPI   C3421242   5.994   2.609   9.009 -0.3750  0.2307  0.1945
  185SAPI   H4X21243   5.901   2.664   9.034  1.0020  3.1527 -0.8065
  185SAPI   H4Y21244   5.941   2.512   8.999 -0.8399  0.4633  0.4110
  185SAPI   C3521245   6.077   2.642   8.884 -0.0770  0.8932  0.1499
  185SAPI   H5X21246   6.167   2.579   8.894 -0.3010  0.1280 -2.3269
  185SAPI   H5Y21247   6.111   2.748   8.886 -0.5658  1.0323  1.7616
  185SAPI   C3621248   6.001   2.599   8.758 -0.4641  0.7066  0.4351
  185SAPI   H6X21249   5.893   2.622   8.759 -0.6282  0.0261 -0.7776
  185SAPI   H6Y21250   6.024   2.492   8.738 -0.3905  1.0017 -1.0895
  185SAPI   C3721251   6.038   2.670   8.632 -0.0302  0.1068 -0.8663
  185SAPI   H7X21252   5.996   2.625   8.540 -0.1317  0.5292 -1.0281
  185SAPI   H7Y21253   6.148   2.669   8.617  0.3031  1.2200  1.2932
  185SAPI   C3821254   5.989   2.815   8.635  0.5786  0.6312 -0.8490
  185SAPI   H8X21255   6.031   2.856   8.729 -0.4544 -1.6986  0.6792
  185SAPI   H8Y21256   5.879   2.818   8.651  0.6008  0.9924 -0.7783
  185SAPI   C3921257   6.034   2.903   8.520 -0.2503 -0.1301 -0.2123
  185SAPI   H9X21258   6.139   2.873   8.501 -0.0352 -0.3956  1.3933
  185SAPI   H9Y21259   6.035   3.012   8.542  2.1774 -0.1802  0.0287
  185SAPI  C31021260   5.948   2.895   8.388  0.2097 -1.1674  0.3916
  185SAPI  H10X21261   5.845   2.935   8.387  1.3613  2.1111 -4.1007
  185SAPI  H10Y21262   5.936   2.795   8.343 -1.5211  0.2226 -2.3372
  185SAPI  C31121263   6.013   2.980   8.280 -0.9669 -0.7410  0.2260
  185SAPI  H11X21264   6.103   2.928   8.239  0.3640  3.0594 -1.8723
  185SAPI  H11Y21265   6.062   3.073   8.315  1.3542 -2.3184  1.3039
  185SAPI  C31221266   5.912   3.016   8.166 -0.2038  0.5831  0.4647
  185SAPI  H12X21267   5.815   3.048   8.210 -1.5484 -1.6158 -0.8020
  185SAPI  H12Y21268   5.892   2.924   8.106  1.8429  0.2373  0.2842
  185SAPI  C31321269   5.957   3.132   8.072 -0.0673  0.0276  0.4347
  185SAPI  H13X21270   6.056   3.112   8.025  0.2399 -1.9070  1.8394
  185SAPI  H13Y21271   5.965   3.224   8.134 -3.0029 -1.0820  2.5956
  185SAPI  C31421272   5.865   3.155   7.950  0.5286  0.3161  0.4420
  185SAPI  H14X21273   5.775   3.213   7.981 -0.1638 -1.1996  1.3099
  185SAPI  H14Y21274   5.829   3.060   7.905 -1.4058  0.4008  1.7319
  185SAPI  C31521275   5.930   3.241   7.847  0.1642 -0.8081 -1.1592
  185SAPI  H15X21276   6.008   3.189   7.789 -0.3212 -0.5642 -2.0415
  185SAPI  H15Y21277   5.975   3.329   7.900  0.4345 -1.2865 -0.5821
  185SAPI  C31621278   5.835   3.288   7.733 -0.2295  0.1144 -0.0102
  185SAPI  H16X21279   5.786   3.198   7.692  0.2358 -0.7551  1.3052
  185SAPI  H16Y21280   5.887   3.340   7.650 -1.6858  2.8218  0.6949
  185SAPI  C31721281   5.733   3.400   7.770  0.1783 -0.4591 -0.0899
  185SAPI  H17X21282   5.668   3.354   7.848  0.4190  0.3478  0.5892
  185SAPI  H17Y21283   5.666   3.419   7.684 -1.2431  0.0302  1.0872
  185SAPI  C31821284   5.796   3.535   7.814 -0.0205 -0.0204 -0.6359
  185SAPI  H18X21285   5.842   3.580   7.723  1.4725  1.0396  0.6262
  185SAPI  H18Y21286   5.868   3.531   7.899 -0.1968 -1.8047 -0.5468
  185SAPI  H18Z21287   5.704   3.592   7.838 -0.5329 -0.7986 -0.7374
  186SAPI   C1221288   5.257   0.332  10.051 -0.4582 -0.0232 -0.2986
  186SAPI    H221289   5.240   0.292   9.949  0.2644  0.5286 -0.6408
  186SAPI    O221290   5.197   0.242  10.144 -0.1165  0.8141 -0.3673
  186SAPI   HO221291   5.174   0.161  10.098 -0.7209  0.4310  0.5842
  186SAPI   C1321292   5.407   0.329  10.073  0.5004  0.7659 -0.1343
  186SAPI    H321293   5.448   0.395   9.995 -0.5607  1.7045  0.0811
  186SAPI    O321294   5.463   0.203  10.046  0.0760 -0.0444  0.3668
  186SAPI   HO321295   5.435   0.144  10.117  1.8606 -2.8279 -1.1728
  186SAPI   C1421296   5.445   0.375  10.213  0.2334 -0.5251 -0.3504
  186SAPI    H421297   5.399   0.305  10.286  2.0279 -0.9586  0.3963
  186SAPI    O421298   5.587   0.374  10.240 -0.5912 -0.1811  0.5695
  186SAPI   HO421299   5.631   0.452  10.205  1.1918 -2.1793 -1.8558
  186SAPI   C1521300   5.388   0.517  10.242  0.2009  0.0314 -0.3334
  186SAPI    H521301   5.440   0.592  10.179 -0.3545  0.4264 -0.3251
  186SAPI    O521302   5.419   0.557  10.380 -0.2652  0.0322 -0.0192
  186SAPI   HO521303   5.478   0.632  10.388  0.8610 -1.0054  2.2363
  186SAPI   C1621304   5.243   0.532  10.202 -0.0579  0.2242 -0.7441
  186SAPI    H621305   5.192   0.478  10.284 -1.2332  1.7340 -0.4666
  186SAPI    O621306   5.189   0.664  10.215  0.1662  0.1848 -0.2675
  186SAPI   HO621307   5.099   0.653  10.248  0.6991  1.4982  1.6872
  186SAPI   C1121308   5.211   0.477  10.066  0.1101  0.6331 -0.3053
  186SAPI    H121309   5.270   0.529   9.988 -2.1606  1.9681 -1.1498
  186SAPI     P21310   5.015   0.548   9.904  0.5769  0.1046 -0.0781
  186SAPI   O1321311   5.094   0.666   9.856  0.5677 -0.3096  0.0342
  186SAPI   O1421312   4.869   0.565   9.912  0.3839 -0.1351 -0.0184
  186SAPI   O1221313   5.071   0.480  10.044 -0.2367 -0.6377 -1.0279
  186SAPI   O1121314   5.023   0.439   9.798 -0.0444 -0.0895  0.8532
  186SAPI    C121315   4.983   0.304   9.828 -0.8913 -0.3330  0.7209
  186SAPI    HA21316   5.038   0.257   9.912  0.0640 -2.5879 -1.1000
  186SAPI    HB21317   4.875   0.297   9.851 -1.6277  2.3908 -1.5785
  186SAPI    C221318   5.011   0.208   9.710 -0.0006  0.8236  0.6888
  186SAPI    HS21319   5.008   0.104   9.750 -0.2115  0.6607  0.2492
  186SAPI   O2121320   5.141   0.240   9.647  0.3383 -0.7494  0.1922
  186SAPI   C2121321   5.224   0.139   9.619 -0.0795 -0.1048  0.6536
  186SAPI   O2221322   5.204   0.023   9.654 -0.3218 -0.4648 -0.0102
  186SAPI   C2221323   5.344   0.187   9.537  0.3084  0.4972  0.5120
  186SAPI   H2R21324   5.395   0.271   9.589  1.3902  0.2399 -0.1259
  186SAPI   H2S21325   5.411   0.098   9.547 -0.3918 -0.1065 -0.1175
  186SAPI    C321326   4.905   0.235   9.601  0.5691  1.0261  0.1234
  186SAPI    HX21327   4.887   0.343   9.585 -0.0726  0.9518  0.3204
  186SAPI    HY21328   4.808   0.195   9.637  0.9461 -0.7732 -0.7783
  186SAPI   O3121329   4.936   0.183   9.466 -0.9473  0.2274 -0.0977
  186SAPI   C3121330   4.898   0.067   9.420 -0.2058 -0.4434 -0.4428
  186SAPI   O3221331   4.831  -0.014   9.484  0.3017 -0.6054  0.1565
  186SAPI   C3221332   4.946   0.049   9.275  0.3138 -0.0830 -0.2964
  186SAPI   H2X21333   5.057   0.060   9.273  0.1665  1.4352 -1.0724
  186SAPI   H2Y21334   4.919   0.141   9.219 -1.5115 -0.0746  0.5684
  186SAPI   C2321335   5.307   0.204   9.383 -0.9534 -0.0310 -1.1689
  186SAPI   H3R21336   5.209   0.256   9.382 -1.3161 -0.6956 -0.4830
  186SAPI   H3S21337   5.291   0.105   9.335  0.3306 -0.2878 -1.0799
  186SAPI   C2421338   5.422   0.285   9.320  0.1656 -0.3331 -0.4444
  186SAPI   H4R21339   5.510   0.218   9.312  1.5601  1.1777  1.6205
  186SAPI   H4S21340   5.459   0.366   9.386 -0.1261 -0.3915 -0.2099
  186SAPI   C2521341   5.401   0.346   9.182 -0.1327  0.5451  0.0604
  186SAPI   H5R21342   5.315   0.415   9.183  0.6487  1.5478  2.9170
  186SAPI   C2621343   5.458   0.313   9.063 -0.1359 -0.9192  0.2762
  186SAPI   H6R21344   5.446   0.388   8.984 -1.5796 -1.5440 -0.1062
  186SAPI   C2721345   5.558   0.204   9.033 -0.6530  0.5391  0.9285
  186SAPI   H7R21346   5.574   0.131   9.115  1.1541  0.5300  0.5723
  186SAPI   H7S21347   5.654   0.255   9.012  0.4381 -1.5932  0.6162
  186SAPI   C2821348   5.502   0.123   8.920  0.5786 -0.2528  0.5299
  186SAPI   H8R21349   5.417   0.057   8.943 -0.3265  0.3117 -1.1093
  186SAPI   C2921350   5.539   0.128   8.792  0.7080  0.6114  0.5787
  186SAPI   H9R21351   5.471   0.075   8.724  1.8837 -2.3868  1.6503
  186SAPI  C21021352   5.641   0.212   8.724 -0.1174 -0.4624  0.1842
  186SAPI  H10R21353   5.677   0.164   8.631  1.0898 -1.2463  1.0314
  186SAPI  H10S21354   5.735   0.229   8.782 -0.4335 -0.2144  0.6279
  186SAPI  C21121355   5.570   0.345   8.705  0.7866 -0.4003  0.1653
  186SAPI  H11R21356   5.510   0.383   8.789  0.3525  1.1368 -0.8265
  186SAPI  C21221357   5.570   0.424   8.597  0.2297  0.0400  0.0530
  186SAPI  H12R21358   5.497   0.506   8.604  0.9794  0.6705  0.7268
  186SAPI  C21321359   5.641   0.413   8.460  0.5851 -1.2958  0.2993
  186SAPI  H13R21360   5.572   0.350   8.400 -2.2705  1.6809  0.3037
  186SAPI  H13S21361   5.744   0.371   8.466  1.1095  0.2014  2.4410
  186SAPI  C21421362   5.659   0.558   8.407 -0.6377  0.7938 -0.3066
  186SAPI  H14R21363   5.750   0.605   8.446  0.8129 -1.8724 -0.3306
  186SAPI  C21521364   5.585   0.631   8.327 -0.0011 -0.0557 -0.0783
  186SAPI  H15R21365   5.612   0.736   8.310 -2.5150  0.7394  0.5008
  186SAPI  C21621366   5.456   0.586   8.262  0.1834 -0.9641  0.6250
  186SAPI  H16R21367   5.392   0.516   8.319  1.4292 -2.9521 -0.3521
  186SAPI  H16S21368   5.484   0.523   8.175 -0.2795  0.4958 -0.6102
  186SAPI  C21721369   5.386   0.717   8.231  0.2555  0.4139  0.0561
  186SAPI  H17R21370   5.456   0.796   8.198  0.4448  0.8654  1.4946
  186SAPI  H17S21371   5.330   0.747   8.323 -0.9680 -0.8856 -0.2421
  186SAPI  C21821372   5.277   0.711   8.126  0.8675 -0.1611  0.2036
  186SAPI  H18R21373   5.192   0.661   8.177 -1.9782  3.1461 -1.0594
  186SAPI  H18S21374   5.318   0.654   8.040 -2.5864  0.0501 -1.6647
  186SAPI  C21921375   5.231   0.849   8.085  0.1533 -0.1692  0.3602
  186SAPI  H19R21376   5.312   0.910   8.039  1.5910 -2.4771 -0.2232
  186SAPI  H19S21377   5.210   0.914   8.173  0.3788  0.8147 -0.3057
  186SAPI  C22021378   5.109   0.849   7.998 -0.2498  0.0076 -0.1640
  186SAPI  H20R21379   5.082   0.951   7.961  1.1274 -0.4284 -2.4919
  186SAPI  H20S21380   5.018   0.803   8.041 -0.3257 -0.6731 -1.0399
  186SAPI  H20T21381   5.126   0.786   7.908  0.2150  0.7795 -0.6288
  186SAPI   C3321382   4.897  -0.085   9.219 -0.5048 -0.6120 -0.3270
  186SAPI   H3X21383   4.795  -0.105   9.258 -0.2208  0.4842  1.0012
  186SAPI   H3Y21384   4.954  -0.173   9.256  1.1918  0.7059  0.2370
  186SAPI   C3421385   4.886  -0.087   9.071  0.4978 -0.2229  0.2796
  186SAPI   H4X21386   4.831   0.007   9.048  1.2543 -0.1757 -1.4381
  186SAPI   H4Y21387   4.829  -0.174   9.032  0.6121  0.4017 -1.3281
  186SAPI   C3521388   5.026  -0.104   9.004 -0.2867 -0.0297 -0.5101
  186SAPI   H5X21389   5.084  -0.188   9.048 -0.0060 -0.2838 -1.3640
  186SAPI   H5Y21390   5.080  -0.008   9.018 -0.9649  0.4155 -0.9223
  186SAPI   C3621391   5.024  -0.113   8.855 -0.2596 -0.2283 -0.0387
  186SAPI   H6X21392   4.957  -0.038   8.808  0.8145  1.5651  1.2365
  186SAPI   H6Y21393   4.965  -0.203   8.826 -0.2396 -0.4051  0.4618
  186SAPI   C3721394   5.163  -0.106   8.785 -0.1083 -0.3202 -0.0865
  186SAPI   H7X21395   5.225  -0.193   8.817  2.1047  0.2807 -2.5322
  186SAPI   H7Y21396   5.227  -0.022   8.820  0.8566 -1.4024  0.8338
  186SAPI   C3821397   5.132  -0.112   8.636 -0.0587  0.9661 -0.1428
  186SAPI   H8X21398   5.100  -0.012   8.600  1.7671  1.2864 -0.9466
  186SAPI   H8Y21399   5.053  -0.189   8.625  2.2235 -1.4955  0.3043
  186SAPI   C3921400   5.250  -0.152   8.547  0.6558 -0.7799 -0.2420
  186SAPI   H9X21401   5.285  -0.255   8.573 -1.0392 -1.6685 -1.3422
  186SAPI   H9Y21402   5.326  -0.071   8.549  1.8963 -1.9066 -0.3690
  186SAPI  C31021403   5.193  -0.154   8.401  0.9503  0.6501  0.0474
  186SAPI  H10X21404   5.139  -0.058   8.384  1.1765  0.9349  0.9026
  186SAPI  H10Y21405   5.114  -0.232   8.393  1.7579 -0.1445 -0.2868
  186SAPI  C31121406   5.301  -0.175   8.293 -0.5562 -0.0055  0.1149
  186SAPI  H11X21407   5.231  -0.189   8.209 -0.1080 -0.2483 -0.2223
  186SAPI  H11Y21408   5.367  -0.259   8.323  0.0230 -0.1902 -1.5937
  186SAPI  C31221409   5.385  -0.050   8.259 -0.5975 -0.7842  0.4292
  186SAPI  H12X21410   5.455  -0.044   8.345 -0.7923  2.9215  0.3975
  186SAPI  H12Y21411   5.326   0.043   8.277  1.5870  0.5383  0.8956
  186SAPI  C31321412   5.463  -0.039   8.125 -0.3659 -0.4741  0.5369
  186SAPI  H13X21413   5.392  -0.038   8.040  1.5652 -1.0779 -1.1359
  186SAPI  H13Y21414   5.542  -0.117   8.128  0.8360  0.6303 -1.1407
  186SAPI  C31421415   5.525   0.100   8.114  0.1725  0.6206  0.2478
  186SAPI  H14X21416   5.604   0.122   8.189  0.7638 -2.6375  0.6343
  186SAPI  H14Y21417   5.439   0.171   8.114  1.2642  1.9486 -0.8206
  186SAPI  C31521418   5.595   0.133   7.981  0.2177 -0.5849 -0.4188
  186SAPI  H15X21419   5.515   0.118   7.906 -2.0507  2.8708  1.1881
  186SAPI  H15Y21420   5.674   0.062   7.947 -0.1585 -0.6771 -1.1107
  186SAPI  C31621421   5.638   0.280   7.968  0.1539  0.5028  0.0490
  186SAPI  H16X21422   5.733   0.302   8.021 -0.0469  0.4076  0.4520
  186SAPI  H16Y21423   5.559   0.347   8.009  1.7418  1.2694  1.9351
  186SAPI  C31721424   5.675   0.329   7.832 -0.5057 -0.2938  0.7181
  186SAPI  H17X21425   5.703   0.437   7.827  0.3775 -0.5767 -0.8992
  186SAPI  H17Y21426   5.585   0.330   7.767  0.7365  0.9025 -1.0640
  186SAPI  C31821427   5.787   0.258   7.743  0.4612 -0.4400 -0.6967
  186SAPI  H18X21428   5.784   0.301   7.641  1.0531  0.6711 -0.2587
  186SAPI  H18Y21429   5.751   0.153   7.736  0.9684 -0.5805 -1.1589
  186SAPI  H18Z21430   5.884   0.258   7.797 -0.7492 -0.9063  1.5343
  187SAPI   C1221431   0.532   2.024   5.638  0.4767 -0.9481 -0.0175
  187SAPI    H221432   0.527   2.070   5.739 -0.3012 -0.4009 -0.3048
  187SAPI    O221433   0.622   1.913   5.631 -0.1744  0.1995 -0.6424
  187SAPI   HO221434   0.709   1.946   5.656 -0.5035  1.5668 -1.2585
  187SAPI   C1321435   0.384   1.972   5.629  0.2253  0.3229 -0.0762
  187SAPI    H321436   0.320   2.061   5.648 -0.4427 -0.5976  2.1130
  187SAPI    O321437   0.357   1.870   5.727  0.0838 -0.3200 -0.1282
  187SAPI   HO321438   0.432   1.810   5.726 -1.4767 -2.3281  0.1868
  187SAPI   C1421439   0.357   1.928   5.489  0.6444 -0.0394 -0.5183
  187SAPI    H421440   0.419   1.839   5.465  1.9674  0.7533 -0.0997
  187SAPI    O421441   0.224   1.898   5.467  0.2607 -0.4632 -0.8463
  187SAPI   HO421442   0.204   1.805   5.481  3.1535 -1.6869 -4.1063
  187SAPI   C1521443   0.402   2.032   5.384 -0.6238  0.0052  0.2101
  187SAPI    H521444   0.334   2.120   5.390 -0.9912 -0.2855  0.3143
  187SAPI    O521445   0.383   1.976   5.253 -0.5334 -0.0871  0.1363
  187SAPI   HO521446   0.376   2.051   5.194 -2.0477  0.1597  0.6204
  187SAPI   C1621447   0.544   2.072   5.397 -0.2851 -0.5314  0.9947
  187SAPI    H621448   0.604   1.978   5.397  0.2857 -0.1687  0.9479
  187SAPI    O621449   0.586   2.180   5.306 -0.9244 -0.3107 -0.1668
  187SAPI   HO621450   0.589   2.256   5.364 -1.1692 -2.4100  2.7708
  187SAPI   C1121451   0.564   2.132   5.539  0.1606 -0.2469  0.2708
  187SAPI    H121452   0.494   2.217   5.553 -0.1263 -0.7362  1.8945
  187SAPI     P21453   0.749   2.301   5.669 -0.1418 -0.5003  0.0077
  187SAPI   O1321454   0.629   2.387   5.703 -0.1372  0.2915 -0.4338
  187SAPI   O1421455   0.872   2.365   5.611  0.1658  0.1317  0.5405
  187SAPI   O1221456   0.698   2.176   5.561 -0.2781  0.3207  0.3007
  187SAPI   O1121457   0.799   2.228   5.800 -0.1326  0.4313  0.3576
  187SAPI    C121458   0.817   2.307   5.922 -0.2949 -0.3302  0.2058
  187SAPI    HA21459   0.920   2.349   5.928 -0.7373  0.9135 -0.6655
  187SAPI    HB21460   0.742   2.390   5.921  0.8390  0.7059 -0.2779
  187SAPI    C221461   0.792   2.225   6.043 -0.9376  0.5838  0.2012
  187SAPI    HS21462   0.746   2.132   6.005 -0.4940 -0.7280  2.7685
  187SAPI   O2121463   0.698   2.301   6.123 -0.1963  0.0108  0.6445
  187SAPI   C2121464   0.617   2.238   6.209  0.3383 -0.9632  0.2342
  187SAPI   O2221465   0.595   2.114   6.215  0.3070 -0.1079  0.2716
  187SAPI   C2221466   0.547   2.339   6.292  0.0311 -0.1788  0.8111
  187SAPI   H2R21467   0.612   2.428   6.306 -1.7302  1.0776  1.1150
  187SAPI   H2S21468   0.462   2.369   6.228 -1.1081  0.4437  2.5802
  187SAPI    C321469   0.919   2.178   6.111  0.3419 -0.7229 -0.3879
  187SAPI    HX21470   0.970   2.276   6.124 -1.3553 -0.0025  1.1173
  187SAPI    HY21471   0.978   2.116   6.041 -1.6870 -2.2743 -0.7609
  187SAPI   O3121472   0.901   2.117   6.238  0.6144  0.6438 -0.0594
  187SAPI   C3121473   0.874   1.990   6.238 -1.2228  0.0728 -0.3827
  187SAPI   O3221474   0.877   1.925   6.137  0.2921  0.1166  0.4727
  187SAPI   C3221475   0.838   1.925   6.370 -0.4137  0.3958 -0.2644
  187SAPI   H2X21476   0.897   1.831   6.381  0.8763  1.6333  4.2641
  187SAPI   H2Y21477   0.731   1.896   6.361  0.1070 -2.1054  1.2728
  187SAPI   C2321478   0.501   2.279   6.424 -0.5202 -0.4542 -0.5909
  187SAPI   H3R21479   0.566   2.200   6.466 -0.8234 -0.0578  0.6416
  187SAPI   H3S21480   0.399   2.239   6.407 -0.8905 -1.8266  4.2138
  187SAPI   C2421481   0.496   2.395   6.528  0.1457 -0.1225 -0.1726
  187SAPI   H4R21482   0.421   2.469   6.492 -0.6484  0.0122  1.6811
  187SAPI   H4S21483   0.593   2.447   6.545 -0.4362  0.7364  0.5664
  187SAPI   C2521484   0.432   2.328   6.655  0.1809 -0.2180  0.3001
  187SAPI   H5R21485   0.341   2.275   6.623  0.2285  0.1259 -0.4090
  187SAPI   C2621486   0.480   2.325   6.778  0.4168  0.1378  0.3603
  187SAPI   H6R21487   0.427   2.266   6.854 -0.5108 -0.5496 -0.8171
  187SAPI   C2721488   0.605   2.387   6.832 -0.1810  0.0489  0.2038
  187SAPI   H7R21489   0.674   2.433   6.758 -1.6723  0.2575 -1.0733
  187SAPI   H7S21490   0.653   2.300   6.883  1.3721  0.3382 -0.7252
  187SAPI   C2821491   0.548   2.496   6.923  0.3628  0.2360 -0.3437
  187SAPI   H8R21492   0.441   2.503   6.947  0.7665  0.9812  1.2389
  187SAPI   C2921493   0.615   2.596   6.974 -0.1311  0.0249 -0.3739
  187SAPI   H9R21494   0.556   2.673   7.026  3.4599  2.3185  0.4720
  187SAPI  C21021495   0.757   2.621   6.932  0.0401  0.1941  0.0911
  187SAPI  H10R21496   0.763   2.633   6.821  0.9816 -3.2307 -0.2914
  187SAPI  H10S21497   0.822   2.532   6.946 -1.1611 -0.7392 -0.1329
  187SAPI  C21121498   0.824   2.741   7.004  0.3320 -0.6642  0.5067
  187SAPI  H11R21499   0.863   2.824   6.942 -0.0043  0.6275  1.9836
  187SAPI  C21221500   0.854   2.745   7.136 -0.3859  0.6230  0.8299
  187SAPI  H12R21501   0.890   2.843   7.169 -1.2468  1.1438  0.2504
  187SAPI  C21321502   0.816   2.644   7.242  0.1652 -0.6876  0.8521
  187SAPI  H13R21503   0.915   2.614   7.284  0.3477 -1.1380  0.1117
  187SAPI  H13S21504   0.776   2.547   7.206 -0.6801 -0.2061  0.4932
  187SAPI  C21421505   0.712   2.699   7.336  0.2166  0.3387 -1.4564
  187SAPI  H14R21506   0.617   2.725   7.287 -0.1935 -2.2362 -2.0660
  187SAPI  C21521507   0.720   2.712   7.468 -0.5488  0.2094  0.0914
  187SAPI  H15R21508   0.637   2.758   7.523  0.2643 -1.2712  2.6582
  187SAPI  C21621509   0.837   2.687   7.554  0.2604  0.1210  0.2289
  187SAPI  H16R21510   0.923   2.652   7.492  0.6160 -0.0798  0.8291
  187SAPI  H16S21511   0.810   2.605   7.623 -3.0777  0.3615 -0.7366
  187SAPI  C21721512   0.875   2.823   7.627 -0.3019  0.9466 -0.7327
  187SAPI  H17R21513   0.785   2.877   7.664 -1.0399  0.6858 -2.1083
  187SAPI  H17S21514   0.928   2.887   7.553 -1.8017  0.5449 -2.1872
  187SAPI  C21821515   0.975   2.802   7.742 -0.2540 -0.1005 -0.0022
  187SAPI  H18R21516   1.020   2.902   7.760  0.7990 -0.9949  2.5886
  187SAPI  H18S21517   1.051   2.736   7.695  0.9550  0.6119  0.9306
  187SAPI  C21921518   0.911   2.738   7.869  0.4031 -0.3202 -0.2554
  187SAPI  H19R21519   0.993   2.687   7.924 -0.4252  0.1001  1.3994
  187SAPI  H19S21520   0.848   2.649   7.854  1.6464 -1.4084  0.8525
  187SAPI  C22021521   0.844   2.838   7.962 -0.6550  0.5892  0.2183
  187SAPI  H20R21522   0.790   2.790   8.046 -0.8178  0.6180  0.1298
  187SAPI  H20S21523   0.770   2.889   7.897  0.9947 -0.4257 -2.5761
  187SAPI  H20T21524   0.922   2.909   7.998 -0.1429  1.5500 -2.6816
  187SAPI   C3321525   0.858   2.010   6.500 -0.4069 -1.1761  0.2696
  187SAPI   H3X21526   0.781   2.091   6.495 -1.9243 -2.4491  2.0540
  187SAPI   H3Y21527   0.955   2.064   6.502 -2.2414  2.3358  0.2317
  187SAPI   C3421528   0.852   1.933   6.636  0.5579 -0.0093  0.6648
  187SAPI   H4X21529   0.942   1.867   6.639  0.0328 -0.8211 -0.6517
  187SAPI   H4Y21530   0.760   1.870   6.628 -2.6900  4.7442 -2.0298
  187SAPI   C3521531   0.858   2.034   6.745  0.1306  0.3075  0.4043
  187SAPI   H5X21532   0.770   2.102   6.739  0.8220  1.1510 -0.2862
  187SAPI   H5Y21533   0.942   2.104   6.725  0.5003 -0.3160 -0.2129
  187SAPI   C3621534   0.873   1.982   6.886  0.2479 -0.6851 -0.2729
  187SAPI   H6X21535   0.956   1.910   6.901 -1.3300 -2.2438  1.2105
  187SAPI   H6Y21536   0.775   1.940   6.919  0.4368 -1.2442 -0.4102
  187SAPI   C3721537   0.904   2.093   6.982  0.4215 -0.2439 -0.5353
  187SAPI   H7X21538   0.835   2.179   6.979 -0.2143 -0.7321 -0.0150
  187SAPI   H7Y21539   1.006   2.126   6.951  0.2493 -0.0009 -0.8390
  187SAPI   C3821540   0.906   2.033   7.124 -0.6433  0.0887 -0.5073
  187SAPI   H8X21541   0.990   1.960   7.124 -0.4858  0.2680 -0.7172
  187SAPI   H8Y21542   0.806   1.989   7.145 -0.5601 -0.3277 -0.9891
  187SAPI   C3921543   0.950   2.140   7.229 -0.1686  0.9648  0.5542
  187SAPI   H9X21544   0.878   2.224   7.224 -2.8879 -1.3210  0.4234
  187SAPI   H9Y21545   1.054   2.176   7.212  0.3972  0.1681  2.1474
  187SAPI  C31021546   0.946   2.085   7.373 -0.0651 -0.1669 -0.8118
  187SAPI  H10X21547   1.022   2.008   7.396 -1.1957 -1.1218 -0.2295
  187SAPI  H10Y21548   0.848   2.033   7.373 -1.1778  1.8895 -0.3614
  187SAPI  C31121549   0.942   2.191   7.481 -0.3429 -0.3488  0.0819
  187SAPI  H11X21550   1.029   2.260   7.474  0.0245 -0.6982  1.1247
  187SAPI  H11Y21551   0.954   2.135   7.577 -1.3356 -2.4155 -0.9526
  187SAPI  C31221552   0.819   2.284   7.482  0.2400 -0.2442 -0.4158
  187SAPI  H12X21553   0.738   2.224   7.435 -1.6145  0.8177  1.3164
  187SAPI  H12Y21554   0.844   2.380   7.432  0.9428  0.5831  1.4754
  187SAPI  C31321555   0.766   2.314   7.619  0.6107 -0.5068 -0.4977
  187SAPI  H13X21556   0.707   2.407   7.628  0.1612 -0.5148 -3.0432
  187SAPI  H13Y21557   0.852   2.337   7.685 -2.3633  1.2031  2.9542
  187SAPI  C31421558   0.683   2.200   7.680 -0.8213  0.2581 -0.2466
  187SAPI  H14X21559   0.729   2.098   7.686 -1.3383 -0.1177 -2.3278
  187SAPI  H14Y21560   0.592   2.203   7.617 -0.8382  2.5311 -0.1451
  187SAPI  C31521561   0.638   2.241   7.827 -0.5372  0.5426 -0.4883
  187SAPI  H15X21562   0.577   2.160   7.870 -0.8358  1.7679  1.4394
  187SAPI  H15Y21563   0.578   2.334   7.822 -1.5721 -0.1527 -1.2564
  187SAPI  C31621564   0.756   2.273   7.925 -0.4168  0.0127 -0.2623
  187SAPI  H16X21565   0.797   2.375   7.912  0.2144 -0.5589 -3.2295
  187SAPI  H16Y21566   0.839   2.201   7.910 -1.9527 -1.6861 -0.9296
  187SAPI  C31721567   0.726   2.230   8.071 -0.1953 -0.0400  0.0630
  187SAPI  H17X21568   0.706   2.121   8.070 -0.7536  0.0652 -0.1090
  187SAPI  H17Y21569   0.626   2.264   8.104  0.3827  2.4897 -0.7125
  187SAPI  C31821570   0.831   2.272   8.183  1.1342 -0.1474  0.0789
  187SAPI  H18X21571   0.884   2.364   8.150  3.7454 -0.5647  2.8508
  187SAPI  H18Y21572   0.906   2.189   8.187 -0.5188 -1.7028 -0.6394
  187SAPI  H18Z21573   0.779   2.279   8.281 -1.8993  0.4708 -1.5281
  188SAPI   C1221574   0.602   5.193   5.593  0.7401 -0.0573  0.3644
  188SAPI    H221575   0.645   5.146   5.684  0.9903 -1.1698 -0.3052
  188SAPI    O221576   0.581   5.092   5.494  0.2118  0.8321  0.5193
  188SAPI   HO221577   0.658   5.068   5.440  0.5241  0.7776  0.9849
  188SAPI   C1321578   0.474   5.258   5.627  0.0184 -0.8842  0.1663
  188SAPI    H321579   0.477   5.330   5.712 -0.3220 -0.0812 -0.4995
  188SAPI    O321580   0.374   5.161   5.663 -0.1221  0.3292  0.3711
  188SAPI   HO321581   0.388   5.082   5.612 -0.8523 -0.7504  1.7971
  188SAPI   C1421582   0.426   5.342   5.507  0.6283 -0.8049 -0.0941
  188SAPI    H421583   0.400   5.270   5.427 -1.8469  0.3326 -0.3472
  188SAPI    O421584   0.303   5.409   5.540  0.1975 -0.4390 -0.2663
  188SAPI   HO421585   0.323   5.476   5.605  0.7717 -1.2411  0.4034
  188SAPI   C1521586   0.532   5.441   5.455 -0.6461  0.4685  0.3778
  188SAPI    H521587   0.546   5.512   5.539 -1.0697 -1.6006  2.2362
  188SAPI    O521588   0.490   5.511   5.335 -0.2128  0.9999 -0.1656
  188SAPI   HO521589   0.573   5.557   5.322 -0.4844  0.6804 -3.4711
  188SAPI   C1621590   0.665   5.369   5.435  0.1115  0.5993  0.1753
  188SAPI    H621591   0.653   5.304   5.346  1.1258  1.5052 -0.6303
  188SAPI    O621592   0.764   5.466   5.398 -0.1373  0.4721  0.0098
  188SAPI   HO621593   0.845   5.417   5.415  1.0167  1.1938 -3.0953
  188SAPI   C1121594   0.709   5.292   5.556  0.7157  0.2474  0.7045
  188SAPI    H121595   0.712   5.366   5.639  0.1734  0.8993  0.1513
  188SAPI     P21596   0.958   5.220   5.630  0.5884  0.1405  0.2294
  188SAPI   O1321597   1.080   5.180   5.561  0.3359 -0.2673 -0.1720
  188SAPI   O1421598   0.911   5.146   5.757 -0.2691 -0.3640 -0.6124
  188SAPI   O1221599   0.837   5.226   5.520  0.8668 -0.4481  0.3305
  188SAPI   O1121600   0.961   5.382   5.659  0.2914  0.1220 -0.2276
  188SAPI    C121601   0.955   5.414   5.800 -0.2268 -0.7338  0.1874
  188SAPI    HA21602   0.892   5.343   5.857 -0.4532  0.4772  1.4722
  188SAPI    HB21603   1.057   5.407   5.842 -0.4001 -0.1683  0.7131
  188SAPI    C221604   0.914   5.560   5.843  0.4494  0.3144  0.8392
  188SAPI    HS21605   0.970   5.640   5.790  2.1916 -0.3965  1.5480
  188SAPI   O2121606   0.947   5.583   5.980 -0.7708 -0.3335  0.3630
  188SAPI   C2121607   0.955   5.709   6.029 -0.4982  0.1353 -0.2025
  188SAPI   O2221608   0.945   5.804   5.953  0.5075  0.0132  0.2938
  188SAPI   C2221609   0.996   5.710   6.177 -0.2679 -1.0325  0.0204
  188SAPI   H2R21610   1.071   5.631   6.195  1.8344  1.0201  0.5663
  188SAPI   H2S21611   1.045   5.808   6.199 -0.3046 -0.7053 -1.3223
  188SAPI    C321612   0.764   5.583   5.808  0.2604  0.5050 -0.1147
  188SAPI    HX21613   0.755   5.572   5.697  2.2101  1.5920 -0.3933
  188SAPI    HY21614   0.732   5.686   5.832 -0.9257 -0.0927  0.9667
  188SAPI   O3121615   0.681   5.478   5.866 -0.4509 -0.3742 -0.2436
  188SAPI   C3121616   0.635   5.510   5.988 -0.0384  1.0155  0.6148
  188SAPI   O3221617   0.649   5.618   6.043  0.9379  0.6500 -0.0943
  188SAPI   C3221618   0.576   5.386   6.050 -0.1421 -0.3163 -0.3574
  188SAPI   H2X21619   0.563   5.317   5.964 -2.1675  0.3763 -0.6364
  188SAPI   H2Y21620   0.477   5.414   6.092  0.3522  0.3286  0.3786
  188SAPI   C2321621   0.884   5.688   6.279  0.1228  0.1572  0.4415
  188SAPI   H3R21622   0.824   5.596   6.262 -0.7895  0.8746 -0.2772
  188SAPI   H3S21623   0.805   5.765   6.265 -0.6762 -0.5741  0.9277
  188SAPI   C2421624   0.918   5.671   6.428  0.7566 -0.0569  0.0732
  188SAPI   H4R21625   0.834   5.696   6.496  1.5223 -0.6736  1.2590
  188SAPI   H4S21626   0.985   5.757   6.449 -0.5443  1.1692 -0.7150
  188SAPI   C2521627   0.982   5.541   6.467 -0.6039 -0.1153  0.8828
  188SAPI   H5R21628   1.090   5.533   6.447 -1.0832 -1.5660 -1.3473
  188SAPI   C2621629   0.923   5.454   6.547 -0.2316 -0.0445 -0.6933
  188SAPI   H6R21630   0.979   5.364   6.577  1.5062  1.2868  0.1186
  188SAPI   C2721631   0.787   5.444   6.611  0.0747 -0.5100  0.0763
  188SAPI   H7R21632   0.725   5.530   6.578  0.0311 -0.9272 -0.9496
  188SAPI   H7S21633   0.796   5.444   6.722 -0.0740  0.9650  0.1000
  188SAPI   C2821634   0.720   5.319   6.559 -0.0800 -0.3779 -0.1532
  188SAPI   H8R21635   0.752   5.284   6.460  0.5422  1.4472 -0.6290
  188SAPI   C2921636   0.618   5.257   6.625  0.5292 -0.0260 -0.3248
  188SAPI   H9R21637   0.586   5.159   6.585  0.6620  0.1438 -0.8508
  188SAPI  C21021638   0.561   5.288   6.756  0.4655 -0.6110  0.1043
  188SAPI  H10R21639   0.460   5.330   6.734  0.0704 -0.1662  2.5763
  188SAPI  H10S21640   0.628   5.363   6.805  0.1669 -0.1723 -0.1602
  188SAPI  C21121641   0.560   5.171   6.847 -0.3378  0.1205  0.4409
  188SAPI  H11R21642   0.649   5.106   6.842 -1.0246 -0.7064 -2.1298
  188SAPI  C21221643   0.462   5.134   6.930 -0.1863  0.5091  0.3317
  188SAPI  H12R21644   0.477   5.037   6.980  2.1360  2.7017  4.1447
  188SAPI  C21321645   0.328   5.199   6.952 -0.4289  0.1161  0.2859
  188SAPI  H13R21646   0.253   5.116   6.951 -0.9402  0.5773 -0.2002
  188SAPI  H13S21647   0.299   5.242   6.853 -1.1239  0.6738  0.7289
  188SAPI  C21421648   0.319   5.301   7.057  1.2437  0.1188 -0.5394
  188SAPI  H14R21649   0.393   5.381   7.043  2.1219 -0.7165 -0.8278
  188SAPI  C21521650   0.230   5.310   7.156  0.1416 -0.5455 -0.5375
  188SAPI  H15R21651   0.227   5.385   7.236  2.2451 -1.2115  0.1920
  188SAPI  C21621652   0.126   5.202   7.183 -0.0995  0.2955 -0.4583
  188SAPI  H16R21653   0.130   5.178   7.291  0.1442 -1.7768 -0.9121
  188SAPI  H16S21654   0.162   5.105   7.142 -0.2228  0.6072 -1.3162
  188SAPI  C21721655  -0.024   5.224   7.156 -0.1678  0.4661 -0.3611
  188SAPI  H17R21656  -0.067   5.290   7.235  0.4083 -0.5354  0.8117
  188SAPI  H17S21657  -0.079   5.129   7.171  1.9375 -1.0305 -1.9062
  188SAPI  C21821658  -0.057   5.261   7.012 -0.4773 -0.0529  0.2491
  188SAPI  H18R21659  -0.027   5.181   6.942  2.9608  1.0973  0.2877
  188SAPI  H18S21660   0.003   5.352   6.990 -1.2408  0.3286 -0.2644
  188SAPI  C21921661  -0.206   5.311   6.995  0.2767 -0.2140 -0.5440
  188SAPI  H19R21662  -0.233   5.339   6.891 -3.3071 -2.3284 -0.2531
  188SAPI  H19S21663  -0.214   5.407   7.051 -0.4756 -0.2374 -0.5981
  188SAPI  C22021664  -0.301   5.212   7.052  0.1297  0.1534  0.6206
  188SAPI  H20R21665  -0.404   5.254   7.043 -0.0932 -0.4879  0.1447
  188SAPI  H20S21666  -0.293   5.201   7.162 -1.3661  0.8880  0.8298
  188SAPI  H20T21667  -0.298   5.113   7.002 -2.0272  0.1781  0.3723
  188SAPI   C3321668   0.661   5.326   6.172  0.4305 -0.3767 -0.6167
  188SAPI   H3X21669   0.601   5.249   6.224 -0.1433  0.2760 -0.2957
  188SAPI   H3Y21670   0.694   5.401   6.248 -1.1599  0.3779 -0.6470
  188SAPI   C3421671   0.781   5.249   6.109  0.0203  0.8369 -0.2961
  188SAPI   H4X21672   0.844   5.317   6.047 -0.6824  0.6641 -1.2243
  188SAPI   H4Y21673   0.747   5.161   6.050 -1.6623  0.2506  1.5227
  188SAPI   C3521674   0.883   5.195   6.212  0.0106 -0.7827 -0.1778
  188SAPI   H5X21675   0.904   5.269   6.293  0.4653  1.2884 -2.1321
  188SAPI   H5Y21676   0.978   5.168   6.161 -2.3975 -0.9243 -4.8451
  188SAPI   C3621677   0.831   5.064   6.269 -0.2645 -0.8818  0.2239
  188SAPI   H6X21678   0.831   4.997   6.180 -1.8497 -1.3942  0.5937
  188SAPI   H6Y21679   0.741   5.086   6.331  0.7237 -0.2031  1.4571
  188SAPI   C3721680   0.942   5.000   6.358 -0.8092  0.2327  0.2645
  188SAPI   H7X21681   1.044   4.996   6.315 -0.6005 -0.9326  0.8344
  188SAPI   H7Y21682   0.923   4.894   6.384 -0.4358  0.2094  0.4557
  188SAPI   C3821683   0.955   5.064   6.502 -0.1707  0.0806 -0.0106
  188SAPI   H8X21684   0.853   5.066   6.547  0.0842  0.9371  0.5465
  188SAPI   H8Y21685   0.985   5.169   6.484 -0.7566  0.4840  1.2996
  188SAPI   C3921686   1.046   4.994   6.593  0.2797  0.1878 -0.0172
  188SAPI   H9X21687   1.138   4.972   6.535  0.5520 -2.2876  1.2446
  188SAPI   H9Y21688   1.004   4.894   6.622  0.4965  0.1355  0.1161
  188SAPI  C31021689   1.071   5.074   6.717  0.9005  0.2049  0.3367
  188SAPI  H10X21690   1.095   5.178   6.687 -2.2330  0.8673  0.0584
  188SAPI  H10Y21691   1.166   5.043   6.767  1.3080  0.9135  0.0114
  188SAPI  C31121692   0.950   5.086   6.812  0.0649 -0.1417  0.0620
  188SAPI  H11X21693   0.940   4.993   6.871 -0.8271  1.0746  1.9019
  188SAPI  H11Y21694   0.853   5.109   6.763 -1.1688 -0.9398  2.0338
  188SAPI  C31221695   0.976   5.204   6.903  0.1415  0.0826  0.2710
  188SAPI  H12X21696   0.892   5.198   6.977  1.4816 -0.7573  1.7635
  188SAPI  H12Y21697   0.979   5.301   6.850  3.3299 -0.2844 -0.3090
  188SAPI  C31321698   1.111   5.201   6.980  0.5425 -0.4664  0.4577
  188SAPI  H13X21699   1.204   5.227   6.925  0.1910 -0.1972 -0.0084
  188SAPI  H13Y21700   1.127   5.094   7.006  0.4189 -0.6587 -0.2595
  188SAPI  C31421701   1.100   5.293   7.101 -0.3198  0.5414 -0.0418
  188SAPI  H14X21702   1.001   5.287   7.151  0.8678  1.0044  2.4865
  188SAPI  H14Y21703   1.106   5.396   7.061  1.6916  0.9021  1.1245
  188SAPI  C31521704   1.210   5.281   7.203  0.4427  0.3190  0.2726
  188SAPI  H15X21705   1.306   5.315   7.160  0.5225  1.8027  1.5763
  188SAPI  H15Y21706   1.211   5.175   7.235  1.8066  0.3498  0.3207
  188SAPI  C31621707   1.179   5.365   7.328  0.0760 -0.1018  0.2917
  188SAPI  H16X21708   1.074   5.363   7.364 -0.0281 -2.5299 -0.0642
  188SAPI  H16Y21709   1.191   5.471   7.300  1.6279 -0.8271 -1.9377
  188SAPI  C31721710   1.275   5.349   7.454 -0.0467  0.1785  0.1406
  188SAPI  H17X21711   1.383   5.359   7.426  0.1243 -2.2537 -0.1750
  188SAPI  H17Y21712   1.251   5.250   7.499 -1.7758  1.1568  1.4146
  188SAPI  C31821713   1.228   5.442   7.576  0.7864 -0.0373 -0.0915
  188SAPI  H18X21714   1.119   5.425   7.587  1.0059 -0.5613  1.2899
  188SAPI  H18Y21715   1.256   5.545   7.544 -1.4993  0.9458  1.0105
  188SAPI  H18Z21716   1.288   5.416   7.666 -1.1399 -1.5777  0.7611
  189POPC     N21717   4.207   6.587   9.820 -0.4336 -0.0599  0.1042
  189POPC   C1221718   4.102   6.487   9.763  0.5445  0.2349 -0.4134
  189POPC  H12A21719   4.008   6.528   9.796  0.1932  0.6876 -1.9036
  189POPC  H12B21720   4.116   6.396   9.820  0.4155  1.5491  1.7351
  189POPC   C1321721   4.183   6.733   9.791 -0.0908 -0.3455 -0.0079
  189POPC  H13A21722   4.170   6.744   9.684  1.0109 -0.4096 -0.1582
  189POPC  H13B21723   4.094   6.767   9.841  0.2390  1.3412 -0.5211
  189POPC  H13C21724   4.267   6.795   9.819 -0.3122 -0.4521  0.9022
  189POPC   C1421725   4.214   6.571   9.967 -0.0941 -0.2236  0.0268
  189POPC  H14A21726   4.207   6.471  10.008  0.6155 -0.6021 -0.7492
  189POPC  H14B21727   4.300   6.631   9.991 -1.3973  1.3586  0.8122
  189POPC  H14C21728   4.128   6.629   9.996  0.6214 -0.1753  2.1338
  189POPC   C1521729   4.338   6.550   9.770 -0.3961 -0.3167 -0.0443
  189POPC  H15A21730   4.340   6.563   9.663 -2.1258  1.0696  0.0722
  189POPC  H15B21731   4.361   6.447   9.789  0.7216 -0.1812 -0.6352
  189POPC  H15C21732   4.411   6.610   9.821 -0.4316  0.3596 -0.7745
  189POPC   C1121733   4.088   6.477   9.607  0.1808 -0.3446  0.5803
  189POPC  H11A21734   4.020   6.392   9.584  1.2983 -1.6608  2.0140
  189POPC  H11B21735   4.185   6.463   9.556 -0.3352 -1.9340 -0.0167
  189POPC     P21736   3.890   6.648   9.580  0.4147  0.1279 -0.1191
  189POPC   O1321737   3.871   6.792   9.558 -0.8672  0.0496 -0.8240
  189POPC   O1421738   3.849   6.600   9.717 -0.5625  0.1243  0.3945
  189POPC   O1221739   4.040   6.603   9.553 -0.0395 -0.2763  0.2778
  189POPC   O1121740   3.814   6.569   9.469  0.2253  0.0787  0.7655
  189POPC    C121741   3.802   6.597   9.329  0.0451  0.6905  0.3682
  189POPC    HA21742   3.790   6.706   9.311  2.6305  0.9099 -0.2598
  189POPC    HB21743   3.706   6.557   9.292  0.7478 -1.2756  0.6359
  189POPC    C221744   3.915   6.531   9.244 -0.2324  0.1684 -0.2553
  189POPC    HS21745   4.014   6.564   9.283 -0.4105 -2.2813  2.4537
  189POPC   O2121746   3.915   6.560   9.106  0.1267 -0.1356 -0.2871
  189POPC   C2121747   3.939   6.686   9.067  0.3551  0.0256  0.3742
  189POPC   O2221748   3.957   6.783   9.137 -0.9199  0.2509 -0.1646
  189POPC   C2221749   3.922   6.691   8.909  0.2319 -0.1135 -0.2239
  189POPC   H2R21750   3.818   6.673   8.874  0.2117  1.3852 -0.9935
  189POPC   H2S21751   3.991   6.612   8.874  2.7994  1.3416  1.4260
  189POPC    C321752   3.913   6.377   9.248  0.1528  0.0556 -0.1685
  189POPC    HX21753   3.946   6.358   9.352 -0.7381  0.7980  0.2526
  189POPC    HY21754   3.990   6.325   9.187 -1.5057 -0.6737 -1.6851
  189POPC   O3121755   3.780   6.332   9.212  0.6029 -0.1239 -0.3759
  189POPC   C3121756   3.770   6.206   9.243  0.3689  0.0102 -0.0845
  189POPC   O3221757   3.854   6.132   9.294  0.1099 -0.3770 -0.1313
  189POPC   C3221758   3.625   6.170   9.226 -0.3221  0.9533 -0.0207
  189POPC   H2X21759   3.601   6.200   9.121 -1.4371  0.8231  0.1928
  189POPC   H2Y21760   3.567   6.243   9.286 -0.3727  0.2083  0.8477
  189POPC   C2321761   3.963   6.832   8.849  0.4446  0.3140  0.4086
  189POPC   H3R21762   4.063   6.861   8.888 -0.2045  1.7762  1.0635
  189POPC   H3S21763   3.883   6.904   8.877  1.2010  0.8293  1.3043
  189POPC   C2421764   3.982   6.812   8.703  0.5820 -0.2027  0.0342
  189POPC   H4R21765   3.908   6.748   8.651 -1.6288  2.5307 -0.2433
  189POPC   H4S21766   4.078   6.756   8.691  0.0602 -0.5297 -3.0464
  189POPC   C2521767   3.978   6.941   8.630  0.1976 -0.7798 -0.0498
  189POPC   H5R21768   4.055   7.005   8.678 -1.4476  2.4964 -1.5976
  189POPC   H5S21769   3.879   6.988   8.648  0.8001  1.0021 -1.2427
  189POPC   C2621770   4.010   6.935   8.474 -1.0215 -0.1700 -0.2592
  189POPC   H6R21771   4.008   7.040   8.440  1.7768  0.5311  1.5615
  189POPC   H6S21772   3.937   6.867   8.424 -1.9112  1.5860 -1.3846
  189POPC   C2721773   4.152   6.892   8.445 -0.0727  0.1830  0.6463
  189POPC   H7R21774   4.194   6.812   8.510  1.8126  1.7212  1.3934
  189POPC   H7S21775   4.224   6.976   8.457  0.1773  0.1606 -0.6779
  189POPC   C2821776   4.177   6.847   8.302 -0.6796 -0.1473  0.2141
  189POPC   H8R21777   4.133   6.924   8.235  0.1136  0.3794  0.2890
  189POPC   H8S21778   4.110   6.760   8.287  1.0246 -1.7178  1.4888
  189POPC   C2921779   4.318   6.818   8.265  0.2128  0.0468  0.5844
  189POPC   H9121780   4.363   6.733   8.319  1.2632 -0.2190 -0.7141
  189POPC  C21021781   4.409   6.895   8.201 -0.6150  0.1182 -0.5340
  189POPC  H10121782   4.510   6.856   8.181 -1.4746 -1.5507 -1.7894
  189POPC  C21121783   4.381   7.030   8.138  0.5659 -0.0009 -0.2417
  189POPC  H11R21784   4.459   7.108   8.150 -0.5509  1.1420 -0.2610
  189POPC  H11S21785   4.281   7.062   8.174  0.4415 -0.0029 -0.5794
  189POPC  C21221786   4.353   7.012   7.991 -0.2616 -0.8223 -0.0287
  189POPC  H12R21787   4.305   7.107   7.958 -2.9345 -2.4348 -0.9078
  189POPC  H12S21788   4.273   6.937   7.975  0.6332 -1.2682 -2.6367
  189POPC  C21321789   4.473   6.980   7.908  0.3631 -0.3080  0.4104
  189POPC  H13R21790   4.539   6.914   7.968 -0.0311  0.1802  1.3942
  189POPC  H13S21791   4.550   7.058   7.887  0.4186 -0.8981 -1.7191
  189POPC  C21421792   4.440   6.906   7.778  0.5824 -0.2540  0.9632
  189POPC  H14R21793   4.386   6.980   7.715  0.4792  0.0560  1.4064
  189POPC  H14S21794   4.383   6.811   7.786  0.4912 -0.1601  1.4816
  189POPC  C21521795   4.561   6.861   7.703 -0.3416  0.4123  0.2418
  189POPC  H15R21796   4.610   6.787   7.769 -0.8720  1.0724  1.3977
  189POPC  H15S21797   4.641   6.937   7.693  0.4945 -0.2637  1.6398
  189POPC  C21621798   4.532   6.803   7.565  0.4449  0.1296  0.9385
  189POPC  H16R21799   4.586   6.872   7.496  0.2266 -0.3625  0.2711
  189POPC  H16S21800   4.425   6.800   7.536  0.5847  0.5622  0.3700
  189POPC  C21721801   4.578   6.660   7.549 -0.6218  0.0599 -0.1848
  189POPC  H17R21802   4.688   6.658   7.563 -0.4804 -1.0479 -1.3836
  189POPC  H17S21803   4.570   6.625   7.444 -0.1050 -1.1030  0.1647
  189POPC  C21821804   4.511   6.558   7.639 -0.0911  0.1213  0.0152
  189POPC  H18R21805   4.401   6.560   7.623  0.0973 -0.5150 -1.4768
  189POPC  H18S21806   4.540   6.568   7.746 -2.4594 -0.5576  0.7440
  189POPC  H18T21807   4.549   6.457   7.612  0.3776 -0.0148  1.1570
  189POPC   C3321808   3.600   6.012   9.254  0.5372 -0.4908 -0.2214
  189POPC   H3X21809   3.491   5.996   9.241  0.1411  1.3377  0.6958
  189POPC   H3Y21810   3.632   5.991   9.359 -0.3733  1.0386  0.3874
  189POPC   C3421811   3.673   5.915   9.158 -0.0914  0.3548  0.3143
  189POPC   H4X21812   3.652   5.812   9.196 -1.7113 -0.4994 -2.7734
  189POPC   H4Y21813   3.783   5.924   9.151 -0.1321 -0.1954 -1.2107
  189POPC   C3521814   3.631   5.921   9.010  0.4535 -0.0040 -0.3372
  189POPC   H5X21815   3.652   6.023   8.970  0.4465  0.0511 -0.2018
  189POPC   H5Y21816   3.522   5.902   9.001  0.6117 -3.0075  3.0774
  189POPC   C3621817   3.716   5.829   8.919  0.1471  0.1469 -0.1133
  189POPC   H6X21818   3.692   5.726   8.951 -2.0008  1.1887  1.8403
  189POPC   H6Y21819   3.826   5.835   8.928  0.1885  1.9119 -1.5083
  189POPC   C3721820   3.671   5.845   8.771 -0.6450 -0.1701 -0.0364
  189POPC   H7X21821   3.723   5.927   8.717 -0.0988 -0.3512  0.2150
  189POPC   H7Y21822   3.562   5.865   8.774 -0.5192  0.9840 -1.9711
  189POPC   C3821823   3.690   5.717   8.684 -0.1913 -0.0865  0.6645
  189POPC   H8X21824   3.615   5.710   8.603  0.0877 -0.3387  0.4251
  189POPC   H8Y21825   3.665   5.623   8.739 -0.5236 -0.7690 -0.6383
  189POPC   C3921826   3.838   5.710   8.629  0.0671 -0.0350 -0.0830
  189POPC   H9X21827   3.910   5.724   8.712  0.6520  2.4382 -0.9805
  189POPC   H9Y21828   3.851   5.797   8.562 -0.4081 -0.0524 -0.1964
  189POPC  C31021829   3.876   5.580   8.556  0.0618  1.0289 -0.0996
  189POPC  H10X21830   3.840   5.497   8.620  2.5566 -0.0541 -0.0245
  189POPC  H10Y21831   3.987   5.574   8.549  0.2285  1.8166  1.5644
  189POPC  C31121832   3.811   5.569   8.415  0.2437  0.4667  0.5943
  189POPC  H11X21833   3.742   5.656   8.415  0.8596  0.9989 -1.8905
  189POPC  H11Y21834   3.752   5.475   8.414  1.5041 -0.3616  2.4946
  189POPC  C31221835   3.914   5.576   8.297  0.2092  1.1171  0.3103
  189POPC  H12X21836   3.939   5.473   8.265 -1.9902  1.0079 -1.1754
  189POPC  H12Y21837   4.010   5.630   8.311  0.9967 -0.4038  0.9176
  189POPC  C31321838   3.850   5.644   8.175  0.0212  0.5170 -0.3344
  189POPC  H13X21839   3.912   5.628   8.084 -0.5300  1.6762 -0.9278
  189POPC  H13Y21840   3.850   5.753   8.194  0.7064  0.8156 -1.9529
  189POPC  C31421841   3.709   5.593   8.137  0.2457  0.3577 -0.4187
  189POPC  H14X21842   3.636   5.635   8.210  1.1770  0.2368  0.5954
  189POPC  H14Y21843   3.719   5.482   8.143 -2.0975  0.1070 -0.6621
  189POPC  C31521844   3.656   5.647   8.002 -0.4532  0.0435  0.2034
  189POPC  H15X21845   3.728   5.616   7.923 -2.0785 -3.0681 -0.1188
  189POPC  H15Y21846   3.647   5.757   8.010  0.1265 -0.0320  2.2179
  189POPC  C31621847   3.531   5.573   7.951  0.1157 -0.4140  0.1707
  189POPC  H16X21848   3.487   5.618   7.859  1.7789  2.3667  0.6686
  189POPC  H16Y21849   3.454   5.579   8.031  0.8475  0.1771  0.8375
  189POPC  H16Z21850   3.549   5.465   7.935 -0.2304 -0.5270  0.5486
  190POPC     N21851   6.286   2.403   9.711 -0.4688  0.4654  0.3674
  190POPC   C1221852   6.237   2.529   9.638  0.5356 -0.5353  0.2344
  190POPC  H12A21853   6.220   2.612   9.705 -0.2595 -0.1256 -0.4575
  190POPC  H12B21854   6.142   2.512   9.590  0.0434  0.1986  0.9458
  190POPC   C1321855   6.289   2.294   9.604  0.3030  0.0505 -0.3030
  190POPC  H13A21856   6.347   2.207   9.627 -1.8431 -1.9240 -2.1202
  190POPC  H13B21857   6.189   2.260   9.581  0.4092 -0.1676 -0.4348
  190POPC  H13C21858   6.329   2.345   9.518 -0.6442  0.2748 -0.6228
  190POPC   C1421859   6.422   2.415   9.767  0.1448  0.2263  0.0185
  190POPC  H14A21860   6.432   2.510   9.818 -1.7679  1.5379 -1.9905
  190POPC  H14B21861   6.459   2.346   9.842 -0.8564 -0.0674  0.2447
  190POPC  H14C21862   6.493   2.404   9.687  0.2502 -2.4722  0.4593
  190POPC   C1521863   6.186   2.371   9.820  0.2057  0.2015 -0.0693
  190POPC  H15A21864   6.086   2.380   9.780  0.1028  0.5168  0.2518
  190POPC  H15B21865   6.186   2.456   9.888  0.3482 -0.2108  0.4461
  190POPC  H15C21866   6.194   2.277   9.871 -2.0357  1.4349  2.6925
  190POPC   C1121867   6.325   2.591   9.520  0.5328  0.1221 -0.7479
  190POPC  H11A21868   6.271   2.673   9.468 -0.6179  1.2313  2.1143
  190POPC  H11B21869   6.346   2.520   9.437  3.2130  0.7623 -0.6497
  190POPC     P21870   6.455   2.767   9.656  0.0411  0.1016 -0.0798
  190POPC   O1321871   6.493   2.738   9.797  0.5212 -0.6586 -0.0629
  190POPC   O1421872   6.330   2.836   9.630  0.2991  0.4834  0.1748
  190POPC   O1221873   6.452   2.632   9.577 -0.0495 -1.1023  0.0988
  190POPC   O1121874   6.572   2.848   9.596  0.4116  0.6832 -0.1250
  190POPC    C121875   6.679   2.793   9.518 -0.7478 -0.7334  0.3163
  190POPC    HA21876   6.705   2.694   9.561  0.1133  0.1751  1.9022
  190POPC    HB21877   6.763   2.863   9.537 -2.0157  1.0654 -0.5883
  190POPC    C221878   6.644   2.800   9.366 -0.2954  0.2149 -1.2190
  190POPC    HS21879   6.548   2.747   9.349  0.9134 -1.9945 -1.3145
  190POPC   O2121880   6.754   2.744   9.288  0.2445 -0.2788 -0.0386
  190POPC   C2121881   6.726   2.679   9.182 -0.5703  0.4460  0.4227
  190POPC   O2221882   6.616   2.643   9.135 -0.1647  0.0114 -0.3984
  190POPC   C2221883   6.856   2.638   9.112  0.6688  0.0450 -0.5035
  190POPC   H2R21884   6.912   2.575   9.185 -2.2126 -4.3020 -1.8679
  190POPC   H2S21885   6.919   2.729   9.100 -1.2099  1.3623 -0.4827
  190POPC    C321886   6.611   2.948   9.323 -0.8567  0.7361  0.0314
  190POPC    HX21887   6.682   3.023   9.366  0.6517  1.2857 -3.2059
  190POPC    HY21888   6.516   2.977   9.372 -1.6948 -0.6358 -0.7622
  190POPC   O3121889   6.604   2.963   9.179  0.2435  0.6973 -0.5746
  190POPC   C3121890   6.486   2.943   9.123  0.5814 -0.7414  0.2558
  190POPC   O3221891   6.380   2.916   9.178 -0.0634  0.7952  0.3065
  190POPC   C3221892   6.506   2.957   8.972  0.2183 -0.0343 -0.0962
  190POPC   H2X21893   6.614   2.974   8.951  0.1472  0.2548 -0.2235
  190POPC   H2Y21894   6.445   3.046   8.945  0.5596  0.6908  1.4550
  190POPC   C2321895   6.840   2.559   8.979 -0.1674  0.1252 -0.0582
  190POPC   H3R21896   6.939   2.555   8.927 -0.4655  0.0644 -0.6252
  190POPC   H3S21897   6.766   2.600   8.907 -0.1377  0.3293  0.0306
  190POPC   C2421898   6.805   2.407   9.000  0.1520 -0.3858  0.2010
  190POPC   H4R21899   6.703   2.397   9.042  0.9289 -0.2208  2.1831
  190POPC   H4S21900   6.871   2.371   9.082 -0.3626  0.0425  0.8114
  190POPC   C2521901   6.835   2.324   8.876  0.0904 -0.4614  0.6075
  190POPC   H5R21902   6.847   2.215   8.893  0.0584 -0.4741  0.5497
  190POPC   H5S21903   6.932   2.361   8.837 -1.2594  4.0806  1.2650
  190POPC   C2621904   6.740   2.350   8.757  0.3627  0.0127 -0.6376
  190POPC   H6R21905   6.713   2.458   8.757  0.9333  0.1587  0.0893
  190POPC   H6S21906   6.639   2.305   8.768  1.3403 -1.8455  1.1987
  190POPC   C2721907   6.805   2.313   8.625  0.5494 -0.7346  0.6447
  190POPC   H7R21908   6.851   2.212   8.628  1.3273 -0.3837  0.5574
  190POPC   H7S21909   6.894   2.378   8.611 -1.1033  1.3562 -0.4404
  190POPC   C2821910   6.717   2.340   8.499  0.0569 -0.4559  0.5191
  190POPC   H8R21911   6.743   2.445   8.475 -2.5991  0.1276  0.0346
  190POPC   H8S21912   6.613   2.329   8.536 -0.1515 -0.3862 -0.0463
  190POPC   C2921913   6.749   2.233   8.396  0.1852  0.1489 -0.0488
  190POPC   H9121914   6.695   2.138   8.404  0.5154 -0.1433 -1.1859
  190POPC  C21021915   6.825   2.249   8.289  0.7658  0.1533 -0.0217
  190POPC  H10121916   6.843   2.158   8.230 -0.3790  0.1996 -0.4429
  190POPC  C21121917   6.894   2.378   8.243  0.0734  0.0422  0.2971
  190POPC  H11R21918   7.004   2.369   8.229 -0.0949 -1.1403 -0.3932
  190POPC  H11S21919   6.887   2.464   8.313  1.4469  2.0291 -1.9278
  190POPC  C21221920   6.848   2.418   8.102 -0.4707 -0.8824 -0.9185
  190POPC  H12R21921   6.874   2.337   8.030  1.1839 -0.6406 -0.6157
  190POPC  H12S21922   6.911   2.505   8.076  0.8981 -1.0439  1.6389
  190POPC  C21321923   6.697   2.439   8.087 -0.1554 -0.1425  1.1649
  190POPC  H13R21924   6.656   2.493   8.175 -1.2653 -1.3478  1.4088
  190POPC  H13S21925   6.642   2.343   8.078 -1.6486  0.7927  0.0710
  190POPC  C21421926   6.656   2.518   7.961 -0.0224  0.5454 -0.4772
  190POPC  H14R21927   6.545   2.518   7.953  0.1706  1.9844 -4.4357
  190POPC  H14S21928   6.693   2.473   7.866 -0.4764 -1.2768  0.1741
  190POPC  C21521929   6.697   2.668   7.956 -0.3604 -0.5908 -0.2212
  190POPC  H15R21930   6.806   2.678   7.975 -0.4879 -2.6968  1.8971
  190POPC  H15S21931   6.655   2.704   8.052  1.8414  0.2920  0.4359
  190POPC  C21621932   6.637   2.745   7.834  0.0901  0.0665 -0.0328
  190POPC  H16R21933   6.529   2.720   7.836 -0.1219  1.0076  0.3746
  190POPC  H16S21934   6.675   2.704   7.737  0.2115 -0.9853  0.4445
  190POPC  C21721935   6.664   2.896   7.847 -0.2429 -0.4651  0.6849
  190POPC  H17R21936   6.754   2.912   7.910  0.7425  1.5278 -1.1508
  190POPC  H17S21937   6.584   2.949   7.904  0.9099  1.2529  0.7643
  190POPC  C21821938   6.677   2.956   7.707  0.3668  0.4705  0.5895
  190POPC  H18R21939   6.580   2.959   7.654 -0.1088  1.3392  1.5011
  190POPC  H18S21940   6.735   2.899   7.631 -1.1081  1.7040 -1.5125
  190POPC  H18T21941   6.729   3.054   7.707  0.4988  0.4040 -1.3444
  190POPC   C3321942   6.468   2.838   8.895  0.5571  0.1910 -0.0075
  190POPC   H3X21943   6.359   2.821   8.891  0.1183  3.1918 -2.6041
  190POPC   H3Y21944   6.512   2.746   8.939  3.9772  1.3151 -0.8317
  190POPC   C3421945   6.521   2.829   8.748  0.2078  0.1953 -0.3797
  190POPC   H4X21946   6.627   2.799   8.741  0.0347 -0.6420  0.6153
  190POPC   H4Y21947   6.523   2.931   8.703 -0.9102  0.2681 -0.2797
  190POPC   C3521948   6.450   2.727   8.665 -0.0282  0.1402  0.0998
  190POPC   H5X21949   6.348   2.765   8.643 -0.0906 -1.6496 -3.1745
  190POPC   H5Y21950   6.446   2.626   8.713 -0.3091  0.7099  1.2796
  190POPC   C3621951   6.497   2.727   8.517  0.1236 -0.1699 -0.7786
  190POPC   H6X21952   6.594   2.677   8.496  0.4120  0.2634 -0.4738
  190POPC   H6Y21953   6.507   2.833   8.486 -1.7277 -0.1087 -1.2191
  190POPC   C3721954   6.391   2.657   8.425 -0.8647  0.1245  0.0528
  190POPC   H7X21955   6.286   2.673   8.459 -0.9887 -1.6328  0.5512
  190POPC   H7Y21956   6.403   2.547   8.428 -0.2914  0.1979  0.7196
  190POPC   C3821957   6.417   2.700   8.278 -0.2011  0.1585  0.1685
  190POPC   H8X21958   6.519   2.661   8.258 -1.3250 -2.1629 -1.1789
  190POPC   H8Y21959   6.426   2.810   8.291  0.0126  0.0017  1.4453
  190POPC   C3921960   6.310   2.645   8.191  0.0264  0.5197 -0.0212
  190POPC   H9X21961   6.227   2.607   8.254  1.4672  0.3500  1.7801
  190POPC   H9Y21962   6.350   2.557   8.137 -0.6994 -0.4143  0.9598
  190POPC  C31021963   6.283   2.740   8.072 -0.6831 -0.1480  0.2802
  190POPC  H10X21964   6.369   2.742   8.002 -1.4533 -0.1877 -0.6881
  190POPC  H10Y21965   6.269   2.842   8.111  3.8436  0.1538  1.3992
  190POPC  C31121966   6.150   2.706   7.994  0.1024 -0.0974  0.5330
  190POPC  H11X21967   6.074   2.747   8.064 -1.8398  2.7636 -3.0597
  190POPC  H11Y21968   6.147   2.596   7.975 -0.4439 -0.0409  0.2897
  190POPC  C31221969   6.128   2.785   7.865 -0.6782 -0.1227  0.6411
  190POPC  H12X21970   6.196   2.736   7.792 -1.2161 -1.1870  0.8587
  190POPC  H12Y21971   6.152   2.893   7.876 -2.0918  0.5875 -2.5313
  190POPC  C31321972   5.988   2.782   7.810  0.6058 -0.7330  0.1952
  190POPC  H13X21973   5.930   2.860   7.865  3.0284  1.5133 -0.3057
  190POPC  H13Y21974   5.942   2.683   7.831 -0.8603  0.1099  1.0367
  190POPC  C31421975   5.972   2.830   7.673 -0.1685 -0.1737  0.2105
  190POPC  H14X21976   6.025   2.775   7.593  1.1818  0.4329  0.6693
  190POPC  H14Y21977   6.002   2.937   7.668  1.9416 -0.6967  1.3066
  190POPC  C31521978   5.819   2.831   7.621 -0.8107 -0.3258  0.6327
  190POPC  H15X21979   5.755   2.880   7.698  0.4572 -0.0216  1.4990
  190POPC  H15Y21980   5.791   2.723   7.625 -1.1785 -0.2852 -0.7287
  190POPC  C31621981   5.798   2.893   7.481 -0.2106  0.4283 -0.5281
  190POPC  H16X21982   5.688   2.900   7.467 -0.5403 -0.7057  1.3199
  190POPC  H16Y21983   5.848   2.836   7.399 -2.1564 -0.6727 -0.9884
  190POPC  H16Z21984   5.836   2.997   7.470 -2.5260  1.3969  0.2285
  191POPC     N21985   4.278   4.346   5.637 -0.0200 -0.0668 -0.6047
  191POPC   C1221986   4.152   4.303   5.719 -0.6745 -0.2489 -0.4009
  191POPC  H12A21987   4.125   4.210   5.671 -1.6067  0.3381 -1.0153
  191POPC  H12B21988   4.082   4.382   5.700 -0.3775  0.6482  2.1193
  191POPC   C1321989   4.397   4.259   5.646  0.2190 -0.3109 -0.3148
  191POPC  H13A21990   4.428   4.247   5.749 -0.1371  1.8803  0.0669
  191POPC  H13B21991   4.381   4.163   5.598  0.0940 -0.6546  0.4041
  191POPC  H13C21992   4.484   4.304   5.602  0.2369 -0.2892 -0.2583
  191POPC   C1421993   4.247   4.352   5.485 -0.3542  0.2577 -0.7215
  191POPC  H14A21994   4.335   4.370   5.424 -1.0587 -0.9357 -2.1268
  191POPC  H14B21995   4.200   4.260   5.455  0.6571 -1.6182  3.1386
  191POPC  H14C21996   4.183   4.436   5.465 -0.1288  2.1079  5.4608
  191POPC   C1521997   4.326   4.482   5.682 -0.6675  0.3468 -0.1143
  191POPC  H15A21998   4.336   4.497   5.789 -3.2368 -1.4201  0.4271
  191POPC  H15B21999   4.246   4.552   5.661  1.0079  1.5040 -2.7768
  191POPC  H15C22000   4.417   4.516   5.636 -0.0139  0.8719  1.5551
  191POPC   C1122001   4.154   4.276   5.871 -0.7559  1.0817 -0.4682
  191POPC  H11A22002   4.048   4.275   5.906 -0.6233 -2.2936  0.0177
  191POPC  H11B22003   4.199   4.365   5.920 -0.7541 -0.7393  3.0309
  191POPC     P22004   4.169   4.016   5.909  0.3738  0.0385  0.4281
  191POPC   O1322005   4.228   3.938   5.797  0.6266 -0.1390 -0.0712
  191POPC   O1422006   4.018   4.014   5.918  0.3118 -0.0434  0.4189
  191POPC   O1222007   4.229   4.163   5.915  0.5157 -0.6066  0.6518
  191POPC   O1122008   4.214   3.965   6.051  0.2737  0.2264  0.5160
  191POPC    C122009   4.344   3.977   6.110 -0.0434 -0.6433  0.1446
  191POPC    HA22010   4.353   3.921   6.205 -0.1515  1.7288  1.6042
  191POPC    HB22011   4.365   4.084   6.134 -0.1637 -0.5110 -0.3156
  191POPC    C222012   4.458   3.911   6.020 -0.2720  0.0844 -1.1749
  191POPC    HS22013   4.434   3.956   5.921 -0.7085  1.4984 -0.4513
  191POPC   O2122014   4.442   3.770   6.034 -0.0949 -0.5283  0.0461
  191POPC   C2122015   4.505   3.693   5.946 -0.3343  0.3372 -0.0159
  191POPC   O2222016   4.563   3.725   5.845  0.0339  0.1051  0.4617
  191POPC   C2222017   4.486   3.548   5.986 -0.1811  0.7672  0.0178
  191POPC   H2R22018   4.534   3.496   5.900 -1.0397 -0.5354  0.3012
  191POPC   H2S22019   4.376   3.532   5.986  0.1718 -2.0091 -0.2196
  191POPC    C322020   4.595   3.967   6.064  0.3500 -0.7897  0.2506
  191POPC    HX22021   4.610   4.074   6.035 -1.4606 -0.5020  0.3290
  191POPC    HY22022   4.670   3.917   5.999  0.2147 -0.1869 -0.3689
  191POPC   O3122023   4.624   3.948   6.206 -0.2422 -0.5440 -0.3057
  191POPC   C3122024   4.717   3.857   6.241 -0.3105  0.4189  0.3296
  191POPC   O3222025   4.754   3.764   6.170 -1.1224 -0.0419  0.2086
  191POPC   C3222026   4.768   3.882   6.383  0.8281 -0.4993  0.0655
  191POPC   H2X22027   4.707   3.820   6.452 -1.2834  0.1169 -1.1964
  191POPC   H2Y22028   4.757   3.988   6.414 -1.8427 -0.3746 -1.1748
  191POPC   C2322029   4.555   3.508   6.114 -0.2103  0.3002  0.3882
  191POPC   H3R22030   4.660   3.544   6.124 -0.6321  1.4493  0.7989
  191POPC   H3S22031   4.560   3.398   6.125 -1.5803  0.0509 -1.3016
  191POPC   C2422032   4.478   3.557   6.242  0.5619  0.4819 -0.9819
  191POPC   H4R22033   4.370   3.560   6.215  0.9982 -0.3016 -2.8793
  191POPC   H4S22034   4.522   3.658   6.261 -0.3858  0.7596 -0.2335
  191POPC   C2522035   4.497   3.466   6.356 -0.5662  0.1089 -0.9983
  191POPC   H5R22036   4.606   3.451   6.373 -0.9052  0.5991  1.8727
  191POPC   H5S22037   4.462   3.361   6.344 -0.8096  0.3481 -2.4742
  191POPC   C2622038   4.456   3.522   6.490 -0.3607  0.5146  0.8321
  191POPC   H6R22039   4.347   3.545   6.485  0.0945  2.3161 -1.3979
  191POPC   H6S22040   4.512   3.617   6.503 -1.3072  1.2766 -0.5073
  191POPC   C2722041   4.483   3.423   6.612  0.2449 -0.0519  0.0680
  191POPC   H7R22042   4.432   3.328   6.585 -1.0613  1.1876 -1.9456
  191POPC   H7S22043   4.437   3.468   6.702 -0.1396 -0.9099  0.3114
  191POPC   C2822044   4.635   3.408   6.642  0.0102  0.6220  0.4686
  191POPC   H8R22045   4.692   3.413   6.546 -0.9404  1.6695 -0.0599
  191POPC   H8S22046   4.654   3.306   6.682 -0.7938  1.0031  1.8216
  191POPC   C2922047   4.687   3.517   6.728 -0.6050  0.5130  0.1144
  191POPC   H9122048   4.716   3.606   6.670  0.4028  0.6124  0.7493
  191POPC  C21022049   4.670   3.532   6.864 -0.5019 -0.0798 -0.9833
  191POPC  H10122050   4.714   3.624   6.906  1.2356 -1.8367  1.1441
  191POPC  C21122051   4.611   3.435   6.965 -0.4071  0.4252  0.1601
  191POPC  H11R22052   4.667   3.428   7.061  0.5553  1.5878 -0.3164
  191POPC  H11S22053   4.623   3.330   6.929  0.6006  1.0457 -1.3650
  191POPC  C21222054   4.475   3.464   7.030 -0.5699 -0.0680 -0.0526
  191POPC  H12R22055   4.456   3.387   7.108 -0.1421  1.4122  1.5282
  191POPC  H12S22056   4.406   3.445   6.945 -0.0839  1.4670 -0.8074
  191POPC  C21322057   4.456   3.598   7.099  0.2845  0.4240  0.0451
  191POPC  H13R22058   4.352   3.634   7.091  0.1491  0.8392  3.0477
  191POPC  H13S22059   4.503   3.684   7.047 -2.7245  1.9559 -0.2450
  191POPC  C21422060   4.500   3.579   7.242  0.0629 -0.3761 -0.3563
  191POPC  H14R22061   4.607   3.550   7.246  0.2631  0.5065  1.1225
  191POPC  H14S22062   4.432   3.505   7.288 -1.0335  0.4445 -0.6274
  191POPC  C21522063   4.489   3.708   7.327  0.9737  0.2064  0.0978
  191POPC  H15R22064   4.379   3.721   7.339  1.0993  0.5260  0.9197
  191POPC  H15S22065   4.528   3.795   7.270 -1.1484  0.6210 -0.7818
  191POPC  C21622066   4.566   3.707   7.465 -0.9463 -0.1801  0.4978
  191POPC  H16R22067   4.550   3.796   7.530  0.4163  0.1537  0.3821
  191POPC  H16S22068   4.675   3.709   7.444 -1.0171  1.8346  0.2456
  191POPC  C21722069   4.540   3.584   7.550 -0.1770  0.0765  0.7929
  191POPC  H17R22070   4.544   3.487   7.494 -0.7540  1.5196 -1.8252
  191POPC  H17S22071   4.432   3.586   7.578 -0.5944  0.2743 -0.7680
  191POPC  C21822072   4.629   3.573   7.677  0.4006 -1.0437  0.4835
  191POPC  H18R22073   4.732   3.547   7.645  0.3385 -1.8365  0.9186
  191POPC  H18S22074   4.587   3.488   7.735 -1.2799 -0.3199  0.3615
  191POPC  H18T22075   4.642   3.665   7.738  0.2952 -0.2348 -0.6917
  191POPC   C3322076   4.914   3.838   6.404 -0.0539 -0.2066 -0.0075
  191POPC   H3X22077   4.980   3.910   6.351  1.9350 -0.6533  1.7801
  191POPC   H3Y22078   4.935   3.739   6.358  1.0380 -0.4755  1.0272
  191POPC   C3422079   4.937   3.830   6.555 -0.3952  0.2369  0.0019
  191POPC   H4X22080   5.031   3.772   6.568 -0.2831  0.6708  1.1911
  191POPC   H4Y22081   4.851   3.782   6.607  0.0329  0.4692  0.9416
  191POPC   C3522082   4.964   3.972   6.613 -0.3861  0.2983  0.3697
  191POPC   H5X22083   4.866   4.023   6.620  1.2704  3.3339  2.7038
  191POPC   H5Y22084   5.035   4.029   6.550  0.8171 -1.6022 -0.0497
  191POPC   C3622085   5.034   3.970   6.754 -0.1426  1.1105  0.0624
  191POPC   H6X22086   5.087   4.064   6.780 -0.3298  0.6727  2.1031
  191POPC   H6Y22087   5.108   3.887   6.742  0.5876  1.9631 -1.5916
  191POPC   C3722088   4.927   3.928   6.859 -0.2634  0.7058 -0.3811
  191POPC   H7X22089   4.850   3.860   6.816 -0.8281  0.9188  0.2716
  191POPC   H7Y22090   4.860   4.014   6.882 -2.1744 -0.5533 -1.0364
  191POPC   C3822091   4.971   3.864   6.991  0.7706  0.5076 -0.2340
  191POPC   H8X22092   5.067   3.913   7.018  0.3798  0.6714  0.8916
  191POPC   H8Y22093   4.999   3.759   6.966 -0.5006  0.3611 -1.0389
  191POPC   C3922094   4.862   3.863   7.100 -0.1748 -0.4446 -0.6408
  191POPC   H9X22095   4.817   3.763   7.081 -3.1008  0.4406  1.3207
  191POPC   H9Y22096   4.800   3.953   7.081  1.9453  1.3508  0.6016
  191POPC  C31022097   4.909   3.870   7.246 -0.1145  0.6679  0.0606
  191POPC  H10X22098   5.001   3.811   7.267  0.0659  1.4698  1.6105
  191POPC  H10Y22099   4.838   3.814   7.311  1.4919 -1.1035  0.3559
  191POPC  C31122100   4.916   4.012   7.300  0.7948  0.8234  0.0449
  191POPC  H11X22101   4.828   4.075   7.275  2.0956  3.5092  1.9304
  191POPC  H11Y22102   4.999   4.056   7.239  1.3524 -1.0781 -0.6078
  191POPC  C31222103   4.917   4.038   7.449  0.4205  0.4284 -0.2026
  191POPC  H12X22104   4.842   3.972   7.498 -0.3309  0.0498 -1.8369
  191POPC  H12Y22105   4.884   4.142   7.468 -0.8544 -0.4778  2.8899
  191POPC  C31322106   5.048   4.012   7.517  1.0929 -0.2130  0.1655
  191POPC  H13X22107   5.129   4.069   7.468  0.0403  1.7118  0.6185
  191POPC  H13Y22108   5.070   3.904   7.501 -0.1728 -0.5908  0.8407
  191POPC  C31422109   5.051   4.032   7.668  0.5530 -0.6149  0.1771
  191POPC  H14X22110   5.142   3.984   7.712  1.2415  0.5454  0.0478
  191POPC  H14Y22111   4.958   3.988   7.709  0.0978  1.4124  1.3909
  191POPC  C31522112   5.060   4.183   7.709  0.6492 -0.5541 -0.4825
  191POPC  H15X22113   4.994   4.245   7.644  0.5561 -0.2823 -0.1300
  191POPC  H15Y22114   5.161   4.219   7.680 -0.6321  0.2235 -4.3920
  191POPC  C31622115   5.021   4.229   7.844 -0.0191 -0.0683  0.2336
  191POPC  H16X22116   4.927   4.184   7.881  0.6196 -0.8362  0.9152
  191POPC  H16Y22117   5.011   4.340   7.846  0.6443  0.0028 -0.1645
  191POPC  H16Z22118   5.105   4.211   7.914  2.3659 -1.4945 -2.8315
  192POPC     N22119   2.875   6.319   5.443 -0.1741  0.2601  0.3311
  192POPC   C1222120   2.845   6.247   5.575 -0.4987  0.0660 -0.0528
  192POPC  H12A22121   2.753   6.190   5.567 -0.8203  0.7079 -0.9428
  192POPC  H12B22122   2.830   6.323   5.650  0.6333  0.1473  0.0977
  192POPC   C1322123   2.901   6.220   5.336  0.3109 -0.2322 -0.5887
  192POPC  H13A22124   2.826   6.144   5.321  0.2533  0.1526 -2.4193
  192POPC  H13B22125   2.913   6.264   5.238  0.9687 -1.2935 -0.9949
  192POPC  H13C22126   2.995   6.172   5.361  1.2013  2.3617  1.2449
  192POPC   C1422127   2.766   6.411   5.398 -0.1129 -0.2468 -0.4471
  192POPC  H14A22128   2.762   6.487   5.475  0.5545 -1.3944  0.7296
  192POPC  H14B22129   2.792   6.455   5.303 -0.1921 -2.6924 -1.6387
  192POPC  H14C22130   2.671   6.360   5.401  0.6987 -1.7092  1.3885
  192POPC   C1522131   2.998   6.395   5.459 -0.6783  0.1134 -0.5818
  192POPC  H15A22132   3.041   6.438   5.369  0.0290  2.0336  0.6507
  192POPC  H15B22133   3.067   6.334   5.516 -0.7245 -0.5841 -1.2617
  192POPC  H15C22134   2.979   6.476   5.527 -0.5136  0.0563 -0.4665
  192POPC   C1122135   2.956   6.165   5.638  0.0667  0.9155 -0.6914
  192POPC  H11A22136   2.996   6.087   5.570  2.4518 -1.4419  3.2427
  192POPC  H11B22137   2.918   6.101   5.720 -2.1770  2.7719 -0.2114
  192POPC     P22138   3.041   6.330   5.817 -0.3285 -0.0380  0.7378
  192POPC   O1322139   2.921   6.409   5.815 -0.0685 -0.6884  0.3613
  192POPC   O1422140   3.166   6.408   5.840 -0.0105  0.2429  0.6951
  192POPC   O1222141   3.065   6.244   5.684 -0.0928  0.3788  0.6967
  192POPC   O1122142   3.017   6.221   5.927 -0.3367  0.3366 -0.1846
  192POPC    C122143   3.116   6.114   5.950 -0.0741 -0.1841 -0.2411
  192POPC    HA22144   3.186   6.143   6.030  0.3012  4.0997 -2.0243
  192POPC    HB22145   3.176   6.098   5.858 -0.9961  3.7309 -1.6400
  192POPC    C222146   3.045   5.976   5.986  0.2654  0.3700 -0.5822
  192POPC    HS22147   2.955   5.970   5.921 -2.8238 -1.8510  3.6391
  192POPC   O2122148   3.023   5.975   6.129 -0.1369  0.1073 -0.1493
  192POPC   C2122149   2.941   5.880   6.167  0.1528 -0.3146  0.3269
  192POPC   O2222150   2.883   5.792   6.102  0.0474  0.4464  0.5197
  192POPC   C2222151   2.928   5.883   6.316  0.5202 -0.3642 -0.0721
  192POPC   H2R22152   3.014   5.834   6.367  0.3201 -0.0229  0.5967
  192POPC   H2S22153   2.844   5.819   6.351  1.7500 -1.7325  0.4311
  192POPC    C322154   3.152   5.868   5.960 -0.9851  0.2171 -0.1130
  192POPC    HX22155   3.188   5.879   5.856 -0.0368 -0.6850  0.1122
  192POPC    HY22156   3.100   5.770   5.966 -0.4838 -0.1399 -1.3615
  192POPC   O3122157   3.268   5.880   6.041  0.0046  0.0919 -0.2219
  192POPC   C3122158   3.277   5.801   6.148  0.8293  0.5839  0.0622
  192POPC   O3222159   3.199   5.712   6.177 -0.4226 -0.0547  0.4720
  192POPC   C3222160   3.412   5.822   6.226  0.6077  0.5539 -0.2106
  192POPC   H2X22161   3.435   5.931   6.228  1.6529  0.3373 -0.1876
  192POPC   H2Y22162   3.490   5.775   6.163  2.3149  0.3180  2.0189
  192POPC   C2322163   2.905   6.024   6.381 -0.0831  0.1638  0.7205
  192POPC   H3R22164   2.812   6.077   6.349 -1.2440 -1.8367  0.6862
  192POPC   H3S22165   2.992   6.089   6.361 -0.8503  1.5311  1.7859
  192POPC   C2422166   2.893   6.026   6.531  0.2148  0.0877 -0.1402
  192POPC   H4R22167   2.879   6.125   6.579  0.3060 -0.0955  0.2626
  192POPC   H4S22168   2.993   6.001   6.570  0.3950  1.4488  0.3102
  192POPC   C2522169   2.783   5.945   6.590 -0.1190 -0.1326 -0.1544
  192POPC   H5R22170   2.786   5.838   6.561 -0.1952 -0.2926  0.4122
  192POPC   H5S22171   2.681   5.974   6.558  0.0559 -0.0251 -0.6154
  192POPC   C2622172   2.779   5.935   6.748  0.1158 -0.3478  0.1328
  192POPC   H6R22173   2.712   5.851   6.778 -1.5169  0.5111 -1.0524
  192POPC   H6S22174   2.749   6.036   6.782  0.2520 -0.2507 -0.0307
  192POPC   C2722175   2.916   5.888   6.802  0.1511 -0.1634 -0.1917
  192POPC   H7R22176   2.988   5.970   6.782  0.4453  0.3924  2.8955
  192POPC   H7S22177   2.949   5.795   6.750 -0.7304 -0.5215 -0.1224
  192POPC   C2822178   2.900   5.858   6.954 -1.0048  0.2079  0.1876
  192POPC   H8R22179   2.990   5.803   6.988 -0.0182  1.4787 -0.3310
  192POPC   H8S22180   2.812   5.794   6.975 -0.5432  0.0452  1.6813
  192POPC   C2922181   2.864   5.990   7.023  0.6398 -0.1615 -0.5729
  192POPC   H9122182   2.867   6.081   6.961  0.5619  1.2662  1.4695
  192POPC  C21022183   2.819   6.004   7.151 -0.0073  0.6456 -0.4466
  192POPC  H10122184   2.748   6.084   7.176 -1.6703 -0.1987 -2.3402
  192POPC  C21122185   2.810   5.886   7.247 -0.5991  0.7048 -0.2957
  192POPC  H11R22186   2.854   5.919   7.343  0.9728  1.9416 -1.4247
  192POPC  H11S22187   2.883   5.815   7.204  0.4885  1.1881  0.7350
  192POPC  C21222188   2.666   5.826   7.265 -0.3649  0.0648 -0.0329
  192POPC  H12R22189   2.668   5.716   7.279  1.7991  0.1731  0.5278
  192POPC  H12S22190   2.615   5.841   7.167 -1.5810 -2.7503  0.1217
  192POPC  C21322191   2.592   5.893   7.383 -0.9636 -0.8428 -0.6592
  192POPC  H13R22192   2.583   6.003   7.370  1.7648 -0.6230 -0.9448
  192POPC  H13S22193   2.669   5.869   7.460 -1.6260  3.7247  1.5977
  192POPC  C21422194   2.470   5.814   7.430 -0.3033 -0.9220  0.6560
  192POPC  H14R22195   2.490   5.705   7.422  0.2764 -0.8470  1.0284
  192POPC  H14S22196   2.380   5.842   7.372 -1.4296 -1.1658  2.2332
  192POPC  C21522197   2.416   5.829   7.578 -0.7827 -0.1795 -0.4309
  192POPC  H15R22198   2.387   5.934   7.601  2.1599  1.5874 -4.2809
  192POPC  H15S22199   2.503   5.824   7.647 -0.8376  0.7829 -0.2798
  192POPC  C21622200   2.307   5.740   7.620  0.6900  0.2699 -0.2456
  192POPC  H16R22201   2.354   5.693   7.709  1.3635  2.7399  0.7432
  192POPC  H16S22202   2.276   5.664   7.545 -0.2590  0.8633 -0.4739
  192POPC  C21722203   2.170   5.822   7.663 -0.4099  0.0426 -0.1066
  192POPC  H17R22204   2.194   5.859   7.765 -0.5394  1.5589 -0.6162
  192POPC  H17S22205   2.087   5.752   7.685  0.1310  0.1669  2.5034
  192POPC  C21822206   2.119   5.934   7.579 -0.2940 -0.5085 -0.3020
  192POPC  H18R22207   2.076   5.906   7.480  1.1824  0.8549 -1.3700
  192POPC  H18S22208   2.186   6.021   7.563 -1.1292  0.0706 -0.6943
  192POPC  H18T22209   2.033   5.985   7.628 -0.2493 -1.3538  0.6536
  192POPC   C3322210   3.393   5.772   6.363 -0.7875 -0.2365  0.0074
  192POPC   H3X22211   3.497   5.745   6.393 -0.1602  1.9528 -0.1412
  192POPC   H3Y22212   3.340   5.675   6.367  0.1876 -0.8824 -2.1413
  192POPC   C3422213   3.328   5.872   6.458 -0.0422  0.1295 -0.2353
  192POPC   H4X22214   3.218   5.858   6.466 -0.1478  1.1887  0.3652
  192POPC   H4Y22215   3.358   5.976   6.429 -1.4917  0.4572 -0.6183
  192POPC   C3522216   3.379   5.872   6.598  0.2257  0.5302 -0.8188
  192POPC   H5X22217   3.477   5.924   6.603  0.9036 -0.9353  5.7459
  192POPC   H5Y22218   3.402   5.768   6.631  3.0846  0.2759 -3.4118
  192POPC   C3622219   3.293   5.930   6.711  0.2480  0.2377  0.3858
  192POPC   H6X22220   3.188   5.894   6.718  0.7646 -0.9861  2.2538
  192POPC   H6Y22221   3.280   6.039   6.695  4.1925  0.4711 -1.8550
  192POPC   C3722222   3.359   5.919   6.853  0.0658  0.7730  0.0253
  192POPC   H7X22223   3.453   5.977   6.849  0.3481  0.1966 -2.5650
  192POPC   H7Y22224   3.395   5.814   6.862  1.7667  1.4455  1.2938
  192POPC   C3822225   3.262   5.958   6.962  0.2627 -0.0774 -0.2831
  192POPC   H8X22226   3.168   5.902   6.947  0.1544 -0.6854  2.4894
  192POPC   H8Y22227   3.233   6.065   6.955 -0.8111 -0.3310  0.1228
  192POPC   C3922228   3.300   5.921   7.102  0.8263 -0.5531  0.0768
  192POPC   H9X22229   3.403   5.955   7.127 -0.3108  2.9070  0.3370
  192POPC   H9Y22230   3.297   5.810   7.101 -0.9404 -0.5308  0.5404
  192POPC  C31022231   3.203   5.967   7.216  0.0924  0.0275 -0.0819
  192POPC  H10X22232   3.108   5.913   7.194 -1.0337  1.7705  0.4149
  192POPC  H10Y22233   3.182   6.076   7.205 -0.9823 -0.0546  1.0997
  192POPC  C31122234   3.252   5.932   7.355  0.1198 -0.5844 -0.3707
  192POPC  H11X22235   3.205   6.001   7.428 -0.4078 -0.2008 -1.0688
  192POPC  H11Y22236   3.361   5.951   7.347 -0.0758 -0.4924 -3.0925
  192POPC  C31222237   3.229   5.779   7.383  0.5403 -0.6406 -0.7692
  192POPC  H12X22238   3.291   5.720   7.312  0.6250  0.4976 -1.6624
  192POPC  H12Y22239   3.120   5.765   7.371 -0.1066  1.6399  1.8093
  192POPC  C31322240   3.287   5.737   7.514 -0.1445 -0.7460  0.1987
  192POPC  H13X22241   3.244   5.804   7.592 -0.6824  1.3471 -1.8210
  192POPC  H13Y22242   3.396   5.755   7.519 -0.6431  2.0035  2.3294
  192POPC  C31422243   3.254   5.592   7.541 -0.4571  0.0984 -0.1618
  192POPC  H14X22244   3.278   5.533   7.451 -3.7315 -1.7632  0.1125
  192POPC  H14Y22245   3.145   5.582   7.562 -0.1883 -0.5854  0.9894
  192POPC  C31522246   3.327   5.544   7.661  0.3386  0.0626 -0.1386
  192POPC  H15X22247   3.291   5.584   7.758 -1.0815  1.5517 -1.2469
  192POPC  H15Y22248   3.436   5.566   7.656  0.4484 -0.8830 -2.3449
  192POPC  C31622249   3.329   5.390   7.678 -0.3812 -0.7863 -0.2508
  192POPC  H16X22250   3.359   5.354   7.779 -2.3135 -0.9356  0.2800
  192POPC  H16Y22251   3.402   5.350   7.604  0.7966  1.0796 -0.1288
  192POPC  H16Z22252   3.231   5.347   7.650 -0.1089 -0.8466 -1.1260
  193SOD    SOD22253   4.456   5.176   4.333 -0.5609  0.7758  0.3909
  194SOD    SOD22254   3.719   7.106   1.884  0.2494 -0.4691  0.5916
  195SOD    SOD22255   6.930   1.046  11.921  0.5744  0.2258  0.3405
  196SOD    SOD22256   5.012   7.125  11.039 -0.4134  0.5215  0.2657
  197SOD    SOD22257   1.071   6.243   2.315  0.3923 -0.2393  0.1474
  198SOD    SOD22258   1.816   4.719   0.154 -0.1719 -0.4767  0.4245
  199SOD    SOD22259   0.030   0.086   1.185  0.0110  0.0270 -0.5718
  200SOD    SOD22260   3.497   1.570   5.377  0.0274  0.1380  0.3814
  201SOD    SOD22261   0.699   0.660   0.519 -0.2423 -0.0767 -0.6043
  202SOD    SOD22262   7.147   2.158  13.526 -0.4606 -0.0865  0.3965
  203SOD    SOD22263   6.402   0.674   4.466  0.1018  0.3140  0.2092
  204SOD    SOD22264   5.822   3.737   0.972 -0.0814  0.2642  0.0777
  205SOD    SOD22265   4.479   5.713  13.931 -0.2827  0.0972  0.4871
  206SOD    SOD22266   3.863   4.411  13.669 -0.3543  0.3318 -0.0713
  207SOD    SOD22267   0.777   3.861   3.357  0.1183 -0.3725  0.0882
  208SOD    SOD22268   4.820   5.404  11.121  0.4706  0.0113 -0.0025
  209SOD    SOD22269   3.350   4.741   1.568 -0.7114  0.1603 -0.3155
  210SOD    SOD22270   3.608   5.340  12.240  0.3236  0.2574  0.0585
  211SOD    SOD22271   6.674   3.077  10.421  0.5657 -0.1430 -0.3047
  212SOD    SOD22272   6.967   1.612   3.893 -0.2994 -0.0188 -0.6527
  213SOD    SOD22273   6.496   3.105   4.167  0.0761 -0.2165 -0.4066
  214SOD    SOD22274   5.162   4.378  10.310 -0.0347  0.6168 -0.0027
  215SOD    SOD22275   6.392   0.434  14.672 -0.0131 -0.4130  0.0324
  216SOD    SOD22276   6.948   6.330  14.897  0.0680 -0.1811 -0.0176
  217SOD    SOD22277   3.357   5.776  11.316  0.1678 -0.0605 -0.3734
  218SOD    SOD22278   1.135   2.917  12.374  0.0098 -0.1732  0.0271
  219SOD    SOD22279   2.621   4.251  13.491  0.4088  0.2345 -0.2623
  220SOD    SOD22280   6.343   2.911   5.517 -0.0024  0.0500 -0.3823
  221SOD    SOD22281   2.123   5.909   4.780  0.1503  0.4827 -0.1784
  222SOD    SOD22282   1.917   2.137  12.392  0.0097 -0.5546 -0.1809
  223SOD    SOD22283   6.572   1.742  10.181 -0.0873  0.2079  0.0447
  224SOD    SOD22284   0.644   7.151  14.175  0.1179 -0.3496  0.1842
  225SOD    SOD22285   5.017   2.903  12.487  0.0766  0.4928 -0.3133
  226SOD    SOD22286   2.772   2.510  15.231 -0.4230 -0.1913 -0.2753
  227SOD    SOD22287   6.869   6.653  10.064 -0.1013 -0.1038 -0.1793
  228SOD    SOD22288   5.067   0.056   0.050  0.0585  0.7218 -0.1917
  229SOD    SOD22289   1.696   0.518   1.875  0.0698  0.1974  0.3366
  230SOD    SOD22290   1.744   1.198  14.984 -0.1362  0.4733  0.8737
  231SOD    SOD22291   6.510   1.326   5.256 -0.3500  0.0219 -0.6045
  232SOD    SOD22292   1.611   2.303  12.941  0.1889 -0.2046  0.3204
  233SOD    SOD22293   4.713   4.898  13.670  0.3239  0.2117 -0.1006
  234SOD    SOD22294   6.408   6.057   4.651  0.4459  0.2539 -0.0076
  235SOD    SOD22295   0.163   5.113   5.844  0.0533  0.1642  0.2092
  236SOD    SOD22296   2.857   7.022   4.257 -0.4964  0.3702  0.0129
  237SOD    SOD22297   6.412   2.962   1.757  0.5765 -0.0067 -0.2744
  238SOD    SOD22298   3.459   6.598  10.173  0.2713 -0.2759  0.4459
  239SOD    SOD22299   5.002   5.064   2.166  0.0945 -0.3634 -0.0088
  240SOD    SOD22300   4.507   2.924   0.419  0.7859 -0.7109  0.3432
  241SOD    SOD22301   0.072   3.080   5.604 -0.0100 -0.6704  0.3207
  242SOD    SOD22302   0.111   4.153  13.250 -0.3541 -0.3909  0.1884
  243SOD    SOD22303   4.386   2.357  15.221  0.0927 -0.3475 -0.3194
  244SOD    SOD22304   3.567   0.667  14.269  0.3281  0.6596 -0.4236
  245SOD    SOD22305   1.264   3.042   5.453 -0.3553 -0.1487  0.0642
  246SOD    SOD22306   1.647   3.284  11.517  0.0683  0.5112  0.4994
  247SOD    SOD22307   5.131   2.139  12.755  0.1090 -0.2052  0.3529
  248SOD    SOD22308   6.455   4.497   0.283  0.1250  0.4140 -0.0991
  249SOD    SOD22309   1.222   4.330   0.565  0.7036 -0.1410 -0.3726
  250SOD    SOD22310   4.535   6.689   1.390 -0.3779  0.4198  0.4357
  251SOD    SOD22311   6.623   4.666  13.650 -0.4381  0.4662  0.4971
  252SOD    SOD22312   6.235   3.160  15.166 -0.0714 -0.0419  0.0230
  253SOD    SOD22313   5.397   6.201  14.558  0.1988 -0.2699  0.2422
  254SOD    SOD22314   2.658   3.966   9.824  0.0344  0.0744  0.3110
  255SOD    SOD22315   3.999   3.075  15.004  0.5242 -0.0391  0.2141
  256SOD    SOD22316   0.477   3.770   4.347 -0.1291  0.1662 -0.0182
  257SOD    SOD22317   2.037   1.791   4.053 -0.3530  0.0116  0.2271
  258SOD    SOD22318   1.627   3.274  12.785  0.2469  0.1410 -0.3742
  259SOD    SOD22319   3.100   3.525  10.812  0.1399  0.4807  0.4293
  260SOD    SOD22320   6.357   4.321  15.010 -0.0994  0.0296 -0.4875
  261SOD    SOD22321   0.146   1.137   9.947  0.2042  0.1369 -0.3792
  262SOD    SOD22322   3.268   0.099   3.258 -0.2551  0.4978 -0.0093
  263SOD    SOD22323   4.828   3.119   1.190  0.0146 -0.3361  0.1213
  264SOD    SOD22324   1.768   6.462   1.162  0.2093 -0.1200  0.1795
  265SOD    SOD22325   6.126   3.934   9.729 -0.2521 -0.0119  0.3703
  266SOD    SOD22326   4.784   2.443  11.812  0.0354  0.0618 -0.1535
  267SOD    SOD22327   3.272   3.170   4.085  0.1245  0.0010  0.3266
  268SOD    SOD22328   1.803   1.891  10.120  0.0857 -0.0583  0.1107
  269SOD    SOD22329   5.178   1.564   3.238 -0.3700  0.2083  0.0513
  270CLA    CLA22330   1.675   6.150   2.351  0.0379  0.3658 -0.2485
  271CLA    CLA22331   4.716   6.175  14.777 -0.4254  0.0596  0.4590
  272CLA    CLA22332   0.434   0.681  13.814  0.1348  0.2287  0.1191
  273CLA    CLA22333   4.262   1.368  15.548 -0.3522 -0.2733 -0.1084
  274CLA    CLA22334   2.414   0.444   2.255 -0.0977 -0.2853 -0.5304
  275CLA    CLA22335   5.092   4.168   2.900 -0.0832  0.1780  0.0232
  276CLA    CLA22336   1.656   0.147   5.320 -0.2816  0.1446  0.2560
  277CLA    CLA22337   0.141   4.669   1.653 -0.6144  0.1633 -0.3009
  278CLA    CLA22338   5.114   3.516  15.437  0.1191 -0.2583  0.2498
  279CLA    CLA22339   0.070   5.710   0.813  0.0866 -0.1734  0.3050
  280CLA    CLA22340   6.618   0.815  12.289 -0.1567  0.6677  0.2585
  281CLA    CLA22341   1.028   6.674  14.155 -0.3283 -0.3761 -0.0451
  282CLA    CLA22342   4.732   6.479  12.695 -0.2326 -0.0126 -0.0344
  283CLA    CLA22343   7.086   1.290  11.563  0.7907 -0.2398 -0.0897
  284CLA    CLA22344   2.489   6.976  11.684  0.3029 -0.0317  0.3081
  285CLA    CLA22345   2.036   2.990  12.699 -0.3451  0.5325 -0.0012
  286CLA    CLA22346   6.721   3.213   3.177 -0.0692  0.0947  0.1931
  287CLA    CLA22347   0.011   6.500  14.498  0.2487  0.3284 -0.1557
  288CLA    CLA22348   7.152   3.600  14.388 -0.1104  0.2788  0.0446
  289CLA    CLA22349   5.124   3.635   4.410  0.2655  0.2583  0.3106
  290CLA    CLA22350   5.377   5.876   1.286 -0.0895  0.1834  0.2820
  291CLA    CLA22351   7.048   6.862   5.245 -0.2616 -0.0861 -0.3093
  292CLA    CLA22352   1.587   2.211   1.914  0.4688  0.0130 -0.3384
  293CLA    CLA22353   6.958   1.621  13.346  0.2674  0.2011 -0.3420
  294CLA    CLA22354   3.900   0.020   0.053  0.0774  0.1470 -0.1733
  295CLA    CLA22355   2.678   6.491   2.410  0.0029 -0.2382 -0.0792
  296CLA    CLA22356   5.133   0.356   2.006 -0.3116 -0.1652 -0.0312
  297CLA    CLA22357   6.212   5.994  12.030 -0.1259 -0.0438 -0.6475
  298CLA    CLA22358   4.878   2.214  12.221 -0.6142 -0.0253  0.1380
  299CLA    CLA22359   4.677   4.071   1.118 -0.0048 -0.0877  0.1569
  300CLA    CLA22360   3.118   2.085  11.460 -0.1553  0.5981 -0.1784
  301CLA    CLA22361   1.497   2.397  12.718  0.2340  0.3074  0.2697
  302CLA    CLA22362   5.254   3.086   1.189 -0.1567 -0.3600 -0.3313
  303CLA    CLA22363   2.412   4.491   0.948 -0.1377 -0.4892 -0.2254
  304CLA    CLA22364   2.551   2.362   5.382  0.1789 -0.2027  0.6124
  305CLA    CLA22365   0.295   2.053   1.580 -0.1769 -0.1253  0.2635
  306CLA    CLA22366   5.523   2.013   4.287  0.4471  0.3386  0.0592
  307CLA    CLA22367   4.997   0.248  15.139 -0.1089 -0.3469 -0.1479
  308CLA    CLA22368   6.877   4.650  15.523 -0.0692  0.0892  0.4024
  309CLA    CLA22369   5.933   1.770  13.096  0.1723  0.4571  0.2515
  310CLA    CLA22370   1.083   4.130  12.323  0.1972 -0.1035  0.4778
  311CLA    CLA22371   6.736   6.628   0.970 -0.3877 -0.1701  0.1271
  312CLA    CLA22372   4.924   1.066  14.307 -0.4110 -0.2499 -0.6479
  313CLA    CLA22373   4.393   3.320  13.711  0.5527  0.3474 -0.1004
  314CLA    CLA22374   1.718   0.173   4.276 -0.3984  0.3163 -0.0324
  315CLA    CLA22375   4.052   6.115   3.528  0.4306 -0.3035 -0.0331
  316CLA    CLA22376   4.720   1.285  11.126 -0.1780  0.1462  0.4330
  317CLA    CLA22377   3.827   1.112  13.795 -0.2382 -0.0174 -0.1333
  318CLA    CLA22378   5.882   6.648  15.352 -0.1218  0.8840  0.5317
  319CLA    CLA22379   3.820   1.336  11.880 -0.3612  0.2611 -0.1125
  320CLA    CLA22380   5.844   3.663   0.525 -0.2364 -0.0232 -0.1259
  321CLA    CLA22381   3.244   3.614   0.167 -0.4775 -0.2990 -0.1538
  322CLA    CLA22382   2.382   0.860  12.156 -0.0544 -0.0403 -0.0885
  323TIP3   OH222383   5.293   2.041  11.992  0.3338 -0.0100 -0.1856
  323TIP3    H122384   5.325   2.060  11.904  0.8020 -1.3131 -0.3051
  323TIP3    H222385   5.371   2.010  12.039  0.5177  2.4383  1.2390
  324TIP3   OH222386   3.661   5.334  10.819 -0.6814 -0.1664  0.0824
  324TIP3    H122387   3.674   5.248  10.780 -0.6367 -0.0499 -0.1604
  324TIP3    H222388   3.696   5.325  10.908 -2.0360 -0.8215  0.5565
  325TIP3   OH222389   5.445   5.451  11.291  0.1629 -0.0693  0.3494
  325TIP3    H122390   5.537   5.439  11.313 -0.0910  1.1389  2.1390
  325TIP3    H222391   5.399   5.385  11.343 -0.2173  1.1682  1.6195
  326TIP3   OH222392   2.058   6.970  11.005 -0.3770  0.0282 -0.3455
  326TIP3    H122393   2.152   6.950  11.010 -0.3341  0.2776 -0.1229
  326TIP3    H222394   2.031   6.936  10.920 -0.1452 -0.2981 -0.2909
  327TIP3   OH222395   5.881   3.562  10.099  0.1792 -0.0440 -0.3639
  327TIP3    H122396   5.869   3.485  10.044  2.3396 -0.0805 -0.8077
  327TIP3    H222397   5.828   3.544  10.177 -1.5233 -0.7463 -1.6425
  328TIP3   OH222398   5.592   2.524   9.823  0.1563 -0.1150 -0.1341
  328TIP3    H122399   5.678   2.483   9.831  0.7607  1.0524 -0.5119
  328TIP3    H222400   5.610   2.614   9.794 -1.1938  0.0892 -0.4140
  329TIP3   OH222401   6.292   2.442  10.193  0.5398  0.4626 -0.5014
  329TIP3    H122402   6.279   2.533  10.221  1.9803  0.7165 -0.6434
  329TIP3    H222403   6.382   2.439  10.162  1.3631 -1.6438  1.9387
  330TIP3   OH222404   6.201   3.543   9.892 -0.1642 -0.2025 -0.1298
  330TIP3    H122405   6.285   3.515   9.856 -0.1346 -0.8092  0.3957
  330TIP3    H222406   6.136   3.509   9.831 -0.0217  0.3848 -0.6109
  331TIP3   OH222407   5.355   5.538  13.750  0.1291  0.2009  0.1346
  331TIP3    H122408   5.268   5.544  13.711 -0.4467  1.5517  1.5890
  331TIP3    H222409   5.370   5.444  13.760 -1.3386 -0.0346  0.2596
  332TIP3   OH222410   2.732   1.643  10.048  0.6881 -0.0658  0.0116
  332TIP3    H122411   2.753   1.707  10.116 -0.0542 -1.2000  1.3273
  332TIP3    H222412   2.817   1.612  10.018  1.0169 -0.2681  1.1166
  333TIP3   OH222413   2.042   5.335  11.542  0.1035  1.0051  0.5066
  333TIP3    H122414   2.016   5.246  11.517  0.3018  0.8638  0.7964
  333TIP3    H222415   2.120   5.352  11.490  0.2738  0.8722  0.7182
  334TIP3   OH222416   4.239   4.180   9.959  0.0555  0.2225  0.1637
  334TIP3    H122417   4.183   4.103   9.962 -1.7117  1.4387 -0.9623
  334TIP3    H222418   4.181   4.253   9.981  0.7593  1.7040 -2.5909
  335TIP3   OH222419   5.390   6.680  10.586 -0.1238  0.0792  0.0478
  335TIP3    H122420   5.353   6.595  10.609 -2.4062  1.3287  1.1788
  335TIP3    H222421   5.340   6.709  10.510 -0.3620  1.0398  0.5538
  336TIP3   OH222422   4.524   4.168  11.077  0.5201 -0.3669 -0.7473
  336TIP3    H122423   4.565   4.159  11.163 -0.6244 -3.3173 -0.4611
  336TIP3    H222424   4.581   4.117  11.019  1.6209  2.0934 -1.9108
  337TIP3   OH222425   7.048   4.444  12.365 -0.4115  1.2106  0.2558
  337TIP3    H122426   7.081   4.385  12.297 -1.7869  0.6305  0.0674
  337TIP3    H222427   7.126   4.470  12.414  0.5019  1.0657 -1.0987
  338TIP3   OH222428   0.281   6.650  13.390  0.7449 -0.1120 -0.8886
  338TIP3    H122429   0.206   6.691  13.346 -1.1143 -0.6262  1.6585
  338TIP3    H222430   0.357   6.688  13.348 -0.9412  0.1788 -3.8103
  339TIP3   OH222431   3.657   6.993  10.839  0.1121 -0.1797  0.0478
  339TIP3    H122432   3.635   6.968  10.929  0.1904  1.3511  0.5040
  339TIP3    H222433   3.574   6.986  10.792  0.2989 -2.0887 -0.0368
  340TIP3   OH222434   0.147   1.538  12.341  0.3064  0.2276 -0.7769
  340TIP3    H122435   0.212   1.535  12.271 -0.4720  0.3642 -1.5007
  340TIP3    H222436   0.075   1.590  12.306 -0.8869 -1.2417 -0.5629
  341TIP3   OH222437   0.495   3.580   9.830  0.4177  0.6447  0.5454
  341TIP3    H122438   0.461   3.492   9.846 -0.4920  0.8894 -0.0282
  341TIP3    H222439   0.587   3.566   9.810 -0.4095 -0.5115 -2.7634
  342TIP3   OH222440   0.996   3.039   9.581 -0.4327 -0.0725  0.3614
  342TIP3    H122441   0.933   3.049   9.510  0.8945 -0.2731 -0.8802
  342TIP3    H222442   1.074   3.086   9.550  0.2136 -0.3067  1.6166
  343TIP3   OH222443   5.289   6.644  14.715  0.3847  0.0689  0.8355
  343TIP3    H122444   5.335   6.696  14.781 -1.6544  1.8322  0.9382
  343TIP3    H222445   5.201   6.682  14.712 -0.8139 -2.6421  0.0355
  344TIP3   OH222446   5.047   2.289  10.098 -0.0373 -0.0628  0.2566
  344TIP3    H122447   5.049   2.240  10.180  1.5595 -0.3605  0.0724
  344TIP3    H222448   5.118   2.353  10.107  2.1413 -2.0242 -1.9967
  345TIP3   OH222449   3.448   4.350  10.023 -0.5484  0.1594 -0.0182
  345TIP3    H122450   3.454   4.423  10.084 -3.8000  1.1489 -0.8130
  345TIP3    H222451   3.535   4.347   9.981  0.9616  0.8955  2.9563
  346TIP3   OH222452   3.662   0.583   9.893 -0.0301  0.3280  0.3008
  346TIP3    H122453   3.612   0.504   9.915  1.1110 -0.2281  0.9383
  346TIP3    H222454   3.639   0.602   9.802 -0.2511 -0.7827  0.1164
  347TIP3   OH222455   7.078   1.052  11.332  0.2155  0.4682  0.7496
  347TIP3    H122456   7.102   1.136  11.370 -1.5334  0.7533  1.2554
  347TIP3    H222457   7.103   0.987  11.398  2.5485  0.4671 -0.0813
  348TIP3   OH222458   3.571   1.769  10.927  0.0791 -0.4138  0.0303
  348TIP3    H122459   3.476   1.784  10.929  0.2281  0.5437  0.1130
  348TIP3    H222460   3.606   1.833  10.989  0.7376 -1.0944  0.3553
  349TIP3   OH222461   4.910   1.030  13.640 -0.2608  0.0953  0.5976
  349TIP3    H122462   4.870   1.108  13.679 -1.0699 -1.5556  3.2132
  349TIP3    H222463   4.960   0.990  13.711  0.0692 -1.8093 -0.6547
  350TIP3   OH222464   1.131   6.604  10.606 -0.1249 -0.2532  0.4065
  350TIP3    H122465   1.121   6.512  10.631 -0.1322 -0.5378 -0.6119
  350TIP3    H222466   1.205   6.635  10.658 -0.5377 -0.6531  1.2378
  351TIP3   OH222467   5.292   1.811  11.347  0.5750 -0.4031 -0.6309
  351TIP3    H122468   5.273   1.740  11.409 -0.9468  1.3654  1.0380
  351TIP3    H222469   5.228   1.799  11.277 -0.7195  0.1478  0.4103
  352TIP3   OH222470   2.659   4.117  11.145  0.4127  0.6533  0.1186
  352TIP3    H122471   2.711   4.122  11.225  0.7585  1.0636 -0.1354
  352TIP3    H222472   2.667   4.203  11.105 -1.8192  1.2930  0.9327
  353TIP3   OH222473   1.659   5.694  11.614  0.4404 -0.0543 -0.3325
  353TIP3    H122474   1.706   5.635  11.674  1.4202 -0.2202 -1.2345
  353TIP3    H222475   1.728   5.727  11.556 -0.3456  0.8654 -0.7381
  354TIP3   OH222476   1.177   2.565   9.832 -0.0892 -0.3986  0.5363
  354TIP3    H122477   1.236   2.514   9.888 -0.9119 -3.2946 -1.0891
  354TIP3    H222478   1.129   2.498   9.782 -2.5963  1.9683 -0.3227
  355TIP3   OH222479   2.847   3.515  12.865  0.0580 -0.0909  0.4828
  355TIP3    H122480   2.805   3.431  12.848 -1.3253  0.5875  0.4855
  355TIP3    H222481   2.919   3.494  12.924  0.3526 -1.4153 -0.3062
  356TIP3   OH222482   6.847   3.451  13.187 -0.5779  0.2587  0.0139
  356TIP3    H122483   6.933   3.411  13.173 -0.6215  0.2663 -0.2905
  356TIP3    H222484   6.858   3.505  13.265  0.2299  1.7356 -1.0782
  357TIP3   OH222485   6.648   5.444  11.161 -0.0403 -0.2932  0.2538
  357TIP3    H122486   6.695   5.525  11.181  0.0606 -0.3978  0.4331
  357TIP3    H222487   6.670   5.426  11.069  0.3259 -0.3819  0.3585
  358TIP3   OH222488   3.915   5.872  11.955  0.1381 -0.2541 -0.6036
  358TIP3    H122489   3.954   5.786  11.938  0.2304 -0.2194 -0.5608
  358TIP3    H222490   3.899   5.908  11.868 -0.6284 -0.6467 -0.6337
  359TIP3   OH222491   2.293   1.739  12.779  0.1120 -0.4841  0.0972
  359TIP3    H122492   2.348   1.785  12.842 -0.5765 -0.1003  0.4219
  359TIP3    H222493   2.238   1.681  12.833 -0.5515 -0.0768 -0.1318
  360TIP3   OH222494   5.573   4.713   9.872 -0.1648  0.5161 -0.2478
  360TIP3    H122495   5.668   4.721   9.874 -0.1664  0.8779 -1.6015
  360TIP3    H222496   5.552   4.659   9.949  1.1650  0.0119 -0.2319
  361TIP3   OH222497   0.802   7.040  14.065  0.2080 -0.3678 -0.6810
  361TIP3    H122498   0.853   7.058  13.986 -0.0109 -0.1586 -0.7761
  361TIP3    H222499   0.865   7.044  14.137  0.1995  0.6040 -0.7210
  362TIP3   OH222500   4.121   6.973  11.058  0.1188 -0.2538 -0.5696
  362TIP3    H122501   4.162   6.887  11.048 -1.1167 -0.6886 -2.2226
  362TIP3    H222502   4.072   6.967  11.140  0.8127 -0.8098 -0.1914
  363TIP3   OH222503   6.199   6.488   9.775 -0.2028 -0.2405 -0.0235
  363TIP3    H122504   6.207   6.563   9.715  2.1693 -1.3851 -1.2277
  363TIP3    H222505   6.165   6.526   9.856 -4.6711  1.1616 -2.3966
  364TIP3   OH222506   1.098   0.389  10.076  0.2164 -0.1656 -0.3102
  364TIP3    H122507   1.113   0.294  10.068  0.2769  0.0122 -2.6562
  364TIP3    H222508   1.172   0.428  10.030 -0.4298  0.9878 -0.3738
  365TIP3   OH222509   1.540   5.867  10.538 -0.0387 -0.1499  0.5408
  365TIP3    H122510   1.513   5.882  10.447 -3.0861 -1.1428  1.2322
  365TIP3    H222511   1.481   5.922  10.590  1.3563  0.0333  1.9728
  366TIP3   OH222512   6.993   1.100  10.933 -0.2431 -0.6134  0.2384
  366TIP3    H122513   6.944   1.151  10.868  1.0419 -1.4343 -1.4204
  366TIP3    H222514   6.933   1.092  11.007 -0.8621  2.4461  0.1687
  367TIP3   OH222515   5.313   6.731  11.014 -0.2692 -0.7947 -0.4113
  367TIP3    H122516   5.379   6.757  10.949 -0.2928 -0.7800 -0.4302
  367TIP3    H222517   5.245   6.687  10.962 -1.9896  2.2979 -0.9349
  368TIP3   OH222518   1.948   5.664  10.970 -0.2688 -0.0816  0.0807
  368TIP3    H122519   1.962   5.597  10.904 -2.2862  1.4415 -1.9796
  368TIP3    H222520   2.000   5.739  10.939 -0.3011  0.2596  0.8347
  369TIP3   OH222521   4.992   1.141  11.068  0.3235 -0.4219 -0.2168
  369TIP3    H122522   4.923   1.199  11.101 -0.2375 -0.9335 -0.4680
  369TIP3    H222523   5.074   1.186  11.088 -0.0824  0.1209  0.2243
  370TIP3   OH222524   0.874   4.497   9.925 -0.3236  0.1060 -0.0013
  370TIP3    H122525   0.835   4.450   9.999  0.6012  0.2820  0.5996
  370TIP3    H222526   0.961   4.458   9.915  0.4090  1.6103  0.4240
  371TIP3   OH222527   3.904   0.340  11.299  0.2918  0.4529  0.1691
  371TIP3    H122528   3.854   0.263  11.273 -1.4835  1.6676 -0.1382
  371TIP3    H222529   3.876   0.408  11.238  3.0452  0.9423 -0.6212
  372TIP3   OH222530   4.863   1.847  11.665  0.0065 -0.2882  0.3323
  372TIP3    H122531   4.896   1.758  11.677 -0.0241 -0.1697  1.3342
  372TIP3    H222532   4.792   1.839  11.602 -0.9716 -1.1850  1.5408
  373TIP3   OH222533   1.422   1.123  11.170  0.2358 -0.1599 -0.5626
  373TIP3    H122534   1.443   1.078  11.252  1.5388 -1.2573 -1.4737
  373TIP3    H222535   1.407   1.053  11.107 -0.4949  0.6787 -1.3408
  374TIP3   OH222536   2.077   1.568   1.289 -0.1088  0.3478 -0.2708
  374TIP3    H122537   1.995   1.558   1.337  0.0533 -0.7196 -0.2073
  374TIP3    H222538   2.137   1.507   1.332  0.7829  1.2888 -0.1674
  375TIP3   OH222539   5.982   0.693   9.618 -0.0760 -0.1370 -0.4599
  375TIP3    H122540   6.020   0.769   9.574 -1.0931  0.3807 -0.4608
  375TIP3    H222541   6.038   0.620   9.592  1.9108  0.8586  0.8812
  376TIP3   OH222542   1.545   0.728   3.752 -0.5714  0.6147 -0.2309
  376TIP3    H122543   1.524   0.722   3.845  0.0094 -0.4579 -0.1496
  376TIP3    H222544   1.460   0.734   3.708 -0.8899  0.1184  0.3082
  377TIP3   OH222545   0.242   3.210   5.506 -0.6400  0.8230  0.3068
  377TIP3    H122546   0.279   3.238   5.590  0.3119  0.2627  0.0893
  377TIP3    H222547   0.317   3.175   5.458 -1.5236 -0.6669 -0.0256
  378TIP3   OH222548   6.720   3.839   4.991 -0.4664 -0.0811  0.1809
  378TIP3    H122549   6.783   3.882   4.934  0.6163  1.3791  2.3839
  378TIP3    H222550   6.773   3.784   5.049 -1.5675 -1.8697 -0.4741
  379TIP3   OH222551   2.753   3.241   6.190 -0.1694  0.9341 -0.0672
  379TIP3    H122552   2.792   3.278   6.110  1.5772 -0.5351  0.0552
  379TIP3    H222553   2.724   3.154   6.163  0.1398  0.5578  0.8077
  380TIP3   OH222554   4.639   2.159   3.142  0.1457 -0.2008 -0.1591
  380TIP3    H122555   4.666   2.144   3.051 -1.7631 -0.0038 -0.7820
  380TIP3    H222556   4.556   2.206   3.135 -1.0048 -1.8863  1.6596
  381TIP3   OH222557   6.871   3.714   3.211 -0.5494  0.1117 -0.3706
  381TIP3    H122558   6.957   3.681   3.237 -0.6613  0.4515  0.4303
  381TIP3    H222559   6.818   3.635   3.197 -0.6223 -0.0653  0.8706
  382TIP3   OH222560   6.627   4.060  13.274 -0.4634 -0.0103 -0.5554
  382TIP3    H122561   6.665   3.988  13.223  0.5982 -0.1173  0.3820
  382TIP3    H222562   6.544   4.078  13.230 -0.6714 -1.7000 -0.9124
  383TIP3   OH222563   4.801   7.120   5.314 -0.2740 -0.3811 -0.1234
  383TIP3    H122564   4.879   7.152   5.358 -0.3245  0.2794 -0.5163
  383TIP3    H222565   4.752   7.075   5.383  0.1499 -0.2579  0.2604
  384TIP3   OH222566   5.148   3.496   5.239  0.0069 -0.1116  0.0014
  384TIP3    H122567   5.169   3.509   5.147 -0.9129  0.4083 -0.1406
  384TIP3    H222568   5.214   3.434   5.270 -0.6330 -1.5590 -1.4222
  385TIP3   OH222569   6.064   4.655   4.849 -0.0962  0.1033 -0.6043
  385TIP3    H122570   6.006   4.598   4.901 -1.0155  0.3466 -1.3331
  385TIP3    H222571   6.052   4.742   4.887  0.0817  0.0901 -0.5179
  386TIP3   OH222572   1.823   3.564   5.718  0.2026  0.0589  0.0606
  386TIP3    H122573   1.896   3.586   5.777 -1.8928 -2.5956  3.8372
  386TIP3    H222574   1.856   3.491   5.665  0.8589  0.0412  0.4891
  387TIP3   OH222575   6.927   5.158   4.107  0.2743 -0.0937 -0.2221
  387TIP3    H122576   6.869   5.101   4.158 -1.4563  0.8124 -1.1464
  387TIP3    H222577   6.937   5.236   4.162  2.1458 -0.9852  0.7648
  388TIP3   OH222578   4.515   6.892   5.161 -0.5570  0.3707 -0.0598
  388TIP3    H122579   4.530   6.987   5.167 -2.2392  0.5612  1.4465
  388TIP3    H222580   4.493   6.877   5.069 -0.0900  1.4057 -0.3475
  389TIP3   OH222581   3.850   3.008   5.615  0.5975 -0.4406  0.0608
  389TIP3    H122582   3.879   2.970   5.699 -0.3237 -0.4521  0.3727
  389TIP3    H222583   3.764   3.044   5.634 -0.5279 -2.2714 -1.3992
  390TIP3   OH222584   3.052   4.802   5.702  0.0566 -0.2720  0.3415
  390TIP3    H122585   3.020   4.866   5.638 -1.8493 -1.1042  0.4301
  390TIP3    H222586   3.097   4.855   5.767 -0.1172  0.8309 -0.4071
  391TIP3   OH222587   2.710   5.164   5.759 -0.2629 -0.1501 -0.0061
  391TIP3    H122588   2.685   5.214   5.682  1.8615  1.6734  0.4138
  391TIP3    H222589   2.779   5.217   5.801  0.7069 -2.4994  1.5204
  392TIP3   OH222590   2.338   5.139   5.834 -0.4897  0.0996 -0.3924
  392TIP3    H122591   2.275   5.077   5.870 -0.2258 -0.1881 -0.4291
  392TIP3    H222592   2.284   5.213   5.804 -1.0291 -1.0836 -2.4588
  393TIP3   OH222593   0.720   2.333   2.533 -0.2431  0.1038  0.2274
  393TIP3    H122594   0.739   2.265   2.596  1.8220  1.5569  1.2146
  393TIP3    H222595   0.805   2.371   2.511 -1.1223  0.9504 -1.9248
  394TIP3   OH222596   6.318   3.757   2.978  0.0075  0.5393  0.2722
  394TIP3    H122597   6.229   3.754   2.942  0.2982 -1.1135 -0.3331
  394TIP3    H222598   6.316   3.697   3.052  0.9954 -0.5831 -0.6001
  395TIP3   OH222599   5.674   3.758   5.618  0.2068 -0.7660 -0.0239
  395TIP3    H122600   5.598   3.790   5.666 -1.1972 -1.0136 -2.0118
  395TIP3    H222601   5.743   3.821   5.638 -0.9397  0.3431  0.5609
  396TIP3   OH222602   3.430   3.176   5.603 -0.4460 -0.2564  0.3563
  396TIP3    H122603   3.517   3.164   5.643 -0.3427 -0.3762  0.0972
  396TIP3    H222604   3.407   3.089   5.570 -0.5752 -0.1795  0.2449
  397TIP3   OH222605   0.196   5.983   4.265 -0.4758 -0.4299  0.1203
  397TIP3    H122606   0.170   6.021   4.181 -0.8340 -0.1836  0.3382
  397TIP3    H222607   0.243   5.903   4.242  3.2211  1.7956 -0.4922
  398TIP3   OH222608   3.956   3.506   4.411  0.3001  0.2650 -0.0982
  398TIP3    H122609   3.996   3.584   4.372  0.0378 -0.7285 -2.4074
  398TIP3    H222610   4.016   3.481   4.481  0.7950  2.0537  0.1465
  399TIP3   OH222611   7.056   7.129   4.614  0.6322  0.1745  0.1767
  399TIP3    H122612   7.138   7.154   4.571  0.1153 -1.9197 -2.1422
  399TIP3    H222613   6.988   7.164   4.556 -0.0861 -1.4244  0.0235
  400TIP3   OH222614   3.821   4.710   4.875 -0.0546  0.1877 -0.2169
  400TIP3    H122615   3.800   4.798   4.905  1.5722 -0.2011  2.2279
  400TIP3    H222616   3.746   4.657   4.901 -0.2099  0.5350  0.0468
  401TIP3   OH222617   6.271   5.391   1.425 -0.1303  0.3617  0.0149
  401TIP3    H122618   6.275   5.441   1.343  0.4922  0.0619 -0.1419
  401TIP3    H222619   6.187   5.415   1.464 -0.0105  1.2303 -0.2534
  402TIP3   OH222620   6.131   3.376   2.452  0.2048  0.1715 -1.0138
  402TIP3    H122621   6.144   3.449   2.391 -1.9547  0.4540 -1.1552
  402TIP3    H222622   6.059   3.326   2.415 -0.4794 -0.2143  0.7933
  403TIP3   OH222623   3.649   3.124   3.347  0.0652  0.2371 -0.2773
  403TIP3    H122624   3.566   3.076   3.350  1.1678 -1.6901  0.0360
  403TIP3    H222625   3.637   3.188   3.277 -1.7209  0.0695 -0.1530
  404TIP3   OH222626   0.653   3.422   6.405 -0.5322 -0.6575 -0.0917
  404TIP3    H122627   0.560   3.404   6.388 -0.3685 -0.4837 -1.1976
  404TIP3    H222628   0.659   3.518   6.403 -0.9172 -0.5155  3.1966
  405TIP3   OH222629   5.968   6.528   5.254  0.6773 -0.1789  0.1049
  405TIP3    H122630   5.971   6.608   5.202  1.1762  0.7027  1.4613
  405TIP3    H222631   5.880   6.528   5.291  0.3034 -0.8352 -0.7613
  406TIP3   OH222632   4.026   7.119   3.069 -0.0569 -0.1621 -0.2781
  406TIP3    H122633   4.053   7.068   3.146 -0.1215 -0.9727 -0.7929
  406TIP3    H222634   3.937   7.089   3.050 -0.3631  0.6552 -0.1543
  407TIP3   OH222635   2.500   2.111   3.397 -0.5502 -0.4910 -0.2140
  407TIP3    H122636   2.551   2.115   3.316 -0.0296  1.7653  0.1618
  407TIP3    H222637   2.409   2.112   3.369 -0.3694  0.6447 -0.7842
  408TIP3   OH222638   1.576   5.830   5.382  0.1144 -0.1739  0.4332
  408TIP3    H122639   1.544   5.790   5.464  0.1371 -2.0581 -0.4550
  408TIP3    H222640   1.531   5.914   5.378 -2.3747 -1.4353  0.7857
  409TIP3   OH222641   2.707   5.515   5.738 -0.0133  0.3071  0.3532
  409TIP3    H122642   2.660   5.598   5.731 -0.2669  0.2354  1.1391
  409TIP3    H222643   2.745   5.517   5.826  0.9731  0.1125 -0.0543
  410TIP3   OH222644   4.116   1.146   4.347  0.2205  0.6468 -0.2627
  410TIP3    H122645   4.135   1.063   4.391  0.3695  0.8699  0.0966
  410TIP3    H222646   4.042   1.127   4.290  0.4238  0.1988 -0.3794
  411TIP3   OH222647   6.051   0.334   5.595  0.3187  0.4280  0.0410
  411TIP3    H122648   6.094   0.260   5.640 -0.0523  1.0298  1.4210
  411TIP3    H222649   6.102   0.411   5.622 -1.1722  1.0582  1.1245
  412TIP3   OH222650   5.540   0.998   5.110 -0.6220 -0.4680 -0.5484
  412TIP3    H122651   5.547   1.092   5.092 -3.2190 -0.3057 -0.9449
  412TIP3    H222652   5.474   0.966   5.048 -1.0754 -2.1940  0.7578
  413TIP3   OH222653   3.384   0.799   5.595 -0.0135 -0.2464  0.1178
  413TIP3    H122654   3.342   0.715   5.576 -0.8910  0.1894  0.0584
  413TIP3    H222655   3.331   0.836   5.666  0.1850  0.3869 -0.0571
  414TIP3   OH222656   1.767   7.088   5.968 -0.5535  0.5168 -0.4987
  414TIP3    H122657   1.754   7.031   5.892 -1.5192 -0.4312  0.3395
  414TIP3    H222658   1.713   7.047   6.037  0.8469  0.9466  0.8880
  415TIP3   OH222659   0.241   1.613   5.444  0.2776 -0.2833 -0.2304
  415TIP3    H122660   0.310   1.606   5.510  0.6018 -2.4943 -0.7664
  415TIP3    H222661   0.166   1.570   5.483  0.1787 -0.7418 -0.9144
  416TIP3   OH222662   7.065   0.072   4.250  0.4322  0.4254 -0.0011
  416TIP3    H122663   7.029   0.145   4.199  0.8003  0.7102  0.1403
  416TIP3    H222664   7.076   0.108   4.338  1.3109  0.4278 -0.1057
  417TIP3   OH222665   6.487   1.564   5.943  0.0851 -0.2545 -0.3302
  417TIP3    H122666   6.565   1.523   5.905  1.0453 -0.4271  1.7615
  417TIP3    H222667   6.522   1.629   6.004 -1.4303  0.9544 -0.7259
  418TIP3   OH222668   3.668   1.530   4.709 -0.5428  0.0387  0.7803
  418TIP3    H122669   3.723   1.608   4.698  0.6520 -0.9705 -0.6454
  418TIP3    H222670   3.620   1.523   4.627  1.6277 -2.4125 -0.3514
  419TIP3   OH222671   0.430   7.108   5.611 -0.0166  0.1255  0.2506
  419TIP3    H122672   0.449   7.022   5.576  3.4355  0.3932  1.2779
  419TIP3    H222673   0.373   7.092   5.687 -0.0105 -1.1516 -0.0170
  420TIP3   OH222674   0.266   7.021   5.803 -0.6378 -0.2371  0.0072
  420TIP3    H122675   0.214   6.941   5.793 -1.8442  0.5283  0.0628
  420TIP3    H222676   0.296   7.018   5.894  2.8993 -2.7323 -1.1350
  421TIP3   OH222677   0.468   1.330   9.841  0.2628  0.8804  0.1739
  421TIP3    H122678   0.499   1.260   9.784  1.1363  2.8752 -1.8990
  421TIP3    H222679   0.527   1.328   9.916 -0.6287 -1.5130  0.8414
  422TIP3   OH222680   7.090   3.952  12.665 -0.2561 -0.0885  0.7927
  422TIP3    H122681   7.094   4.012  12.591 -0.0651  0.6966  1.4337
  422TIP3    H222682   7.046   3.874  12.630  0.7018 -0.1056 -0.3891
  423TIP3   OH222683   6.027   0.573  12.031  0.4104 -0.2720 -0.0584
  423TIP3    H122684   5.933   0.591  12.034  0.2354  0.0735 -4.6152
  423TIP3    H222685   6.035   0.502  11.967  3.2355 -0.7702  0.7957
  424TIP3   OH222686   6.238   0.972  13.886 -0.0342  0.0827  0.5164
  424TIP3    H122687   6.284   0.903  13.932 -0.7502 -0.3744  0.5532
  424TIP3    H222688   6.306   1.018  13.837  0.1896 -1.8028 -0.9873
  425TIP3   OH222689   5.633   1.906  13.122 -0.3144 -0.4628 -0.3937
  425TIP3    H122690   5.718   1.879  13.086  0.4630  0.5014  0.6840
  425TIP3    H222691   5.627   1.861  13.207  0.1258  1.2099  0.5380
  426TIP3   OH222692   2.276   0.495  11.074 -0.0595  0.4310 -0.0902
  426TIP3    H122693   2.333   0.493  11.150 -0.4546  0.9266  0.2188
  426TIP3    H222694   2.234   0.409  11.074  1.4032 -0.3052 -0.8740
  427TIP3   OH222695   6.923   1.062   9.582 -0.1898  0.1379  0.2833
  427TIP3    H122696   6.857   1.026   9.522 -0.2692  0.1037  0.3931
  427TIP3    H222697   6.962   0.985   9.623 -1.2652  0.2277  1.5015
  428TIP3   OH222698   4.672   4.753  12.938 -0.2145 -0.1328  0.1624
  428TIP3    H122699   4.767   4.738  12.934 -0.0095  1.0986  0.1169
  428TIP3    H222700   4.634   4.679  12.890  0.8253  0.1763 -1.1824
  429TIP3   OH222701   1.180   1.544  12.599  0.1216  0.1647 -0.0812
  429TIP3    H122702   1.264   1.529  12.556  0.9619  1.7793  0.9573
  429TIP3    H222703   1.119   1.488  12.552  1.6530 -0.5606 -1.2551
  430TIP3   OH222704   3.228   0.734  10.544 -0.3787 -0.1280  0.1994
  430TIP3    H122705   3.240   0.782  10.461 -1.2718 -1.2289 -0.5836
  430TIP3    H222706   3.295   0.665  10.541 -0.8168 -0.5550  0.0919
  431TIP3   OH222707   1.988   0.350   9.956  0.5489  0.2525 -0.0147
  431TIP3    H122708   2.080   0.328   9.946  0.6056  0.7875 -0.7847
  431TIP3    H222709   1.946   0.312   9.879  0.6598  2.7829 -1.3947
  432TIP3   OH222710   6.250   6.861  12.273  0.1727 -0.0853 -0.1351
  432TIP3    H122711   6.184   6.826  12.214 -0.3560  2.1836 -0.9355
  432TIP3    H222712   6.202   6.916  12.334  0.8662 -1.4753  1.7229
  433TIP3   OH222713   0.463   0.177   9.906 -0.0469  0.2508 -0.7019
  433TIP3    H122714   0.367   0.172   9.905 -0.2603  3.1326  0.2797
  433TIP3    H222715   0.492   0.088   9.887 -2.9315 -1.5039  2.5717
  434TIP3   OH222716   1.357   4.083  12.161  0.8698  0.2749 -0.1184
  434TIP3    H122717   1.279   4.080  12.216  2.0617  1.6114  1.7301
  434TIP3    H222718   1.368   4.176  12.139  0.8832 -0.1466 -1.9220
  435TIP3   OH222719   4.534   6.975  12.646 -0.1712 -0.4413 -0.2537
  435TIP3    H122720   4.520   7.005  12.736 -1.6059 -1.3520 -0.1516
  435TIP3    H222721   4.586   6.896  12.655  0.0050 -0.3251 -0.2515
  436TIP3   OH222722   1.511   0.571  10.438 -0.0138 -0.1785 -0.2962
  436TIP3    H122723   1.466   0.554  10.520  1.9390 -1.5607  0.5167
  436TIP3    H222724   1.444   0.556  10.370 -1.8343  1.7070  1.0266
  437TIP3   OH222725   0.843   0.940   9.914 -0.5345 -0.1716  0.6428
  437TIP3    H122726   0.751   0.928   9.891 -0.1557 -0.2438 -0.9064
  437TIP3    H222727   0.858   0.878   9.986 -2.1697  1.2393  2.2337
  438TIP3   OH222728   4.705   2.226   9.882 -0.2786 -0.2177  0.2793
  438TIP3    H122729   4.644   2.153   9.870  0.8605 -1.0697 -0.4361
  438TIP3    H222730   4.746   2.209   9.967  0.7601 -1.0061 -0.3668
  439TIP3   OH222731   5.904   5.434  14.262  0.3014  0.7039  0.1020
  439TIP3    H122732   5.851   5.509  14.235 -1.5734  0.0091  1.7440
  439TIP3    H222733   5.887   5.424  14.356  4.0374  0.9785  0.8930
  440TIP3   OH222734   0.969   0.859  13.561 -0.0234 -0.0830  0.4142
  440TIP3    H122735   0.896   0.858  13.622 -1.9496  0.6055 -1.8149
  440TIP3    H222736   0.999   0.950  13.560  1.0549 -0.4043  1.4891
  441TIP3   OH222737   1.731   5.931  14.391 -0.2528 -0.3687 -1.0158
  441TIP3    H122738   1.761   5.904  14.304 -2.1873 -0.6286 -1.6347
  441TIP3    H222739   1.799   5.902  14.451  0.8442 -0.6695 -2.3940
  442TIP3   OH222740   5.498   5.989  10.352 -0.5996 -0.0372 -0.1204
  442TIP3    H122741   5.437   5.951  10.416 -0.5809 -1.1802 -0.7628
  442TIP3    H222742   5.457   5.972  10.267  2.0272 -3.6465 -0.8030
  443TIP3   OH222743   1.133   3.030  13.165 -0.1920 -0.2040 -0.3035
  443TIP3    H122744   1.112   3.122  13.180  1.1510 -0.0771  0.8989
  443TIP3    H222745   1.055   2.982  13.191 -0.1731  0.4684  1.0104
  444TIP3   OH222746   0.268   7.128  10.501  0.3935  0.1057  0.3593
  444TIP3    H122747   0.184   7.164  10.474  0.7976  0.8470  0.0534
  444TIP3    H222748   0.314   7.110  10.419  0.7447  0.2350  0.5234
  445TIP3   OH222749   6.584   3.017  14.000  0.3173  0.3559  0.2449
  445TIP3    H122750   6.489   3.024  13.998  0.3755  2.1488  2.1515
  445TIP3    H222751   6.614   3.087  13.941  0.4783 -0.1477 -0.2810
  446TIP3   OH222752   0.471   5.141  12.897  0.0629  1.0116  0.5693
  446TIP3    H122753   0.435   5.229  12.901  1.8725  1.7211  1.8910
  446TIP3    H222754   0.518   5.138  12.813 -1.5366  0.6657 -0.3341
  447TIP3   OH222755   2.814   0.371  15.220 -0.4584 -0.2634 -0.2607
  447TIP3    H122756   2.775   0.386  15.134 -2.6190 -2.0080  0.3500
  447TIP3    H222757   2.772   0.291  15.251  0.2565  0.3642  2.4354
  448TIP3   OH222758   7.135   0.834  11.127  0.3571  0.6195  0.2875
  448TIP3    H122759   7.138   0.909  11.187  0.7960  0.9115 -0.1017
  448TIP3    H222760   7.176   0.866  11.047  0.6438 -0.0706  0.1616
  449TIP3   OH222761   4.589   5.473  12.098  0.2425  0.4770 -0.6494
  449TIP3    H122762   4.605   5.528  12.175 -3.1611 -0.6732  0.9794
  449TIP3    H222763   4.637   5.392  12.116  1.4464  1.1290 -0.8902
  450TIP3   OH222764   0.978   0.712  12.499  0.1551  0.3291 -0.0157
  450TIP3    H122765   1.056   0.657  12.504 -0.0546  0.1485  1.4289
  450TIP3    H222766   0.995   0.785  12.559 -1.0169 -0.0090  0.7532
  451TIP3   OH222767   6.767   4.217  11.944 -0.2009 -0.2595  0.6668
  451TIP3    H122768   6.724   4.160  12.008  0.9463 -1.9492 -0.0486
  451TIP3    H222769   6.750   4.175  11.859  0.0027  0.8846  0.0562
  452TIP3   OH222770   2.739   1.469  11.865  0.3480 -0.1299  0.2745
  452TIP3    H122771   2.686   1.408  11.814 -0.7698  0.7039  0.4257
  452TIP3    H222772   2.722   1.554  11.826  0.7250  0.2878  1.0228
  453TIP3   OH222773   1.195   4.877  10.451  0.1617  0.7449 -0.2086
  453TIP3    H122774   1.122   4.876  10.389 -0.7377  3.2404  0.7299
  453TIP3    H222775   1.153   4.876  10.537  1.3400 -0.5454  0.3683
  454TIP3   OH222776   5.363   7.064  10.075 -0.2391  0.3628 -0.4606
  454TIP3    H122777   5.441   7.037  10.124 -0.6189 -0.7704 -0.4538
  454TIP3    H222778   5.387   7.050   9.983 -0.4860 -0.1609 -0.4497
  455TIP3   OH222779   3.524   1.273  12.866  0.2164 -0.4463  0.1280
  455TIP3    H122780   3.599   1.249  12.920  0.8079 -0.0476 -0.5064
  455TIP3    H222781   3.495   1.357  12.902 -0.2497 -0.8463  0.6985
  456TIP3   OH222782   3.369   5.442  10.340  0.0417 -0.3606 -0.6140
  456TIP3    H122783   3.315   5.484  10.408 -0.4811 -1.2537 -0.4709
  456TIP3    H222784   3.380   5.510  10.274 -0.0515  0.2932  0.0292
  457TIP3   OH222785   1.454   3.772  12.445 -0.3474  0.1960  0.3532
  457TIP3    H122786   1.503   3.823  12.509 -0.2979  2.4153 -1.3753
  457TIP3    H222787   1.363   3.798  12.458 -0.3496  0.5734 -0.3710
  458TIP3   OH222788   6.512   6.266  12.088 -0.0029 -0.7084 -0.3950
  458TIP3    H122789   6.439   6.273  12.027 -1.0431 -0.0900  0.8883
  458TIP3    H222790   6.471   6.244  12.172  1.2357  0.0379  0.4262
  459TIP3   OH222791   6.628   6.348   9.809 -0.0546 -0.1637 -0.1280
  459TIP3    H122792   6.623   6.414   9.740  0.3087  0.7206  0.6906
  459TIP3    H222793   6.634   6.265   9.762 -0.8142  0.3607 -1.1603
  460TIP3   OH222794   6.020   2.208  14.825 -0.2921  0.1955 -0.3260
  460TIP3    H122795   6.009   2.113  14.817 -0.7997  0.1464  0.9204
  460TIP3    H222796   6.031   2.224  14.919 -0.4429  1.3977 -0.4976
  461TIP3   OH222797   5.656   1.505  14.494  0.3241 -0.5285  0.5013
  461TIP3    H122798   5.641   1.470  14.406  0.0889 -1.1333  0.7746
  461TIP3    H222799   5.644   1.599  14.485  3.1609 -0.2560 -0.6970
  462TIP3   OH222800   1.401   1.372   9.673 -0.1660 -0.2207 -0.0505
  462TIP3    H122801   1.328   1.312   9.665  0.1793 -1.1735  3.2716
  462TIP3    H222802   1.478   1.320   9.650 -0.2519  0.0892 -1.0750
  463TIP3   OH222803   0.199   6.132   0.751  0.0611  0.1667 -0.2627
  463TIP3    H122804   0.119   6.164   0.709 -1.5255 -1.3100  1.5657
  463TIP3    H222805   0.238   6.074   0.686 -0.1681  1.1411 -1.2912
  464TIP3   OH222806   3.630   4.822  11.700  0.2877  0.5395  0.6331
  464TIP3    H122807   3.719   4.789  11.689 -0.0215 -0.3643  0.7812
  464TIP3    H222808   3.615   4.878  11.624  0.4815 -0.4423 -0.1379
  465TIP3   OH222809   0.270   6.761  10.070  0.7089  0.0980  0.5982
  465TIP3    H122810   0.275   6.819   9.994 -0.5744  0.2716  0.6222
  465TIP3    H222811   0.303   6.677  10.038 -1.4661 -0.3275 -0.6994
  466TIP3   OH222812   3.364   1.600  13.232 -0.9039  0.1432 -0.2506
  466TIP3    H122813   3.424   1.584  13.305 -2.6543  0.7592  1.3923
  466TIP3    H222814   3.345   1.513  13.197 -1.8512 -0.4313  1.5830
  467TIP3   OH222815   4.849   6.682  10.029  0.3085 -0.0024 -0.1376
  467TIP3    H122816   4.931   6.698   9.982  0.0089  0.8043 -0.3775
  467TIP3    H222817   4.842   6.753  10.092  0.9330 -1.3244  1.4710
  468TIP3   OH222818   3.159   5.178  12.703 -0.1760 -0.3140 -0.1201
  468TIP3    H122819   3.093   5.229  12.655  0.3633  0.0367 -0.4938
  468TIP3    H222820   3.123   5.090  12.706  0.2453 -0.5963 -2.1062
  469TIP3   OH222821   3.576   5.183  13.146 -0.0828  0.6448  0.1694
  469TIP3    H122822   3.591   5.275  13.123  0.6481  0.5208  0.1547
  469TIP3    H222823   3.630   5.169  13.224  0.2437  0.0764 -0.1557
  470TIP3   OH222824   4.304   4.323  10.895  0.2081 -0.6619  0.3789
  470TIP3    H122825   4.356   4.275  10.959  2.4924  0.0552 -0.8983
  470TIP3    H222826   4.327   4.285  10.810 -2.1479 -1.0313 -0.1408
  471TIP3   OH222827   2.788   1.397  15.243 -0.2608 -0.8762 -0.2995
  471TIP3    H122828   2.743   1.313  15.230  1.2272 -2.3224  3.2705
  471TIP3    H222829   2.724   1.452  15.289 -0.8675 -0.4023 -1.6968
  472TIP3   OH222830   1.626   2.137  10.684 -0.1861  0.7737  0.4853
  472TIP3    H122831   1.635   2.130  10.589 -1.8814  0.4517  0.3394
  472TIP3    H222832   1.601   2.049  10.713  2.4516  0.3109  1.5070
  473TIP3   OH222833   3.806   2.969  11.080 -0.1976  0.1512  0.1682
  473TIP3    H122834   3.874   2.962  11.147 -0.7804  1.3529  0.9084
  473TIP3    H222835   3.749   2.894  11.094  0.0005  0.0960  0.6624
  474TIP3   OH222836   0.479   0.981  10.530  0.0064 -0.3823  0.2694
  474TIP3    H122837   0.416   0.976  10.458 -0.4870  0.3150  0.6496
  474TIP3    H222838   0.428   1.009  10.606  0.4570 -1.5241  0.9977
  475TIP3   OH222839   3.881   0.519  13.803 -0.0443 -0.4352  0.5359
  475TIP3    H122840   3.956   0.500  13.746 -1.1133 -1.5472 -0.5463
  475TIP3    H222841   3.895   0.608  13.833  0.6844  0.0848 -1.3005
  476TIP3   OH222842   0.545   6.808  12.555  0.1301  0.0348  0.3420
  476TIP3    H122843   0.550   6.721  12.515  1.1691  0.0996  0.2937
  476TIP3    H222844   0.633   6.844  12.543 -0.5803  1.5150 -0.5686
  477TIP3   OH222845   0.071   4.893  10.109 -0.2387 -0.1114  0.1161
  477TIP3    H122846   0.151   4.912  10.158 -0.4377  1.7406 -0.2329
  477TIP3    H222847   0.014   4.969  10.125 -1.8153 -1.2647  0.1242
  478TIP3   OH222848   1.454   0.865   9.253 -0.1408  0.4769 -0.4130
  478TIP3    H122849   1.399   0.788   9.239 -1.1476  1.4391 -1.8575
  478TIP3    H222850   1.537   0.829   9.285 -1.8618 -0.9383  2.7431
  479TIP3   OH222851   5.032   0.280  13.491  0.1964 -0.1278  0.1448
  479TIP3    H122852   5.042   0.361  13.440  0.2650  1.3769  2.4686
  479TIP3    H222853   5.053   0.306  13.581 -2.0040 -2.2327  1.3071
  480TIP3   OH222854   1.100   6.006  12.523  0.2619 -0.8390 -0.6129
  480TIP3    H122855   1.105   5.912  12.542  1.1550 -0.4154  1.3798
  480TIP3    H222856   1.014   6.033  12.557 -0.1118 -0.9839 -1.4368
  481TIP3   OH222857   4.619   4.093  12.237  0.3673  0.1020  0.1692
  481TIP3    H122858   4.706   4.058  12.251  0.5857  0.4827 -0.2461
  481TIP3    H222859   4.595   4.066  12.149  0.3612  0.6214  0.0099
  482TIP3   OH222860   1.422   5.861  11.686  0.4697 -0.0575  0.4946
  482TIP3    H122861   1.349   5.832  11.739  0.8066  1.4231  1.8264
  482TIP3    H222862   1.485   5.789  11.689  0.1915 -0.2644  1.5768
  483TIP3   OH222863   5.104   5.831  12.563 -0.1705 -0.2145 -0.0535
  483TIP3    H122864   5.057   5.909  12.537 -0.8975 -1.2987 -2.0678
  483TIP3    H222865   5.036   5.770  12.591  0.0334 -1.5984 -2.4803
  484TIP3   OH222866   4.672   0.241  10.254 -0.2618 -0.0285 -0.1870
  484TIP3    H122867   4.750   0.286  10.288 -0.7833  0.5791  0.2087
  484TIP3    H222868   4.633   0.304  10.193  0.1120 -0.7227 -1.1650
  485TIP3   OH222869   1.309   6.606  12.324 -0.1183 -0.3828  0.2512
  485TIP3    H122870   1.280   6.518  12.345 -0.3742 -1.0813 -2.7988
  485TIP3    H222871   1.235   6.644  12.276  1.2680  0.3049 -1.3735
  486TIP3   OH222872   2.169   2.564  10.217 -0.0627  0.3806  0.5146
  486TIP3    H122873   2.076   2.551  10.195 -0.1201 -0.0724  1.0030
  486TIP3    H222874   2.181   2.513  10.297  0.9452 -0.6422 -0.2924
  487TIP3   OH222875   0.102   4.172  10.008  0.2777  0.4016  0.1122
  487TIP3    H122876   0.061   4.208   9.930  0.8975  0.8087 -0.0259
  487TIP3    H222877   0.155   4.099   9.976  1.1469  1.0583  0.0543
  488TIP3   OH222878   3.278   2.188  11.731 -0.4953 -0.0874 -0.0832
  488TIP3    H122879   3.203   2.144  11.689 -1.0535 -0.5213  1.3521
  488TIP3    H222880   3.353   2.133  11.709 -1.0486 -1.2591  0.9224
  489TIP3   OH222881   1.408   2.994  13.205  0.5048 -0.5239 -0.8110
  489TIP3    H122882   1.328   3.042  13.189  0.2795 -0.3727  0.6821
  489TIP3    H222883   1.389   2.905  13.175 -0.6627 -0.7993  0.7005
  490TIP3   OH222884   2.351   5.674  12.046 -0.2918 -0.6459 -1.1010
  490TIP3    H122885   2.278   5.736  12.035  0.7238  0.3146 -2.5798
  490TIP3    H222886   2.399   5.679  11.964  1.3085 -1.4661 -0.2352
  491TIP3   OH222887   6.754   2.686  10.208 -0.7628  0.4537  0.4308
  491TIP3    H122888   6.744   2.654  10.118 -1.2833  0.1226  0.6056
  491TIP3    H222889   6.838   2.732  10.207 -0.3655 -0.2627 -0.0190
  492TIP3   OH222890   0.295   0.193  10.846 -0.6322 -0.3074  0.6378
  492TIP3    H122891   0.374   0.188  10.792 -0.0989  0.7298  1.2961
  492TIP3    H222892   0.310   0.129  10.916 -0.9864 -1.1021 -0.0115
  493TIP3   OH222893   3.462   5.371  11.727 -0.3234  0.1712 -0.6973
  493TIP3    H122894   3.552   5.395  11.706 -0.3401 -0.0941 -1.0788
  493TIP3    H222895   3.417   5.454  11.742  0.2612  0.2653  0.6454
  494TIP3   OH222896   1.186   6.993  14.990  0.2826  0.3652  0.2952
  494TIP3    H122897   1.252   6.932  14.957 -0.5427 -0.3962  0.0114
  494TIP3    H222898   1.124   7.003  14.917  1.2736  2.8367 -0.2628
  495TIP3   OH222899   3.539   6.276  10.459 -0.2202 -0.0563  0.3071
  495TIP3    H122900   3.542   6.180  10.453  0.3963 -0.0476  0.4455
  495TIP3    H222901   3.448   6.298  10.441 -0.3214 -0.6576  0.0621
  496TIP3   OH222902   1.277   6.173  11.178  0.4438  0.6442  0.1577
  496TIP3    H122903   1.312   6.255  11.213 -0.6474  0.8354  0.8207
  496TIP3    H222904   1.277   6.113  11.252  0.0620  0.4308 -0.0131
  497TIP3   OH222905   0.568   0.918   9.908  0.2424 -0.3752 -0.4009
  497TIP3    H122906   0.553   0.938  10.000  0.2830 -0.2114 -0.4288
  497TIP3    H222907   0.503   0.851   9.887 -0.1291 -0.0167 -0.3997
  498TIP3   OH222908   1.632   0.573   9.286 -0.2172  0.5530 -0.3425
  498TIP3    H122909   1.677   0.656   9.299 -0.6496  0.4370  2.2225
  498TIP3    H222910   1.701   0.511   9.260  0.8240  0.7759  1.8216
  499TIP3   OH222911   6.050   4.721  11.263  0.0916  0.4793 -0.0161
  499TIP3    H122912   6.008   4.642  11.230  1.7619 -0.0414 -1.0003
  499TIP3    H222913   5.989   4.791  11.243 -0.2061 -0.2247 -1.6231
  500TIP3   OH222914   0.715   0.672  10.704  0.1373  0.1007 -0.0814
  500TIP3    H122915   0.717   0.764  10.730 -0.5139  0.4213 -1.1333
  500TIP3    H222916   0.804   0.640  10.719  0.3768  0.9125  0.2376
  501TIP3   OH222917   2.654   3.771  14.621  0.8670  0.1139  0.5398
  501TIP3    H122918   2.612   3.762  14.707 -0.4363  0.7930 -0.0176
  501TIP3    H222919   2.642   3.863  14.598 -1.1027 -0.6194 -1.5387
  502TIP3   OH222920   7.074   0.409  11.363  0.0414  0.0309 -0.1137
  502TIP3    H122921   7.077   0.324  11.405  0.6466  0.3593  0.5214
  502TIP3    H222922   7.098   0.392  11.272 -1.1014 -0.6525 -0.2999
  503TIP3   OH222923   2.951   2.283  12.273 -0.0900 -0.1507 -0.3539
  503TIP3    H122924   3.020   2.281  12.339  0.3063 -2.0602 -0.7922
  503TIP3    H222925   2.975   2.355  12.215 -1.7116  3.1551  2.8547
  504TIP3   OH222926   2.488   5.930  13.968 -0.5632  0.0551  0.3117
  504TIP3    H122927   2.536   5.999  13.922  0.6096  0.1870  1.7251
  504TIP3    H222928   2.435   5.976  14.033  0.0136 -0.3661  1.0745
  505TIP3   OH222929   0.548   2.017   9.721 -0.0823 -0.1284  0.9942
  505TIP3    H122930   0.567   2.041   9.812  0.1982 -0.7048  1.0930
  505TIP3    H222931   0.596   2.080   9.668  1.5501 -1.1184  1.2401
  506TIP3   OH222932   5.660   0.675  10.739  0.2675 -0.3447 -0.0868
  506TIP3    H122933   5.647   0.744  10.804 -0.9232 -0.0987 -0.5690
  506TIP3    H222934   5.627   0.596  10.781  0.2920 -0.3459 -0.0698
  507TIP3   OH222935   1.999   0.215   0.418 -0.5138  0.1795 -0.3967
  507TIP3    H122936   1.916   0.242   0.379  0.2003  1.0263 -1.3524
  507TIP3    H222937   2.058   0.290   0.404  0.9866 -1.1661 -1.5201
  508TIP3   OH222938   1.280   0.843  10.233 -0.9864  0.3110  0.1329
  508TIP3    H122939   1.281   0.939  10.224  1.2467  0.1680 -1.7208
  508TIP3    H222940   1.242   0.811  10.151  0.8781 -0.4523 -0.4565
  509TIP3   OH222941   0.737   0.378   9.504  0.8138  0.1785  0.0268
  509TIP3    H122942   0.701   0.306   9.557  0.8494  0.7440  0.8265
  509TIP3    H222943   0.803   0.336   9.450  0.5358 -0.4745  0.1864
  510TIP3   OH222944   0.657   0.327  10.957  0.1438 -0.3283  0.0277
  510TIP3    H122945   0.735   0.374  10.988 -0.9221  0.2121  1.9847
  510TIP3    H222946   0.615   0.295  11.037 -3.5213  2.3967 -0.6745
  511TIP3   OH222947   0.145   7.022  14.525  0.4239 -0.2812 -0.0402
  511TIP3    H122948   0.122   7.103  14.479 -0.4932  0.5967  1.9101
  511TIP3    H222949   0.125   6.953  14.461 -1.2331  0.8723 -0.8281
  512TIP3   OH222950   2.176   1.155   9.451 -0.3982 -0.3544  0.3923
  512TIP3    H122951   2.185   1.223   9.517 -1.0392  1.1459 -1.0400
  512TIP3    H222952   2.176   1.201   9.367  0.4961 -2.2233 -0.6955
  513TIP3   OH222953   3.851   3.480  12.548  0.1231  0.6227  0.1425
  513TIP3    H122954   3.781   3.540  12.521 -0.0831  1.1016  1.6883
  513TIP3    H222955   3.918   3.537  12.586  0.5242 -0.0009  0.3797
  514TIP3   OH222956   3.872   4.330  11.471  0.1089 -0.5647 -0.8525
  514TIP3    H122957   3.951   4.375  11.442  1.0213  0.0821  2.4313
  514TIP3    H222958   3.895   4.237  11.468  0.0231 -0.5479 -2.5496
  515TIP3   OH222959   2.481   4.149  13.664 -0.4224 -0.3399  0.2390
  515TIP3    H122960   2.504   4.203  13.740  0.8254 -1.4633  0.6641
  515TIP3    H222961   2.463   4.063  13.700 -0.0945 -0.8077 -0.7092
  516TIP3   OH222962   1.096   6.742   9.929  0.1668  0.2619 -0.7785
  516TIP3    H122963   1.162   6.754   9.997  0.6410 -1.5473 -0.8806
  516TIP3    H222964   1.066   6.651   9.941 -0.4063  0.2240 -2.3928
  517TIP3   OH222965   0.320   0.684  10.913 -0.6229  0.1300  0.3374
  517TIP3    H122966   0.313   0.728  10.997  1.1907  1.2432 -0.0691
  517TIP3    H222967   0.321   0.590  10.934  2.2472  0.4445  1.7727
  518TIP3   OH222968   3.344   4.681  13.000 -0.4257 -0.6353 -0.1707
  518TIP3    H122969   3.333   4.659  12.908 -0.9440 -1.1535  0.0130
  518TIP3    H222970   3.367   4.774  13.000 -1.0241 -0.4825 -0.7859
  519TIP3   OH222971   0.799   0.928  11.673 -0.1419  0.0957  0.0441
  519TIP3    H122972   0.749   0.924  11.755 -1.0495  1.1078 -0.4503
  519TIP3    H222973   0.750   0.989  11.618  0.6594 -0.3019 -1.1270
  520TIP3   OH222974   0.948   1.305   9.719  0.4049 -1.0283  0.3219
  520TIP3    H122975   0.885   1.259   9.664 -1.6042 -0.2101  1.9006
  520TIP3    H222976   1.000   1.235   9.759  0.6926 -1.6949 -1.1719
  521TIP3   OH222977   4.403   0.533  10.168 -0.3413 -0.2190 -0.1962
  521TIP3    H122978   4.349   0.550  10.091 -0.4456  0.3627 -0.0038
  521TIP3    H222979   4.490   0.516  10.133 -0.6647 -1.2409 -0.5134
  522TIP3   OH222980   6.424   4.678  12.156 -0.1290 -0.1692 -0.6497
  522TIP3    H122981   6.396   4.721  12.237 -0.9829  1.7522 -1.9031
  522TIP3    H222982   6.519   4.686  12.156 -0.0899 -0.5770  0.3627
  523TIP3   OH222983   1.560   0.768  10.111  0.1350 -0.0239 -0.2756
  523TIP3    H122984   1.624   0.803  10.173 -0.4745 -2.6719  1.9803
  523TIP3    H222985   1.476   0.794  10.147 -0.1958 -0.8931 -0.4139
  524TIP3   OH222986   0.988   4.817  10.279 -0.3025 -0.1308  0.0899
  524TIP3    H122987   1.029   4.799  10.194 -0.4059 -2.2329  0.4501
  524TIP3    H222988   0.894   4.812  10.262 -0.3235 -0.4830  0.2858
  525TIP3   OH222989   1.981   0.458  10.348 -0.2775  0.2536 -0.0183
  525TIP3    H122990   2.044   0.520  10.385 -0.3697  0.7244 -0.6490
  525TIP3    H222991   1.917   0.445  10.418 -0.9069  1.7727 -0.2974
  526TIP3   OH222992   5.900   4.149  12.572  0.1358 -0.2069 -0.1353
  526TIP3    H122993   5.919   4.187  12.658  0.0519 -1.4414  0.4368
  526TIP3    H222994   5.948   4.205  12.511 -1.6411  2.0894  0.4661
  527TIP3   OH222995   0.829   6.266  12.540  0.1422 -0.2414  0.6866
  527TIP3    H122996   0.816   6.172  12.530 -1.1453 -0.0312  0.4019
  527TIP3    H222997   0.797   6.286  12.628 -0.5929  0.1056  0.3472
  528TIP3   OH222998   4.504   4.902  12.398 -0.3659  0.3370 -0.4373
  528TIP3    H122999   4.471   4.897  12.308 -0.5599 -0.1841 -0.3355
  528TIP3    H223000   4.509   4.811  12.427 -1.3343  0.5596  0.4572
  529TIP3   OH223001   2.597   0.198  12.791 -0.3797 -0.1466  0.2726
  529TIP3    H123002   2.596   0.209  12.696  0.5883 -1.8875  0.0346
  529TIP3    H223003   2.680   0.236  12.819 -0.8919  0.8226  0.4910
  530TIP3   OH223004   2.926   1.800  13.109 -0.5238  0.1208 -0.1100
  530TIP3    H123005   2.899   1.890  13.090  0.0463  0.6984  1.6525
  530TIP3    H223006   2.885   1.781  13.193  2.4390  0.1244  1.3886
  531TIP3   OH223007   0.787   0.331  11.316 -0.4845 -0.1421  0.0639
  531TIP3    H123008   0.717   0.396  11.305 -1.2772 -0.8303  0.9715
  531TIP3    H223009   0.862   0.382  11.347 -0.6641  0.5585 -0.6409
  532TIP3   OH223010   0.756   2.383  14.310  0.5841 -0.4800 -0.1436
  532TIP3    H123011   0.770   2.425  14.225  0.1755 -0.5736 -0.2568
  532TIP3    H223012   0.824   2.421  14.366  0.2117  0.3384 -0.2437
  533TIP3   OH223013   5.018   6.787  13.398 -0.5346 -0.3224  0.5679
  533TIP3    H123014   4.958   6.789  13.472 -0.9944  0.5997  0.1882
  533TIP3    H223015   4.961   6.791  13.321  0.0361  1.7865  0.2130
  534TIP3   OH223016   0.387   6.086  11.784  0.2873  0.5076 -0.3757
  534TIP3    H123017   0.444   6.116  11.855 -0.5976  1.1659  0.0697
  534TIP3    H223018   0.314   6.148  11.784 -0.8148 -0.7644 -0.4254
  535TIP3   OH223019   1.629   7.020  11.273 -0.3035  0.5759  0.1076
  535TIP3    H123020   1.698   6.978  11.222  0.2905  0.0550  1.3105
  535TIP3    H223021   1.548   6.979  11.242 -0.0628  1.0493 -1.1657
  536TIP3   OH223022   2.433   6.514  12.295 -0.1416 -0.3747  0.6788
  536TIP3    H123023   2.515   6.466  12.278 -0.2089 -0.9547  1.9985
  536TIP3    H223024   2.416   6.561  12.213  1.6441 -0.0652  0.4589
  537TIP3   OH223025   0.009   5.793  15.336  0.0952  0.1278  0.0815
  537TIP3    H123026  -0.010   5.767  15.246  1.7727 -0.1124 -0.2133
  537TIP3    H223027  -0.067   5.845  15.363 -0.5099  0.0163 -1.3937
  538TIP3   OH223028   5.667   4.694  11.831 -0.4162  0.1906 -0.0057
  538TIP3    H123029   5.602   4.691  11.762 -0.8653  0.1657  0.4178
  538TIP3    H223030   5.736   4.752  11.797  0.4503 -1.6200 -1.4169
  539TIP3   OH223031   3.211   6.682   9.787 -0.2631  0.4649 -0.4234
  539TIP3    H123032   3.250   6.740   9.722 -0.6556  2.0423  0.7100
  539TIP3    H223033   3.122   6.667   9.756 -0.5471  1.4609 -0.1109
  540TIP3   OH223034   0.259   5.114  14.113  0.2659 -0.4444 -0.0163
  540TIP3    H123035   0.186   5.145  14.059  1.3895 -0.1853 -1.4352
  540TIP3    H223036   0.243   5.151  14.199 -2.2687 -1.9133  0.2044
  541TIP3   OH223037   5.382   4.649  11.992 -0.0416 -0.1863 -0.0432
  541TIP3    H123038   5.421   4.565  11.968  1.6628  0.3212  0.8436
  541TIP3    H223039   5.349   4.685  11.910  0.8300 -0.9068 -0.7228
  542TIP3   OH223040   1.239   3.209  10.081  0.7279  0.2850  0.2344
  542TIP3    H123041   1.144   3.212  10.085  0.7247 -1.0178  1.6247
  542TIP3    H223042   1.259   3.188   9.990 -0.3636 -0.8664  0.2485
  543TIP3   OH223043   3.038   0.919  10.289 -0.5838  0.3681  0.6438
  543TIP3    H123044   3.016   0.826  10.296  0.9297  0.0082  0.8226
  543TIP3    H223045   2.954   0.965  10.299 -1.7268 -1.0534 -1.8365
  544TIP3   OH223046   4.423   2.583  11.716 -0.2113  0.1810  0.4723
  544TIP3    H123047   4.451   2.493  11.697 -0.0260 -0.1176  2.0894
  544TIP3    H223048   4.334   2.588  11.683 -0.4330 -0.7882  0.8972
  545TIP3   OH223049   1.344   6.546  14.256  0.0661  0.2808 -0.0405
  545TIP3    H123050   1.373   6.551  14.165 -0.9044  2.0189 -0.2635
  545TIP3    H223051   1.251   6.568  14.253 -0.1236 -0.2993  1.2946
  546TIP3   OH223052   1.309   1.345   9.966  0.3543 -0.6639 -0.1824
  546TIP3    H123053   1.304   1.433   9.928  1.3861 -0.9541 -1.0061
  546TIP3    H223054   1.264   1.353  10.050 -0.3476  0.4338 -0.6431
  547TIP3   OH223055   0.103   6.745  12.890 -0.1329 -0.7478  0.0041
  547TIP3    H123056   0.170   6.742  12.822  0.1257 -2.8464  0.2926
  547TIP3    H223057   0.079   6.837  12.897  2.1442 -0.0807 -0.6664
  548TIP3   OH223058   2.968   4.164  13.177  0.3838 -0.3097 -0.5016
  548TIP3    H123059   3.006   4.175  13.265  1.6333  0.1560 -1.0865
  548TIP3    H223060   2.874   4.170  13.191  0.4603 -2.3920  1.1180
  549TIP3   OH223061   2.892   2.253  10.514 -0.3327 -0.1767 -0.2470
  549TIP3    H123062   2.830   2.268  10.585  0.2539 -0.0853  0.2439
  549TIP3    H223063   2.886   2.331  10.459 -0.0386  0.2002  0.2560
  550TIP3   OH223064   1.534   1.890  10.755  0.3052 -0.4847  0.4775
  550TIP3    H123065   1.505   1.863  10.668  0.9066 -0.9480  0.4142
  550TIP3    H223066   1.465   1.860  10.814  0.8583 -1.9848  0.3792
  551TIP3   OH223067   0.884   0.007   9.470  0.1838 -0.2563  0.1904
  551TIP3    H123068   0.868   0.078   9.408 -0.6633 -0.5270  0.0954
  551TIP3    H223069   0.928   0.049   9.544  0.4104  0.2208 -0.2086
  552TIP3   OH223070   1.324   0.314  10.404 -0.3812  0.2702 -0.7207
  552TIP3    H123071   1.418   0.324  10.393  0.2225 -2.8283  1.0680
  552TIP3    H223072   1.304   0.230  10.362 -1.7772 -0.6393  1.6539
  553TIP3   OH223073   0.167   0.556  14.264  0.1846 -0.5364 -0.1917
  553TIP3    H123074   0.182   0.547  14.170  0.3507 -1.1897 -0.1011
  553TIP3    H223075   0.183   0.469  14.300  0.7559 -0.1400  0.5337
  554TIP3   OH223076   6.943   4.257  11.665 -0.0641  0.2241  0.0074
  554TIP3    H123077   7.017   4.251  11.725  1.7160  0.4365 -2.0727
  554TIP3    H223078   6.889   4.328  11.699  1.7633  1.4348  0.4422
  555TIP3   OH223079   0.794   3.401  11.342 -0.2681 -0.1903  0.2486
  555TIP3    H123080   0.705   3.419  11.313 -0.5994  0.7038  1.7599
  555TIP3    H223081   0.849   3.460  11.291 -0.8294  1.2488  1.2695
  556TIP3   OH223082   6.830   2.048  11.383  0.7363 -0.0483 -0.0681
  556TIP3    H123083   6.767   1.977  11.367  0.3303 -0.0623  1.5158
  556TIP3    H223084   6.823   2.066  11.477  1.0489  1.8967 -0.3884
  557TIP3   OH223085   1.670   1.735  13.200  0.2149  0.1811 -0.4330
  557TIP3    H123086   1.734   1.721  13.270 -0.9955  0.2127  0.6824
  557TIP3    H223087   1.700   1.677  13.129  0.0574 -1.7384  1.0121
  558TIP3   OH223088   3.669   2.724  11.104  0.2664  0.1114 -0.2884
  558TIP3    H123089   3.626   2.735  11.018  0.7161 -1.2059 -0.6996
  558TIP3    H223090   3.684   2.630  11.110  3.7584  0.5931 -0.4648
  559TIP3   OH223091   0.334   1.498   9.668 -0.0457  0.2776 -0.5161
  559TIP3    H123092   0.253   1.537   9.703 -0.6017 -1.4312  0.1255
  559TIP3    H223093   0.374   1.453   9.742  1.1088  0.4540 -1.0180
  560TIP3   OH223094   2.709   2.018  10.934  0.3991  0.1604 -0.3125
  560TIP3    H123095   2.745   1.971  11.010 -1.3234 -1.5458 -0.5215
  560TIP3    H223096   2.629   2.058  10.967  1.1828  1.9607 -0.4855
  561TIP3   OH223097   4.669   0.672  11.266  0.0425 -0.1089  0.0476
  561TIP3    H123098   4.753   0.625  11.269  0.7957  1.3100  3.4695
  561TIP3    H223099   4.603   0.602  11.270  1.0894 -1.1026  0.4244
  562TIP3   OH223100   2.007   1.832  14.466  0.2367  0.0922 -0.0768
  562TIP3    H123101   1.949   1.894  14.422  0.3500  0.3042  0.0710
  562TIP3    H223102   2.027   1.766  14.400  0.3183  0.3500 -0.3097
  563TIP3   OH223103   6.146   4.127  10.982  0.0093  0.1678 -0.3714
  563TIP3    H123104   6.059   4.166  10.978 -1.0225 -2.1850 -1.6480
  563TIP3    H223105   6.201   4.186  10.930 -1.4830  0.0515 -2.1172
  564TIP3   OH223106   4.728   2.534  14.184  0.2223 -0.2316 -0.1520
  564TIP3    H123107   4.722   2.458  14.126  2.2657 -0.0943 -0.5798
  564TIP3    H223108   4.740   2.496  14.272 -0.0183 -0.4250 -0.2033
  565TIP3   OH223109   5.614   6.642  12.921  0.0670  0.3701 -0.3786
  565TIP3    H123110   5.703   6.649  12.956  0.1277 -3.7850  0.5837
  565TIP3    H223111   5.558   6.639  12.999 -0.3426 -2.6950 -0.7039
  566TIP3   OH223112   0.504   4.920   9.951 -0.0524 -0.3842 -0.4338
  566TIP3    H123113   0.518   4.835   9.909 -0.2526  0.2239 -1.7552
  566TIP3    H223114   0.447   4.967   9.891  1.7047  1.4428 -0.7113
  567TIP3   OH223115   6.625   0.680  11.495 -0.4088  0.2476  0.3065
  567TIP3    H123116   6.562   0.714  11.432 -1.1673  0.5659  1.2359
  567TIP3    H223117   6.643   0.590  11.465 -0.2758  0.6157 -0.7201
  568TIP3   OH223118   0.912   2.161   9.737 -0.3147 -0.5981  0.8280
  568TIP3    H123119   0.922   2.066   9.725 -2.8234 -0.9158  1.0213
  568TIP3    H223120   0.832   2.182   9.688 -0.2511  1.2669  1.5154
  569TIP3   OH223121   1.995   7.098  10.619 -0.1675 -0.0623  0.1821
  569TIP3    H123122   2.036   7.108  10.533 -0.9617 -3.0484 -0.6001
  569TIP3    H223123   1.908   7.137  10.608  0.3025  0.9600  0.0872
  570TIP3   OH223124   1.360   0.961  10.604  0.1457 -0.2629 -0.0772
  570TIP3    H123125   1.328   0.878  10.569  2.3065 -0.1802 -2.3990
  570TIP3    H223126   1.298   1.026  10.571 -0.2662 -0.6932 -0.1641
  571TIP3   OH223127   1.045   0.368  10.594 -0.0580 -0.2391 -0.3662
  571TIP3    H123128   1.051   0.394  10.502  0.4787 -0.8380 -0.5007
  571TIP3    H223129   1.130   0.389  10.630 -0.5166  0.7045  0.1868
  572TIP3   OH223130   0.775   3.694  11.402  0.1630 -0.0759 -0.6008
  572TIP3    H123131   0.834   3.624  11.375  0.9178  0.3297  0.0094
  572TIP3    H223132   0.825   3.775  11.387 -0.8734  0.3743 -1.7640
  573TIP3   OH223133   6.645   5.275  12.729 -0.4493 -0.4462  0.7682
  573TIP3    H123134   6.737   5.295  12.709 -0.8336 -1.0195 -1.6492
  573TIP3    H223135   6.620   5.342  12.793  1.4463  0.1180  0.9737
  574TIP3   OH223136   4.120   1.461  11.780  0.4424 -0.3580  0.5713
  574TIP3    H123137   4.038   1.472  11.732  0.0571 -1.7341  0.8851
  574TIP3    H223138   4.094   1.413  11.860  1.6149 -1.2486  0.4248
  575TIP3   OH223139   6.684   5.443  13.016  0.4299 -0.0972  0.0321
  575TIP3    H123140   6.620   5.481  12.956  1.0574  0.7659 -0.0919
  575TIP3    H223141   6.631   5.400  13.084 -0.2878  1.2218  0.3284
  576TIP3   OH223142   3.693   4.719  10.398 -0.0057  0.8157  0.3353
  576TIP3    H123143   3.775   4.671  10.384 -0.0690  0.0907  2.3377
  576TIP3    H223144   3.640   4.661  10.452 -1.2297  1.9616  0.3798
  577TIP3   OH223145   1.668   3.790  11.900 -0.2402  0.1034 -0.3521
  577TIP3    H123146   1.692   3.873  11.858 -0.3685  0.3558  0.0736
  577TIP3    H223147   1.749   3.758  11.938 -0.3946  0.5250  0.3370
  578TIP3   OH223148   2.068   0.507  13.183  0.0586 -0.4862 -0.4489
  578TIP3    H123149   1.977   0.517  13.208 -0.4273 -2.3119 -1.3643
  578TIP3    H223150   2.118   0.540  13.258 -1.3451 -1.6292  1.0240
  579TIP3   OH223151   0.691   6.829  13.387 -0.1538 -0.0712  0.2082
  579TIP3    H123152   0.769   6.842  13.333 -0.6772 -1.6592 -0.9655
  579TIP3    H223153   0.622   6.876  13.340 -0.2058  0.1560  0.5110
  580TIP3   OH223154   2.021   1.783  10.188 -0.4928  0.3865 -0.3704
  580TIP3    H123155   2.083   1.765  10.117  0.5478  1.5127  0.2270
  580TIP3    H223156   2.065   1.752  10.267 -1.1053  0.3022 -0.0601
  581TIP3   OH223157   0.966   3.214  10.073  0.0098  0.4743 -0.7385
  581TIP3    H123158   0.954   3.260  10.156  0.1685  1.1298 -1.0759
  581TIP3    H223159   0.925   3.270  10.008 -1.3100 -0.6882 -0.9392
  582TIP3   OH223160   2.168   2.159  10.001 -0.6152 -0.1210  0.5078
  582TIP3    H123161   2.210   2.099  10.063 -1.2356 -0.1757  0.8739
  582TIP3    H223162   2.186   2.121   9.915  0.8972  0.3515  0.5891
  583TIP3   OH223163   0.568   6.826  12.927 -0.0949  0.2243  0.0098
  583TIP3    H123164   0.650   6.779  12.943 -0.2334  0.3057  1.0224
  583TIP3    H223165   0.573   6.903  12.985 -1.9270 -1.0249  1.8867
  584TIP3   OH223166   6.313   0.509   9.711  0.7925 -0.2916  0.3671
  584TIP3    H123167   6.296   0.506   9.617  2.3669 -0.1928  0.0770
  584TIP3    H223168   6.301   0.419   9.740  1.3430 -0.5199 -0.1087
  585TIP3   OH223169   0.345   0.360  12.377 -0.0884  0.8438 -0.2447
  585TIP3    H123170   0.313   0.324  12.295 -0.0676 -0.7384  0.4065
  585TIP3    H223171   0.412   0.423  12.352  0.0838  0.1927 -1.4353
  586TIP3   OH223172   2.380   4.288  11.331 -0.0101 -0.2650 -0.0042
  586TIP3    H123173   2.330   4.276  11.412  0.8184  0.8487  0.6922
  586TIP3    H223174   2.376   4.203  11.287 -0.3001 -0.9405  1.3104
  587TIP3   OH223175   0.613   0.183   9.644 -0.3215 -0.3016 -0.3033
  587TIP3    H123176   0.637   0.093   9.623 -0.7139 -0.5090  0.1340
  587TIP3    H223177   0.553   0.175   9.719 -2.1638  0.1559 -1.6906
  588TIP3   OH223178   4.175   0.424  13.112 -0.6012 -0.0621 -0.4314
  588TIP3    H123179   4.192   0.370  13.189 -0.9016 -1.8506 -1.6089
  588TIP3    H223180   4.081   0.440  13.114 -0.4300  0.9736  0.2448
  589TIP3   OH223181   5.806   4.208  10.310  0.3890  0.3882  0.0365
  589TIP3    H123182   5.723   4.215  10.263 -0.6814 -0.1413  1.7793
  589TIP3    H223183   5.830   4.298  10.331 -1.5020  0.4044  2.4178
  590TIP3   OH223184   5.463   7.075  10.996 -0.5484  0.1114  0.1390
  590TIP3    H123185   5.522   7.037  11.061  2.2000  1.9141 -1.2473
  590TIP3    H223186   5.431   7.000  10.946 -0.0432 -0.9530  1.3754
  591TIP3   OH223187   0.881   5.737  11.489 -0.1947 -0.0169  0.7014
  591TIP3    H123188   0.786   5.733  11.495 -0.1889  0.5076  1.2752
  591TIP3    H223189   0.907   5.654  11.449 -0.9601  0.2428 -0.3477
  592TIP3   OH223190   6.338   5.624  10.076  0.1021 -0.2235  0.7139
  592TIP3    H123191   6.412   5.564  10.066 -0.1140 -0.2967 -0.6097
  592TIP3    H223192   6.267   5.568  10.110  0.1952 -0.4985  0.4591
  593TIP3   OH223193   3.779   2.325  10.343 -0.2480  0.4045 -0.1044
  593TIP3    H123194   3.747   2.262  10.407  0.5871 -0.3409 -0.4029
  593TIP3    H223195   3.858   2.362  10.382  0.0248  0.2624 -0.5112
  594TIP3   OH223196   1.015   0.787  11.216 -0.5729  0.2119  0.5100
  594TIP3    H123197   0.961   0.776  11.138  0.5389 -1.7684 -0.0166
  594TIP3    H223198   1.028   0.881  11.224 -2.2482  0.5488 -0.6190
  595TIP3   OH223199   1.024   1.900  11.599  0.3947 -0.1117  0.5029
  595TIP3    H123200   1.076   1.971  11.635  0.3587  0.4221 -0.4734
  595TIP3    H223201   1.009   1.925  11.508 -1.4428 -0.3243  0.7290
  596TIP3   OH223202   2.914   5.682  14.260 -0.1025  0.6274  0.0909
  596TIP3    H123203   2.969   5.622  14.209 -0.9841  0.8304 -1.1324
  596TIP3    H223204   2.862   5.728  14.194 -0.8171  1.3577  1.1506
  597TIP3   OH223205   1.401   5.503  10.189  0.0709  0.0858 -0.5518
  597TIP3    H123206   1.485   5.515  10.233 -0.3175 -2.4036  0.9815
  597TIP3    H223207   1.424   5.483  10.098  1.3720 -3.5653  0.4693
  598TIP3   OH223208   2.323   2.979  14.023  0.1870  0.0729 -0.4500
  598TIP3    H123209   2.262   2.916  14.062 -1.9784  2.0244 -0.6310
  598TIP3    H223210   2.358   3.027  14.098  0.4160 -0.0641 -0.4677
  599TIP3   OH223211   2.200   1.808  11.662 -0.2698  0.1179  0.3510
  599TIP3    H123212   2.277   1.788  11.716 -0.0210 -0.2504 -0.1274
  599TIP3    H223213   2.190   1.731  11.605  0.7350  1.3456 -1.5575
  600TIP3   OH223214   3.217   6.149  10.307  0.1879 -0.5395  0.2534
  600TIP3    H123215   3.124   6.153  10.329  0.4026 -0.1416  1.1300
  600TIP3    H223216   3.250   6.237  10.328  0.5735 -0.3979 -0.9192
  601TIP3   OH223217   3.707   1.011  13.378 -0.0354 -0.4120 -0.0783
  601TIP3    H123218   3.637   1.014  13.443 -0.4349  0.6565 -0.5544
  601TIP3    H223219   3.666   1.041  13.297  1.4118  1.9654  0.0372
  602TIP3   OH223220   2.984   0.622  10.307  0.0485 -0.3078 -0.8619
  602TIP3    H123221   2.945   0.542  10.343 -0.1127  0.4220  0.6206
  602TIP3    H223222   3.078   0.603  10.303  0.0332 -0.5020 -0.3388
  603TIP3   OH223223   4.211   3.870  10.391  0.2980  0.1936  0.3457
  603TIP3    H123224   4.262   3.908  10.320 -2.5050  2.0323 -0.7544
  603TIP3    H223225   4.176   3.789  10.354  0.9738 -0.1795  0.5178
  604TIP3   OH223226   7.061   2.514   9.715 -0.1348  0.1857  0.2015
  604TIP3    H123227   7.136   2.554   9.758 -0.5570 -0.0041  1.1307
  604TIP3    H223228   7.091   2.427   9.690  0.6062  0.8496 -1.3176
  605TIP3   OH223229   4.291   2.467  11.150 -0.8406 -0.4991  0.1251
  605TIP3    H123230   4.242   2.404  11.097  0.5360 -0.8270 -0.8060
  605TIP3    H223231   4.317   2.417  11.228 -1.1648 -0.6012  0.1684
  606TIP3   OH223232   3.931   2.768  14.139  0.1640  0.1279 -0.0500
  606TIP3    H123233   4.017   2.757  14.179 -0.0164 -1.4604 -0.0800
  606TIP3    H223234   3.948   2.766  14.045 -0.1537 -2.5377 -0.0904
  607TIP3   OH223235   2.404   1.440  10.772  0.3216  0.0640  0.4182
  607TIP3    H123236   2.426   1.481  10.688 -0.3745  0.6662  0.5328
  607TIP3    H223237   2.423   1.347  10.758  1.2796  0.3198 -0.0484
  608TIP3   OH223238   2.401   6.045  11.147  0.2815  0.5210  0.2951
  608TIP3    H123239   2.445   6.116  11.194  0.1213 -0.2657  1.6511
  608TIP3    H223240   2.311   6.047  11.178 -0.0034  0.4417 -0.5119
  609TIP3   OH223241   4.012   2.011  13.628  0.7860  0.5436 -0.4385
  609TIP3    H123242   4.030   1.919  13.613  0.4798  0.5322 -0.7543
  609TIP3    H223243   3.997   2.018  13.722  0.1454  0.1488 -0.5049
  610TIP3   OH223244   2.596   5.793  12.159 -0.2066 -0.2467  1.0237
  610TIP3    H123245   2.520   5.758  12.112 -0.7266 -0.1586  1.7829
  610TIP3    H223246   2.618   5.725  12.222 -0.6463  0.4061  1.8828
  611TIP3   OH223247   5.962   5.888  10.818  0.0326  0.0818  0.3714
  611TIP3    H123248   6.056   5.874  10.832  0.5395  1.7953 -1.1340
  611TIP3    H223249   5.953   5.889  10.722 -2.0058 -3.0619  0.4436
  612TIP3   OH223250   2.762   1.472  12.671  0.1697 -0.3629  0.1334
  612TIP3    H123251   2.840   1.428  12.705  0.0155 -0.6229  0.1471
  612TIP3    H223252   2.764   1.454  12.577  1.1080  1.1394 -0.1524
  613TIP3   OH223253   2.355   7.081  10.735  0.2262  0.1022 -0.3264
  613TIP3    H123254   2.345   7.045  10.823  1.6868  0.9719  0.2089
  613TIP3    H223255   2.321   7.013  10.677 -1.4842 -0.1550  0.9439
  614TIP3   OH223256   2.999   1.104  11.032  0.1532 -0.2505 -0.0784
  614TIP3    H123257   2.970   1.174  11.090 -0.3951 -0.3548 -0.2283
  614TIP3    H223258   2.936   1.104  10.960  1.7774  0.9918 -1.5488
  615TIP3   OH223259   0.467   4.239  13.019  0.0268 -0.2279  0.5070
  615TIP3    H123260   0.530   4.223  12.949 -1.4043 -1.4884 -0.5282
  615TIP3    H223261   0.444   4.332  13.010  2.8442  0.6500  1.8738
  616TIP3   OH223262   5.595   1.570  11.508 -0.2522  1.0585  0.1461
  616TIP3    H123263   5.618   1.657  11.542  1.6934  1.0670 -1.1223
  616TIP3    H223264   5.590   1.582  11.413 -1.0438  0.0151  0.0474
  617TIP3   OH223265   0.650   0.465  13.899 -0.5233 -0.3894 -0.5720
  617TIP3    H123266   0.652   0.431  13.810 -2.8142  0.4867 -0.9986
  617TIP3    H223267   0.577   0.528  13.899  0.1608  0.4525  1.6174
  618TIP3   OH223268   4.886   2.091  15.040 -0.0512 -0.5181 -0.0820
  618TIP3    H123269   4.890   1.996  15.052  1.3322 -0.7759 -2.2794
  618TIP3    H223270   4.952   2.125  15.100 -0.2165 -0.9754  0.3678
  619TIP3   OH223271   1.535   2.855  10.587 -0.6640 -0.1750  0.4199
  619TIP3    H123272   1.522   2.836  10.494 -2.8851  1.7925  0.2848
  619TIP3    H223273   1.504   2.776  10.632  1.1261 -1.4391 -0.4830
  620TIP3   OH223274   4.341   2.552  15.079  0.1560  0.0551 -0.3061
  620TIP3    H123275   4.384   2.571  14.995  0.3741  0.2399 -0.1518
  620TIP3    H223276   4.265   2.610  15.079 -1.0447 -1.4873 -1.3439
  621TIP3   OH223277   1.740   1.873  10.332  0.4269  0.7690 -0.1649
  621TIP3    H123278   1.653   1.843  10.357  0.8037 -0.2144  0.0032
  621TIP3    H223279   1.800   1.813  10.378  1.1857  1.3300 -0.4084
  622TIP3   OH223280   1.068   5.487  10.843  0.1413 -0.0083  0.2659
  622TIP3    H123281   1.078   5.536  10.925  0.1766 -0.3101  0.4443
  622TIP3    H223282   1.125   5.532  10.781  2.5478 -1.6232  1.2244
  623TIP3   OH223283   2.935   6.524  10.036  0.4042 -0.0645  0.4256
  623TIP3    H123284   2.855   6.471  10.033  0.2271  0.2157  0.0703
  623TIP3    H223285   2.907   6.607  10.075  0.4103  0.2186 -0.1597
  624TIP3   OH223286   2.316   5.537  11.003  0.3818 -0.3719  0.3929
  624TIP3    H123287   2.270   5.617  11.029 -0.8365 -0.5527 -1.1435
  624TIP3    H223288   2.351   5.557  10.916  0.0315 -1.5135 -0.0221
  625TIP3   OH223289   0.219   2.046  11.243  0.0503  0.5205  0.0229
  625TIP3    H123290   0.154   2.059  11.175 -1.2077  0.3232  1.1761
  625TIP3    H223291   0.201   2.115  11.307  1.1142  0.6014  0.2502
  626TIP3   OH223292   6.284   1.473  11.484  0.0422 -0.1030 -0.1186
  626TIP3    H123293   6.265   1.385  11.451 -1.1865  1.2692 -3.3842
  626TIP3    H223294   6.376   1.487  11.461  0.2804 -0.5799  0.5341
  627TIP3   OH223295   4.739   6.783  12.661  0.1800 -0.4289 -0.1439
  627TIP3    H123296   4.754   6.691  12.681 -0.3857 -0.2696  1.0918
  627TIP3    H223297   4.824   6.816  12.631  0.9067 -0.8504  1.4247
  628TIP3   OH223298   0.777   4.335  13.795  0.6812 -0.3322  0.2511
  628TIP3    H123299   0.732   4.276  13.855 -0.2410 -0.6900 -0.7862
  628TIP3    H223300   0.709   4.366  13.735  1.1810  1.6583  0.6700
  629TIP3   OH223301   6.036   0.122  11.255  0.0438 -0.2104  0.1279
  629TIP3    H123302   5.994   0.181  11.317  0.1311 -0.5132  0.4850
  629TIP3    H223303   6.102   0.076  11.308  0.4977 -0.0692 -0.3211
  630TIP3   OH223304   3.698   2.213  11.009 -0.1962 -0.4827  0.3416
  630TIP3    H123305   3.701   2.287  10.949 -0.1630 -0.2294  0.6572
  630TIP3    H223306   3.607   2.184  11.008 -0.0059 -1.0825 -0.5653
  631TIP3   OH223307   2.269   1.950  10.157 -0.3031 -0.4119  0.0735
  631TIP3    H123308   2.362   1.965  10.139 -0.4002  0.4110  0.2017
  631TIP3    H223309   2.250   1.865  10.118 -0.1773  0.6765 -2.4618
  632TIP3   OH223310   1.785   1.184  10.494 -0.3292  0.6627  0.3157
  632TIP3    H123311   1.853   1.237  10.453 -0.2079  0.7667  0.6486
  632TIP3    H223312   1.715   1.245  10.513 -0.4816  0.5718  0.0566
  633TIP3   OH223313   2.325   4.562  11.467  0.6266  0.3198  0.0243
  633TIP3    H123314   2.323   4.635  11.405  1.5593  0.4295  0.1150
  633TIP3    H223315   2.418   4.548  11.484  0.3682  0.3774  1.5045
  634TIP3   OH223316   1.160   3.801  13.616  0.4023 -0.0084  0.1504
  634TIP3    H123317   1.131   3.710  13.606  0.2562 -0.0236  0.6883
  634TIP3    H223318   1.250   3.794  13.649  0.9036  0.0414 -1.1415
  635TIP3   OH223319   3.518   5.153  11.091 -0.0951 -0.1698  0.4567
  635TIP3    H123320   3.499   5.077  11.145  0.3002  0.1056  0.9988
  635TIP3    H223321   3.433   5.180  11.056  0.0600 -2.1640 -1.5273
  636TIP3   OH223322   4.863   2.507   9.678  0.1622  0.0116  0.4556
  636TIP3    H123323   4.937   2.526   9.736  0.9466 -2.1393  0.2295
  636TIP3    H223324   4.901   2.456   9.607 -1.2533  0.3415 -0.5583
  637TIP3   OH223325   6.087   5.060  11.269 -0.1509  0.3403  0.3723
  637TIP3    H123326   6.173   5.039  11.306 -0.2856 -0.8885  0.0111
  637TIP3    H223327   6.037   5.095  11.343  0.3979  0.3083  0.7634
  638TIP3   OH223328   5.014   6.211  10.865  0.0328 -0.6104  0.0823
  638TIP3    H123329   5.018   6.115  10.860  0.3685 -0.6892  1.6061
  638TIP3    H223330   4.958   6.229  10.940 -1.6815  0.4235 -1.3970
  639TIP3   OH223331   2.465   4.931  11.817  0.0603  0.5899  0.1093
  639TIP3    H123332   2.435   5.022  11.818  0.5068  0.7405  1.9600
  639TIP3    H223333   2.543   4.931  11.872  0.0417 -0.9333  0.1606
  640TIP3   OH223334   3.268   1.495  11.426 -0.2329  0.3051 -0.3484
  640TIP3    H123335   3.193   1.462  11.377 -0.2412 -0.2930  0.0564
  640TIP3    H223336   3.320   1.417  11.445  1.6082  0.9946 -2.4764
  641TIP3   OH223337   4.018   0.679  10.720  1.1383 -0.2635  0.5304
  641TIP3    H123338   4.066   0.729  10.786  1.4051  0.2671 -0.0656
  641TIP3    H223339   4.053   0.590  10.727 -1.1557 -1.0290  3.4100
  642TIP3   OH223340   4.578   0.197  11.455 -0.4186 -0.6979  0.1493
  642TIP3    H123341   4.660   0.158  11.486 -0.4304  0.1303  1.2861
  642TIP3    H223342   4.567   0.165  11.366 -0.1213 -2.8004  0.8359
  643TIP3   OH223343   2.346   1.939  11.028  0.5845 -0.3550 -0.0025
  643TIP3    H123344   2.344   2.033  11.008 -0.0435 -0.8992 -2.7504
  643TIP3    H223345   2.256   1.918  11.053  0.8118 -0.1684  0.9991
  644TIP3   OH223346   6.490   5.134  13.645  0.5371 -0.0836 -0.1022
  644TIP3    H123347   6.517   5.095  13.728 -0.3634 -2.2935 -0.8195
  644TIP3    H223348   6.469   5.060  13.589 -1.7984  1.4336 -1.3405
  645TIP3   OH223349   6.505   3.074  13.327  0.8759  0.1779  0.5064
  645TIP3    H123350   6.527   3.159  13.289 -1.6446  0.5715 -0.1555
  645TIP3    H223351   6.528   3.011  13.258  0.9605  0.4729  0.2627
  646TIP3   OH223352   7.060   2.254   9.466  0.3963 -0.4832  0.0571
  646TIP3    H123353   7.029   2.164   9.459  0.2306 -0.4801  0.7106
  646TIP3    H223354   7.112   2.256   9.547  0.2401  0.0519  0.1489
  647TIP3   OH223355   0.276   2.435  11.265  0.6799 -0.4831  0.0667
  647TIP3    H123356   0.215   2.362  11.271  0.7187 -0.7777 -2.7442
  647TIP3    H223357   0.248   2.484  11.188  1.8364  1.3864  0.7865
  648TIP3   OH223358   3.026   3.066  12.254 -0.5148  0.3917  0.2096
  648TIP3    H123359   3.118   3.040  12.261 -0.3480  0.6470 -0.9452
  648TIP3    H223360   2.977   2.986  12.276 -0.0229  0.0465  0.0539
  649TIP3   OH223361   1.013   2.875  12.948  0.5051 -0.4284 -0.0218
  649TIP3    H123362   1.072   2.934  12.995  0.3995 -1.8403  1.9545
  649TIP3    H223363   0.952   2.844  13.015  0.3905 -2.5563 -1.0794
  650TIP3   OH223364   5.903   0.918  12.526 -0.0197 -0.8057  0.8993
  650TIP3    H123365   5.964   0.855  12.489 -1.1702 -1.4274  0.0372
  650TIP3    H223366   5.871   0.968  12.450  0.6016  0.5831  1.5232
  651TIP3   OH223367   0.208   1.013  10.625  0.3571  0.3247 -0.2451
  651TIP3    H123368   0.157   0.994  10.703 -1.4268 -1.0165 -1.6929
  651TIP3    H223369   0.189   1.105  10.605 -0.6389  0.1482 -0.1293
  652TIP3   OH223370   1.323   6.706  10.074  0.9752 -0.0343  0.2670
  652TIP3    H123371   1.294   6.776  10.133  2.3534 -0.1731  1.1328
  652TIP3    H223372   1.418   6.701  10.087  0.9818 -1.6474 -0.2380
  653TIP3   OH223373   4.693   5.359  10.463 -0.0547 -0.3931 -0.5116
  653TIP3    H123374   4.608   5.344  10.421 -0.1648  0.8386 -0.7493
  653TIP3    H223375   4.680   5.436  10.517  1.0490  0.1238 -0.9601
  654TIP3   OH223376   4.964   6.726  13.139 -0.3380  0.4012  0.0472
  654TIP3    H123377   4.970   6.776  13.057  2.7797 -1.1305 -0.7436
  654TIP3    H223378   4.956   6.635  13.111  1.1586 -0.1692  1.4093
  655TIP3   OH223379   6.338   2.963  10.404  0.4021 -0.5052  0.1923
  655TIP3    H123380   6.413   2.932  10.353  0.9985 -0.1617  0.8514
  655TIP3    H223381   6.367   3.047  10.439 -0.1916 -0.5056  0.6826
  656TIP3   OH223382   1.549   3.711  10.465 -0.5823  0.2000  0.2962
  656TIP3    H123383   1.542   3.764  10.385 -1.0084 -0.1010  0.1343
  656TIP3    H223384   1.644   3.700  10.478 -0.5260 -1.4265 -1.2706
  657TIP3   OH223385   6.652   2.810  11.651 -0.1114  0.0720 -0.2897
  657TIP3    H123386   6.671   2.772  11.737 -0.1372 -2.1560 -1.2324
  657TIP3    H223387   6.573   2.863  11.666 -0.9551 -1.4377  0.7801
  658TIP3   OH223388   3.539   3.375  12.185  0.1142 -0.1430 -0.2190
  658TIP3    H123389   3.562   3.296  12.136  0.4072  1.3654 -2.6106
  658TIP3    H223390   3.443   3.376  12.184  0.0453 -1.6668  1.8678
  659TIP3   OH223391   5.865   4.864  11.737 -0.1969  0.1923 -0.0464
  659TIP3    H123392   5.932   4.808  11.775  1.0879  2.6877  1.4800
  659TIP3    H223393   5.845   4.928  11.805 -1.3515  1.8234 -1.8542
  660TIP3   OH223394   1.308   5.885  11.422 -0.0343 -0.2366  0.6063
  660TIP3    H123395   1.238   5.932  11.467  0.9391  0.5015  1.3892
  660TIP3    H223396   1.369   5.862  11.491 -0.0527 -1.8673  0.0883
  661TIP3   OH223397   2.757   1.117  10.909 -0.4840  0.4809 -0.4095
  661TIP3    H123398   2.717   1.150  10.829 -0.5909  2.0755  0.2825
  661TIP3    H223399   2.716   1.168  10.979 -2.3878 -2.7615  0.9258
  662TIP3   OH223400   2.644   4.895  13.224 -0.2405 -0.4146 -0.1515
  662TIP3    H123401   2.703   4.971  13.230  0.0511 -0.6747  0.3032
  662TIP3    H223402   2.573   4.915  13.285 -0.8801  0.1200 -1.0547
  663TIP3   OH223403   7.059   6.271  14.673 -0.4720 -0.0888 -0.1989
  663TIP3    H123404   7.057   6.212  14.597 -2.1730  2.1734 -2.0043
  663TIP3    H223405   7.095   6.353  14.638  2.1775 -0.1245  2.3252
  664TIP3   OH223406   4.649   2.558  14.870  0.6239 -0.2484 -0.4618
  664TIP3    H123407   4.627   2.475  14.828 -2.2829  0.3370 -0.1867
  664TIP3    H223408   4.708   2.601  14.809 -2.1385 -0.1655 -3.1983
  665TIP3   OH223409   0.711   1.177  10.966 -0.0075  0.2462  0.4256
  665TIP3    H123410   0.766   1.208  11.038 -1.2395  1.0849  1.0308
  665TIP3    H223411   0.622   1.203  10.992 -0.5637 -0.2413 -0.9807
  666TIP3   OH223412   5.411   5.279  13.762  0.0971  0.0290 -0.0261
  666TIP3    H123413   5.487   5.229  13.733 -0.4473  1.4078 -4.1774
  666TIP3    H223414   5.344   5.213  13.780  1.2052 -1.0207  0.3060
  667TIP3   OH223415   1.346   0.898  11.012  0.0528  0.2550  0.1598
  667TIP3    H123416   1.256   0.931  11.016 -0.4168 -0.5881 -2.2267
  667TIP3    H223417   1.337   0.803  11.024  0.5487  0.1046 -0.6391
  668TIP3   OH223418   0.107   2.485  10.431 -0.3871  0.2805 -0.2813
  668TIP3    H123419   0.071   2.573  10.437  0.9634  0.7882  0.6265
  668TIP3    H223420   0.073   2.440  10.509  3.0430  1.5906  2.1098
  669TIP3   OH223421   3.641   1.879   0.721 -0.2829  0.4968  0.9490
  669TIP3    H123422   3.567   1.939   0.724 -1.2774 -0.6744  0.2911
  669TIP3    H223423   3.691   1.907   0.644 -0.6518  0.5889  0.7399
  670TIP3   OH223424   4.156   6.639  11.659  0.3457  0.1061 -0.5005
  670TIP3    H123425   4.173   6.732  11.646  1.2918  0.0375  0.1394
  670TIP3    H223426   4.241   6.603  11.684 -0.5004 -0.5096  1.5982
  671TIP3   OH223427   3.935   1.425  10.486  0.8594  0.3667 -0.1790
  671TIP3    H123428   3.976   1.386  10.563  1.2969  0.9275 -0.1263
  671TIP3    H223429   3.857   1.371  10.471  1.0380 -0.0484  0.3563
  672TIP3   OH223430   5.714   1.424  12.026  0.3633  0.6294  0.3943
  672TIP3    H123431   5.649   1.438  11.957  3.0394 -1.0748 -2.5778
  672TIP3    H223432   5.669   1.371  12.091 -1.0540 -1.0594 -1.9186
  673TIP3   OH223433   2.826   1.755  14.384 -0.1018 -0.1404 -0.1504
  673TIP3    H123434   2.753   1.752  14.322 -0.1262  0.0222 -0.1309
  673TIP3    H223435   2.802   1.693  14.452 -1.0583  1.2209  0.7620
  674TIP3   OH223436   2.956   6.215   0.671  0.1132  0.0472 -0.1823
  674TIP3    H123437   2.901   6.158   0.725  0.3564 -0.6676 -0.6843
  674TIP3    H223438   3.045   6.190   0.694  0.2414  1.2594  0.6874
  675TIP3   OH223439   2.407   3.921  11.939  0.3122  0.0590  0.7332
  675TIP3    H123440   2.482   3.980  11.930  0.6528 -0.5746 -0.8946
  675TIP3    H223441   2.443   3.842  11.979  1.3158 -1.5934 -3.2123
  676TIP3   OH223442   1.702   0.930  12.401 -0.1141  0.1339 -0.7271
  676TIP3    H123443   1.789   0.956  12.370  0.7016 -2.4401 -0.7331
  676TIP3    H223444   1.696   0.969  12.488  1.5866 -0.6708 -0.2087
  677TIP3   OH223445   0.014   0.654  11.366 -0.0728 -0.7029 -0.2321
  677TIP3    H123446  -0.042   0.584  11.398 -0.7173  0.3258  0.9508
  677TIP3    H223447  -0.032   0.689  11.290 -0.7863 -0.2126  0.4172
  678TIP3   OH223448   4.773   3.665  10.464  0.0366  0.1950  0.7229
  678TIP3    H123449   4.847   3.708  10.507 -0.6500  1.5305  0.5768
  678TIP3    H223450   4.714   3.736  10.441 -1.1742 -0.8403  0.5885
  679TIP3   OH223451   5.680   1.151  12.806  0.0361  0.0543  1.1443
  679TIP3    H123452   5.663   1.192  12.722 -2.1800  0.4504  1.7711
  679TIP3    H223453   5.771   1.120  12.800 -0.1806 -0.1185 -1.4444
  680TIP3   OH223454   4.437   0.327  11.042  0.1691 -0.1940 -0.4461
  680TIP3    H123455   4.520   0.336  10.997  0.4754 -2.6832 -0.4718
  680TIP3    H223456   4.415   0.234  11.033 -1.7477  0.0774  1.0507
  681TIP3   OH223457   1.328   5.585  12.669  0.3244  0.4617 -0.7260
  681TIP3    H123458   1.359   5.527  12.599  1.3910  0.1485  0.0005
  681TIP3    H223459   1.404   5.638  12.692  0.2788 -0.1330  0.8881
  682TIP3   OH223460   2.613   2.845  10.743  0.0681 -0.0046 -0.5952
  682TIP3    H123461   2.658   2.774  10.698  0.5586 -0.2322  0.2404
  682TIP3    H223462   2.659   2.853  10.827 -2.6868 -1.6304  1.1727
  683TIP3   OH223463   4.570   4.163  11.356  0.2106  0.0537 -0.5053
  683TIP3    H123464   4.543   4.216  11.431 -1.0157 -1.1824 -0.0438
  683TIP3    H223465   4.623   4.093  11.394  0.3729 -0.0410 -0.8993
  684TIP3   OH223466   1.416   2.453   9.935 -0.1122 -0.0349  0.0477
  684TIP3    H123467   1.468   2.514   9.883 -0.2840 -0.5792 -0.7700
  684TIP3    H223468   1.450   2.366   9.912 -2.5849 -0.5414 -1.9205
  685TIP3   OH223469   4.164   0.512  11.179  0.1780 -0.4934  0.1727
  685TIP3    H123470   4.140   0.504  11.271  0.7665 -0.0280  0.3686
  685TIP3    H223471   4.136   0.600  11.154  0.3057 -0.5048 -0.0102
  686TIP3   OH223472   4.783   3.296  13.059  0.3619  0.0907  0.7443
  686TIP3    H123473   4.787   3.208  13.097 -0.1641 -0.5241 -0.6055
  686TIP3    H223474   4.873   3.312  13.028  0.3249 -0.2233  0.4616
  687TIP3   OH223475   2.644   2.501  11.092 -0.6262  0.2158  0.4167
  687TIP3    H123476   2.683   2.588  11.096  3.2741 -1.3118 -1.2532
  687TIP3    H223477   2.718   2.441  11.109 -2.9014 -2.7854  0.2060
  688TIP3   OH223478   2.266   2.375  10.410  0.2014  0.2383 -0.3119
  688TIP3    H123479   2.293   2.340  10.325 -1.4695  0.3275 -0.8799
  688TIP3    H223480   2.282   2.304  10.472 -0.8316 -0.6688 -1.0805
  689TIP3   OH223481   2.131   6.741  11.773 -0.2878  0.1426  0.3900
  689TIP3    H123482   2.156   6.831  11.752  2.7226 -0.9885 -1.1502
  689TIP3    H223483   2.091   6.708  11.692  0.3823 -0.4882  0.3085
  690TIP3   OH223484   1.505   1.376  10.313  0.0697 -0.6319 -0.2604
  690TIP3    H123485   1.507   1.335  10.399  1.5625  1.3070  0.6682
  690TIP3    H223486   1.483   1.305  10.253 -1.1212 -1.9910  1.7181
  691TIP3   OH223487   4.132   0.667  10.439  0.3384  0.1978  0.3424
  691TIP3    H123488   4.203   0.603  10.435  0.2171  0.1040 -0.4086
  691TIP3    H223489   4.128   0.693  10.531  1.0000 -0.1845  0.4804
  692TIP3   OH223490   0.202   4.488  11.719  0.1879  0.0092  0.2379
  692TIP3    H123491   0.237   4.530  11.640 -2.1654  0.8881 -0.3918
  692TIP3    H223492   0.168   4.560  11.772  0.2796 -0.7123  1.2983
  693TIP3   OH223493   4.146   1.350   9.611 -0.3335 -0.2680  0.5725
  693TIP3    H123494   4.066   1.334   9.560  1.3628 -1.1714 -1.8721
  693TIP3    H223495   4.151   1.276   9.671 -1.4185 -0.0969  0.8971
  694TIP3   OH223496   5.991   2.452  12.918  0.5127  0.2178 -0.3424
  694TIP3    H123497   5.926   2.520  12.936 -0.0955 -0.6709  0.8262
  694TIP3    H223498   6.029   2.431  13.004 -0.1439 -1.7604 -0.5107
  695TIP3   OH223499   2.337   3.749  14.484 -0.2746 -0.4212  0.0076
  695TIP3    H123500   2.242   3.744  14.486 -0.2033 -1.9425  3.7937
  695TIP3    H223501   2.358   3.776  14.394 -4.3812  3.2690 -0.0379
  696TIP3   OH223502   4.106   6.914  10.236  0.2664 -0.6388  0.9226
  696TIP3    H123503   4.184   6.896  10.289 -0.1054  1.3303  2.1935
  696TIP3    H223504   4.098   7.010  10.237 -0.9231 -0.6907 -1.0142
  697TIP3   OH223505   2.300   3.983  12.968  0.4926  0.2450 -0.7450
  697TIP3    H123506   2.368   3.989  13.035  0.8423  0.6324 -1.1241
  697TIP3    H223507   2.320   3.902  12.921  0.9828  0.5943 -1.1548
  698TIP3   OH223508   2.343   5.834  12.318  0.3525  0.2347  0.0417
  698TIP3    H123509   2.307   5.906  12.370  0.2801 -0.3019  0.7440
  698TIP3    H223510   2.429   5.865  12.290  0.7070  0.2202  1.1242
  699TIP3   OH223511   6.870   6.419   9.975  1.0279 -0.1307 -0.0307
  699TIP3    H123512   6.797   6.397   9.917  0.1177  0.2234  0.9441
  699TIP3    H223513   6.931   6.347   9.965 -0.2723 -1.3242  0.4341
  700TIP3   OH223514   4.144   5.507   9.997  0.1773 -0.0595  0.1555
  700TIP3    H123515   4.136   5.454  10.077  0.3912  1.2993  1.0982
  700TIP3    H223516   4.075   5.572  10.004  1.4785  1.3445  0.2436
  701TIP3   OH223517   4.722   1.000  10.237 -0.2236 -0.0860  0.3205
  701TIP3    H123518   4.685   1.081  10.270 -1.5810 -1.3324  1.9223
  701TIP3    H223519   4.727   0.942  10.313  0.6260 -1.5503 -0.8034
  702TIP3   OH223520   2.451   1.418   9.593 -0.1086 -0.3913 -0.1020
  702TIP3    H123521   2.480   1.395   9.681 -0.7355  1.8240  0.7197
  702TIP3    H223522   2.362   1.384   9.587 -0.6012  0.7422  0.6670
  703TIP3   OH223523   2.907   2.940  10.736  0.3481 -0.1866 -0.2244
  703TIP3    H123524   2.988   2.890  10.734  1.9836  2.4042 -2.0813
  703TIP3    H223525   2.855   2.906  10.663  1.9868  1.5830 -2.2729
  704TIP3   OH223526   0.172   5.777  10.653 -0.2248 -0.3797 -0.1075
  704TIP3    H123527   0.237   5.846  10.666 -0.4090 -0.5105  1.7184
  704TIP3    H223528   0.218   5.696  10.679 -0.6903 -0.6501 -0.1192
  705TIP3   OH223529   3.783   5.771  10.600 -0.1510  0.0243  0.3548
  705TIP3    H123530   3.759   5.682  10.576  1.6355 -0.1718 -0.7701
  705TIP3    H223531   3.710   5.802  10.655 -0.9027 -2.0064  0.5184
  706TIP3   OH223532   2.381   5.317  12.418  0.4481 -0.1484  0.5423
  706TIP3    H123533   2.396   5.324  12.324 -0.1064  0.4439  0.4979
  706TIP3    H223534   2.340   5.400  12.443  0.5220 -0.3287  1.2916
  707TIP3   OH223535   1.235   3.941  12.885  1.1899  0.3271 -0.0250
  707TIP3    H123536   1.174   3.884  12.838  1.6928 -0.1447 -0.1099
  707TIP3    H223537   1.185   3.970  12.962  0.7500  0.2081 -0.2587
  708TIP3   OH223538   4.150   0.053   9.677 -0.1661  0.7575 -0.3459
  708TIP3    H123539   4.141  -0.026   9.623  1.6179 -1.3341  2.3090
  708TIP3    H223540   4.237   0.086   9.658  0.2582  0.3279  0.8415
  709TIP3   OH223541   2.036   2.199  12.590 -0.0099  0.1161  0.1724
  709TIP3    H123542   2.058   2.292  12.589  2.1320 -0.3762 -0.9520
  709TIP3    H223543   2.120   2.154  12.599 -0.9422 -1.7284 -0.0399
  710TIP3   OH223544   1.431   2.271  13.092  0.1115 -0.3063 -0.4053
  710TIP3    H123545   1.418   2.349  13.146  1.2541  0.5374 -1.3171
  710TIP3    H223546   1.399   2.199  13.146 -1.2882  0.8264  0.3168
  711TIP3   OH223547   0.222   6.647  11.717 -0.0630  0.0428  0.1017
  711TIP3    H123548   0.160   6.713  11.687  0.5481  0.3056 -0.5799
  711TIP3    H223549   0.252   6.679  11.802  1.8113  1.7288 -1.1360
  712TIP3   OH223550   3.860   0.697  11.287  0.5128 -0.1395  0.8735
  712TIP3    H123551   3.944   0.728  11.254  0.0272 -1.0877 -1.2725
  712TIP3    H223552   3.880   0.665  11.376  2.0017  1.4844  1.1557
  713TIP3   OH223553   1.736   3.470  11.231  0.0760  0.0733 -0.4574
  713TIP3    H123554   1.696   3.507  11.310  0.8271  1.1889 -0.5906
  713TIP3    H223555   1.760   3.380  11.257 -1.3906 -0.2108 -0.0109
  714TIP3   OH223556   1.956   2.025  10.573  0.3232 -0.2625 -0.3086
  714TIP3    H123557   2.002   2.018  10.490 -0.6918  0.0230 -0.9124
  714TIP3    H223558   1.959   2.118  10.595  0.6263 -0.3436 -0.0105
  715TIP3   OH223559   2.171   0.887  11.091 -0.1170 -0.7914 -0.4558
  715TIP3    H123560   2.188   0.891  11.185 -1.0973 -1.8991 -0.2156
  715TIP3    H223561   2.123   0.805  11.079 -1.9319  0.3849 -1.6100
  716TIP3   OH223562   3.019   4.993  11.524 -0.6481 -0.5372 -0.1457
  716TIP3    H123563   3.002   5.085  11.544 -1.5456  0.0875 -3.4573
  716TIP3    H223564   3.114   4.987  11.514 -0.5358 -0.1185  0.6290
  717TIP3   OH223565   7.001   2.935  13.523  0.2536 -0.0708 -0.3291
  717TIP3    H123566   7.060   2.984  13.581  0.1065 -1.1064  0.7050
  717TIP3    H223567   6.913   2.955  13.556  0.1155  0.0771 -0.7849
  718TIP3   OH223568   1.825   4.778  12.694 -0.2165  0.0370 -0.0794
  718TIP3    H123569   1.757   4.844  12.680  0.7680  1.4554  1.6145
  718TIP3    H223570   1.780   4.707  12.741 -0.9534  0.1383 -0.6347
  719TIP3   OH223571   4.432   2.477  10.263 -0.3223 -0.0857 -0.1297
  719TIP3    H123572   4.357   2.431  10.301 -1.4773 -0.1663 -2.4250
  719TIP3    H223573   4.501   2.411  10.256 -1.2856 -0.9676 -1.4688
  720TIP3   OH223574   2.932   7.132   9.945  0.6112 -0.5542 -0.4605
  720TIP3    H123575   2.855   7.102   9.897 -0.7358 -1.0624  1.9334
  720TIP3    H223576   2.980   7.051   9.965  0.7206 -0.4232 -0.2002
  721TIP3   OH223577   5.512   3.598  12.572  0.2249  0.2448  0.2720
  721TIP3    H123578   5.526   3.508  12.601  2.0259  1.0091  1.9270
  721TIP3    H223579   5.417   3.609  12.571 -0.0618 -2.0955 -1.3621
  722TIP3   OH223580   5.684   4.478  13.562 -0.3579  0.1972 -0.1382
  722TIP3    H123581   5.594   4.508  13.551 -1.1115 -0.8780  2.6637
  722TIP3    H223582   5.684   4.389  13.528 -0.3289  0.2571 -0.2925
  723TIP3   OH223583   5.420   0.626  11.239 -0.2197 -0.8223  0.6488
  723TIP3    H123584   5.500   0.626  11.187 -0.0751  1.0012  0.8303
  723TIP3    H223585   5.353   0.591  11.180  0.2302 -0.0836 -0.3166
  724TIP3   OH223586   3.786   3.507  10.531  0.0707 -0.4132 -0.5281
  724TIP3    H123587   3.818   3.594  10.507  0.7249  0.0697  2.0211
  724TIP3    H223588   3.846   3.447  10.486  2.4539  0.4887  1.3070
  725TIP3   OH223589   2.872   5.545  10.311 -0.1917 -0.6188  0.0243
  725TIP3    H123590   2.835   5.624  10.350 -0.1912 -1.4563  1.7611
  725TIP3    H223591   2.813   5.475  10.338  2.4476 -1.9583  2.6468
  726TIP3   OH223592   3.290   5.338  12.487 -0.1423  0.0134  0.1689
  726TIP3    H123593   3.295   5.243  12.477 -1.7653 -0.0422 -0.3791
  726TIP3    H223594   3.204   5.361  12.450 -0.4047  1.5078  1.6448
  727TIP3   OH223595   3.131   1.668  13.403  0.3604  0.3726 -0.4241
  727TIP3    H123596   3.199   1.710  13.455  1.2305 -0.3846 -0.9244
  727TIP3    H223597   3.162   1.675  13.313  0.2676 -0.8846 -0.5592
  728TIP3   OH223598   2.347   1.078  10.412 -0.1836  0.4192 -0.0854
  728TIP3    H123599   2.367   1.150  10.352  0.3312  0.7721  0.5133
  728TIP3    H223600   2.295   1.017  10.359  0.2027  0.7644 -0.8706
  729TIP3   OH223601   6.219   0.011   9.942  0.1243 -0.1545 -0.0370
  729TIP3    H123602   6.135   0.058   9.940 -0.5703 -1.3607  0.1180
  729TIP3    H223603   6.219  -0.035  10.026  0.5834 -0.7977 -0.3780
  730TIP3   OH223604   1.048   3.322   9.810 -0.1315 -0.7788 -0.2921
  730TIP3    H123605   1.074   3.233   9.833  1.6282  0.1655  1.5590
  730TIP3    H223606   1.092   3.341   9.728  1.3356 -0.8250  0.4784
  731TIP3   OH223607   2.753   2.062  11.761 -0.2718  0.1046 -0.6048
  731TIP3    H123608   2.664   2.085  11.788 -0.5881  0.3282 -1.8217
  731TIP3    H223609   2.743   2.027  11.673  1.0161  1.4032 -1.2829
  732TIP3   OH223610   4.002   6.538  12.038 -0.2509 -0.0961 -0.3708
  732TIP3    H123611   4.004   6.634  12.029 -0.2935 -0.0562  0.0200
  732TIP3    H223612   4.095   6.514  12.043 -0.2750  0.0914  1.1494
  733TIP3   OH223613   2.369   3.984  12.476  0.6436  0.4173  0.5447
  733TIP3    H123614   2.343   4.039  12.549 -0.8611 -0.5897  0.7843
  733TIP3    H223615   2.456   4.015  12.452  0.7861  1.3249  2.1943
  734TIP3   OH223616   3.466   1.546  12.296 -0.8149 -0.2733  0.2045
  734TIP3    H123617   3.506   1.465  12.327 -0.5864  0.0845  0.8500
  734TIP3    H223618   3.448   1.530  12.203  0.6115 -0.5240 -0.0411
  735TIP3   OH223619   3.658   1.494  13.227 -0.0384 -0.0896 -0.0246
  735TIP3    H123620   3.696   1.565  13.280  0.9588 -0.0996 -0.7075
  735TIP3    H223621   3.614   1.539  13.155 -2.0356 -0.0419  1.1856
  736TIP3   OH223622   4.196   0.844  10.895  0.1538  0.0336 -0.3647
  736TIP3    H123623   4.216   0.886  10.812  0.5006 -0.1568 -0.3825
  736TIP3    H223624   4.266   0.780  10.906  0.4170  0.4319  0.3287
  737TIP3   OH223625   2.898   2.230  10.890  0.4323  0.4495 -0.3593
  737TIP3    H123626   2.828   2.164  10.891 -0.2073  1.1150 -0.2575
  737TIP3    H223627   2.979   2.180  10.897 -0.1097 -0.2319  1.4847
  738TIP3   OH223628   4.075   0.026  11.685 -0.1043 -0.2811 -0.2893
  738TIP3    H123629   4.128   0.071  11.619 -1.8128  1.6827 -0.3812
  738TIP3    H223630   4.106   0.060  11.769  1.2604 -1.8865 -0.1371
  739TIP3   OH223631   5.239   4.727  11.728 -0.2899  0.3031  0.1295
  739TIP3    H123632   5.269   4.666  11.660 -0.9929 -1.3227  1.2433
  739TIP3    H223633   5.149   4.700  11.746  0.0419  0.3844  2.0448
  740TIP3   OH223634   5.074   6.463   9.838 -0.8688  0.2824  0.0166
  740TIP3    H123635   5.163   6.427   9.838 -1.8771 -2.2804  0.4772
  740TIP3    H223636   5.070   6.517   9.917 -0.3717 -1.3495  1.1930
  741TIP3   OH223637   3.166   4.130  10.094 -0.2135  0.1441 -0.1739
  741TIP3    H123638   3.077   4.148  10.122  1.0099  1.0633  3.3165
  741TIP3    H223639   3.183   4.194  10.025 -1.7881  0.7794  0.0098
  742TIP3   OH223640   4.488   1.331  10.119 -0.3800  0.2209 -0.0672
  742TIP3    H123641   4.532   1.253  10.085  0.1608  0.3709  0.2725
  742TIP3    H223642   4.518   1.402  10.062 -0.3995  0.2751 -0.0108
  743TIP3   OH223643   3.481   0.005  11.371  0.1413 -0.1806 -0.3635
  743TIP3    H123644   3.476  -0.074  11.425  2.6323 -0.2278 -0.1295
  743TIP3    H223645   3.480  -0.027  11.281 -2.6251 -0.1998 -0.3425
  744TIP3   OH223646   3.093   5.064  12.198  0.3053  0.6531 -0.1602
  744TIP3    H123647   3.040   5.082  12.120  0.0583  2.4245  0.3999
  744TIP3    H223648   3.029   5.046  12.267  0.5360 -2.8650 -0.7557
  745TIP3   OH223649   2.399   3.331  10.949  0.6892 -0.7024 -0.0624
  745TIP3    H123650   2.483   3.285  10.942 -0.6049 -3.1754  0.1049
  745TIP3    H223651   2.361   3.298  11.031 -1.4049 -1.3211 -1.2496
  746TIP3   OH223652   3.726   0.144  11.451 -0.2299  0.6020  0.5842
  746TIP3    H123653   3.638   0.116  11.426  0.2088  0.6227 -1.0215
  746TIP3    H223654   3.781   0.068  11.432  0.6999  1.9283 -2.1813
  747TIP3   OH223655   3.623   2.399   0.278 -0.6205 -0.0415 -0.4623
  747TIP3    H123656   3.637   2.365   0.366 -0.0373  0.4999 -0.3387
  747TIP3    H223657   3.667   2.336   0.221  0.0962  0.2668 -0.2663
  748TIP3   OH223658   3.968   6.865   9.960  0.0503 -0.4997 -0.3715
  748TIP3    H123659   3.906   6.909   9.903 -0.0822 -0.1275  0.0602
  748TIP3    H223660   3.958   6.908  10.045  2.0535  0.6909 -0.6900
  749TIP3   OH223661   4.436   6.602  12.799  0.1163 -0.3446  0.3495
  749TIP3    H123662   4.368   6.549  12.839  0.3160 -0.0871  1.0420
  749TIP3    H223663   4.513   6.546  12.797  0.0944 -0.3723  0.2864
  750TIP3   OH223664   5.553   2.772  13.816 -0.9522 -0.0322 -0.0836
  750TIP3    H123665   5.487   2.741  13.878 -1.3335  0.4422 -0.2431
  750TIP3    H223666   5.628   2.797  13.870  0.1907 -3.2479 -0.1249
  751TIP3   OH223667   0.953   0.583  10.784 -0.5194  0.2163 -0.0587
  751TIP3    H123668   0.915   0.557  10.867  1.0282 -0.2209  0.5419
  751TIP3    H223669   0.974   0.500  10.740 -1.2025  0.4414 -0.8186
  752TIP3   OH223670   7.019   6.928  11.916  0.5789  0.0124 -0.4262
  752TIP3    H123671   6.991   6.973  11.836  1.1170  1.8164  0.3678
  752TIP3    H223672   7.102   6.888  11.893 -0.0883 -0.9221 -1.2581
  753TIP3   OH223673   5.117   0.662  12.394  0.0768  0.0588 -0.1320
  753TIP3    H123674   5.089   0.663  12.302 -1.3544  1.8268  0.2997
  753TIP3    H223675   5.083   0.744  12.430  0.0039 -0.9560  2.1654
  754TIP3   OH223676   3.503   2.263   0.046  0.1031 -0.3572 -0.1610
  754TIP3    H123677   3.409   2.280   0.050  0.0428 -0.5934 -0.5378
  754TIP3    H223678   3.543   2.343   0.080 -0.2820 -0.9724  1.8377
  755TIP3   OH223679   4.242   6.295  10.444  0.1202 -0.3174 -0.0466
  755TIP3    H123680   4.272   6.227  10.382  2.8812 -0.1580  1.0793
  755TIP3    H223681   4.219   6.246  10.523  1.0520 -0.0588  0.3869
  756TIP3   OH223682   3.090   1.383  12.258  0.0303  0.1867 -0.4467
  756TIP3    H123683   3.095   1.478  12.255  1.6444  0.0888 -1.3374
  756TIP3    H223684   3.112   1.354  12.170  1.5950 -1.0699  0.3260
  757TIP3   OH223685   1.485   6.682  14.458 -0.0621 -0.5951 -0.1003
  757TIP3    H123686   1.433   6.609  14.424  0.2275 -1.3160  0.9550
  757TIP3    H223687   1.452   6.759  14.413 -2.7373 -0.8910  1.3017
  758TIP3   OH223688   6.890   1.381  10.399 -0.7746 -0.1069  0.5910
  758TIP3    H123689   6.797   1.358  10.405 -0.5156 -1.0768  1.0657
  758TIP3    H223690   6.893   1.473  10.425 -1.6224 -0.0242  0.4224
  759TIP3   OH223691   4.807   6.568  11.507 -0.1322 -0.0171 -0.0399
  759TIP3    H123692   4.781   6.643  11.452 -2.4167 -1.1549 -0.5459
  759TIP3    H223693   4.775   6.590  11.594  0.5845  0.2702  0.1634
  760TIP3   OH223694   3.701   4.048  12.565  0.1565 -0.7367 -0.7315
  760TIP3    H123695   3.737   4.017  12.482 -1.9146 -1.3846 -1.3994
  760TIP3    H223696   3.607   4.029  12.560  0.1988 -2.0560  2.3226
  761TIP3   OH223697   4.598   1.073  11.684  0.4335 -0.2333 -0.5843
  761TIP3    H123698   4.640   1.075  11.598  1.9367  1.5389  0.1420
  761TIP3    H223699   4.565   1.162  11.697  0.4040 -0.4199  0.7293
  762TIP3   OH223700   3.350   4.234  12.398  0.3682  0.6906 -0.3146
  762TIP3    H123701   3.360   4.329  12.400  1.0398  0.6406 -0.8481
  762TIP3    H223702   3.256   4.219  12.397  0.2665  1.3921 -1.8138
  763TIP3   OH223703   1.621   2.654  14.348 -0.1254 -0.1432  0.5077
  763TIP3    H123704   1.678   2.581  14.326 -0.5907 -0.0187 -1.1904
  763TIP3    H223705   1.589   2.634  14.436 -0.7855 -2.3266 -0.1954
  764TIP3   OH223706   3.469   1.667  11.376  0.1684  0.0651  0.2709
  764TIP3    H123707   3.413   1.593  11.399 -0.5588  0.7745  0.7787
  764TIP3    H223708   3.450   1.683  11.283  0.1412 -0.2172  0.2262
  765TIP3   OH223709   5.701   3.727  14.373  0.8053  0.3148  0.2461
  765TIP3    H123710   5.664   3.695  14.291  0.5087  2.4511 -0.4893
  765TIP3    H223711   5.770   3.664  14.395  0.8432 -0.3185 -1.6179
  766TIP3   OH223712   4.189   4.778  10.926  0.5271  0.2336 -0.3886
  766TIP3    H123713   4.264   4.723  10.948  0.1863  0.2618  0.8745
  766TIP3    H223714   4.227   4.853  10.880  1.2251  0.0190 -0.1684
  767TIP3   OH223715   1.802   0.912  14.638 -0.0882 -0.5462  0.0258
  767TIP3    H123716   1.885   0.877  14.607 -0.3396  0.2739 -1.6643
  767TIP3    H223717   1.745   0.910  14.560 -0.8592  1.2741  0.5187
  768TIP3   OH223718   4.732   5.058  10.210 -0.6870 -0.1767  0.1990
  768TIP3    H123719   4.649   5.035  10.168 -1.7898  1.3227  1.4896
  768TIP3    H223720   4.744   4.992  10.278 -0.0573 -1.2661 -0.9592
  769TIP3   OH223721   5.691   6.149  10.785 -0.5479 -0.3135 -0.1296
  769TIP3    H123722   5.776   6.151  10.741 -0.6911  1.0134 -0.3805
  769TIP3    H223723   5.709   6.185  10.872 -0.8541 -0.0486 -0.1788
  770TIP3   OH223724   6.322   3.355  15.299  0.0034 -0.2191  0.1709
  770TIP3    H123725   6.415   3.361  15.279 -0.2468 -2.9563 -2.2492
  770TIP3    H223726   6.304   3.428  15.358  3.0174  2.2359 -1.8306
  771TIP3   OH223727   2.443   3.948  11.359  0.0020  0.1586  0.5902
  771TIP3    H123728   2.506   3.970  11.290 -0.4143  1.4957  0.6315
  771TIP3    H223729   2.380   3.890  11.315  1.7653 -1.9871  0.7960
  772TIP3   OH223730   2.227   7.019  12.087 -0.7752  0.2752  0.1855
  772TIP3    H123731   2.192   7.061  12.009 -2.5318 -1.5787 -0.0439
  772TIP3    H223732   2.203   7.078  12.159  1.1987  2.1935 -0.6589
  773TIP3   OH223733   1.087   0.090  10.428  0.0626  0.0202 -0.2003
  773TIP3    H123734   1.020   0.139  10.381  0.7135  2.0539  0.9258
  773TIP3    H223735   1.047   0.067  10.511 -0.5868 -2.2909 -1.1277
  774TIP3   OH223736   3.885   5.957   9.507 -0.1514  0.0411  0.1111
  774TIP3    H123737   3.847   5.926   9.425 -1.5638  0.4532  0.5937
  774TIP3    H223738   3.919   6.044   9.485  1.4246 -0.7407 -0.5750
  775TIP3   OH223739   2.900   0.961  11.514  0.2245 -0.0824  0.5360
  775TIP3    H123740   2.889   1.021  11.588  2.1275  0.0678  0.7267
  775TIP3    H223741   2.977   0.909  11.537  0.8360 -0.0435 -1.3343
  776TIP3   OH223742   3.027   4.203  11.211  0.0201 -0.1718  0.1594
  776TIP3    H123743   3.120   4.183  11.224  0.1900  0.1478 -0.5455
  776TIP3    H223744   2.982   4.142  11.268  0.7145  0.5777  1.5474
  777TIP3   OH223745   5.109   6.836  11.424  1.0891  0.0400 -0.0438
  777TIP3    H123746   5.194   6.872  11.450  0.4908  2.2039 -0.9575
  777TIP3    H223747   5.114   6.744  11.449  4.2047 -0.2105 -1.3036
  778TIP3   OH223748   6.471   1.980  11.060  0.0906 -1.0059 -0.5829
  778TIP3    H123749   6.440   1.926  10.987 -1.8740  0.9392 -1.2444
  778TIP3    H223750   6.394   2.030  11.087  1.3658 -0.0333  1.3517
  779TIP3   OH223751   6.648   6.701  10.137 -0.0801 -0.4712  0.2525
  779TIP3    H123752   6.589   6.633  10.105  0.8011 -1.1001 -0.0461
  779TIP3    H223753   6.622   6.715  10.228 -0.1966 -1.2828  0.3480
  780TIP3   OH223754   5.283   6.307  14.385 -0.3666 -0.1984  0.5180
  780TIP3    H123755   5.306   6.307  14.292  0.5628 -1.2358  0.7359
  780TIP3    H223756   5.242   6.392  14.400 -1.6150 -0.4720 -1.1145
  781TIP3   OH223757   3.922   1.403  11.575 -0.2310 -0.5883 -0.1084
  781TIP3    H123758   3.880   1.351  11.506 -1.7878 -0.7714  0.9362
  781TIP3    H223759   3.901   1.356  11.656 -1.6277  1.5888  0.8568
  782TIP3   OH223760   3.528   2.896  10.368  0.1978 -0.1380  0.1743
  782TIP3    H123761   3.602   2.938  10.411 -0.8312  1.0519  0.8231
  782TIP3    H223762   3.464   2.883  10.438 -0.7780  0.1621 -0.6508
  783TIP3   OH223763   3.936   2.342  10.587 -0.0617 -0.1676 -0.4941
  783TIP3    H123764   3.979   2.258  10.600  0.3693  0.2246  0.7042
  783TIP3    H223765   3.980   2.401  10.648  0.6301  1.2758 -2.3326
  784TIP3   OH223766   7.160   4.816  12.615 -0.8225 -0.1271  0.7665
  784TIP3    H123767   7.222   4.877  12.575 -0.7997 -1.2166 -0.8826
  784TIP3    H223768   7.162   4.838  12.708  0.3232  1.3701  0.4077
  785TIP3   OH223769   4.036   0.484  11.874  0.0043  1.0227 -0.6148
  785TIP3    H123770   3.986   0.490  11.793 -0.2909 -0.5215 -0.5543
  785TIP3    H223771   3.989   0.539  11.936 -0.2873  1.4617 -1.2276
  786TIP3   OH223772   1.582   0.670  13.983  0.0987  0.3410 -0.2671
  786TIP3    H123773   1.568   0.763  13.964  0.8337  0.1918 -1.6107
  786TIP3    H223774   1.514   0.626  13.932  1.2553  0.0125 -1.5598
  787TIP3   OH223775   4.133   5.020  11.693 -0.0730 -0.2523  0.2654
  787TIP3    H123776   4.165   5.084  11.757 -0.6564 -0.2358  0.5443
  787TIP3    H223777   4.133   4.937  11.741  1.4055 -0.6070 -0.3230
  788TIP3   OH223778   4.933   0.653  11.029  0.3816  0.4759  0.0760
  788TIP3    H123779   4.842   0.682  11.023  0.4373  0.5566 -0.4735
  788TIP3    H223780   4.954   0.622  10.940 -0.0062 -2.3167  0.9287
  789TIP3   OH223781   6.353   1.842  10.863  0.1971 -0.0361  0.1937
  789TIP3    H123782   6.356   1.746  10.861 -0.2939 -0.0518  0.1341
  789TIP3    H223783   6.373   1.868  10.774 -1.2148 -0.1312 -0.1583
  790TIP3   OH223784   6.796   3.691  12.186 -0.6522  0.1481 -0.9994
  790TIP3    H123785   6.857   3.632  12.231 -2.0130  1.4248  2.7555
  790TIP3    H223786   6.743   3.633  12.131  0.7393 -1.5954 -0.5710
  791TIP3   OH223787   0.588   1.809  12.813 -0.4370 -0.1556 -0.1430
  791TIP3    H123788   0.666   1.780  12.861  0.0859 -1.7324 -1.8920
  791TIP3    H223789   0.533   1.731  12.807 -2.0629  0.8847  0.8519
  792TIP3   OH223790   0.625   1.426  10.794 -0.0329  1.1168  0.1577
  792TIP3    H123791   0.594   1.511  10.825 -0.7708  1.1328 -0.5885
  792TIP3    H223792   0.561   1.363  10.829  0.1959  0.9330  0.2483
  793TIP3   OH223793   2.326   0.839  13.902  0.1701 -0.2310  0.2488
  793TIP3    H123794   2.287   0.854  13.816 -0.9798 -1.0741  0.6203
  793TIP3    H223795   2.402   0.897  13.904 -0.6925  0.9405 -0.7227
  794TIP3   OH223796   0.343   0.819  11.206  0.0453  0.1634  0.5632
  794TIP3    H123797   0.339   0.914  11.202  0.1644  0.1059 -0.9071
  794TIP3    H223798   0.298   0.797  11.287 -0.8059  1.4082  0.4345
  795TIP3   OH223799   5.260   0.148  12.551  0.7870 -0.1550 -0.0763
  795TIP3    H123800   5.294   0.214  12.611  1.9228 -0.1899 -0.6711
  795TIP3    H223801   5.298   0.170  12.466  0.4359 -1.0256 -0.4700
  796TIP3   OH223802   0.601   7.096  11.034  0.2005  0.2168  0.6386
  796TIP3    H123803   0.634   7.131  10.951  2.0305 -2.7732  0.0639
  796TIP3    H223804   0.639   7.154  11.101  2.1453  0.1228 -0.3622
  797TIP3   OH223805   1.706   1.161  14.275  0.7491 -0.0513 -0.9781
  797TIP3    H123806   1.670   1.178  14.188  1.1231 -2.4221 -1.6201
  797TIP3    H223807   1.761   1.238  14.293 -1.0766  1.4923 -1.8767
  798TIP3   OH223808   5.006   2.033  10.920  0.5553  0.3249  0.1632
  798TIP3    H123809   5.087   2.067  10.957  0.1307 -0.3780  1.8078
  798TIP3    H223810   5.032   1.953  10.874  0.9366  0.6526 -0.1962
  799TIP3   OH223811   3.642   2.466  10.896 -0.2103 -0.0333 -0.1928
  799TIP3    H123812   3.705   2.487  10.827  0.5975  1.4128  0.9620
  799TIP3    H223813   3.562   2.514  10.872 -0.5335 -0.9866 -1.0683
  800TIP3   OH223814   5.983   0.961  14.041 -0.2255 -0.3520  0.2007
  800TIP3    H123815   5.978   0.974  14.136  1.9477  1.2634  0.1200
  800TIP3    H223816   6.075   0.970  14.020 -0.5726 -1.5488 -1.9833
  801TIP3   OH223817   2.776   6.176  11.507  0.5409  0.6549 -0.0695
  801TIP3    H123818   2.751   6.249  11.564 -0.2345 -1.2148  2.0491
  801TIP3    H223819   2.699   6.159  11.454 -0.8197 -1.3699  2.4515
  802TIP3   OH223820   2.615   1.314  11.063  0.0200  0.0537  0.6245
  802TIP3    H123821   2.565   1.315  11.145  0.3273 -0.1789  0.8193
  802TIP3    H223822   2.597   1.398  11.022 -1.6916 -0.6034 -0.0226
  803TIP3   OH223823   2.183   2.997  13.576 -0.7489 -0.2734  0.0597
  803TIP3    H123824   2.207   3.069  13.634  0.5030  0.3806 -1.2387
  803TIP3    H223825   2.243   3.004  13.502 -0.5986 -2.6478 -0.1056
  804TIP3   OH223826   4.689   6.891  12.922 -0.2603 -0.0243 -0.0135
  804TIP3    H123827   4.739   6.951  12.867 -2.5270  0.0352 -2.0709
  804TIP3    H223828   4.680   6.811  12.870 -0.4857 -0.8174  1.2034
  805TIP3   OH223829   4.789   0.755   9.689  0.6620  0.2486  0.2898
  805TIP3    H123830   4.861   0.729   9.632  0.5710  0.1378  0.2230
  805TIP3    H223831   4.737   0.675   9.699  0.3754  0.4071  0.0818
  806TIP3   OH223832   6.433   3.969  10.055  0.0285 -0.7786 -0.2436
  806TIP3    H123833   6.382   3.889  10.071 -1.4770  0.0500 -0.8327
  806TIP3    H223834   6.380   4.019   9.993  2.3872 -0.6766 -2.2487
  807TIP3   OH223835   2.788   6.946  12.397 -0.2279 -0.4033 -0.1958
  807TIP3    H123836   2.737   6.892  12.457 -0.9011  1.0314  0.5382
  807TIP3    H223837   2.849   6.885  12.356  0.5851 -1.3238  2.3018
  808TIP3   OH223838   6.220   3.506  11.050 -0.1984 -0.1872  0.3308
  808TIP3    H123839   6.174   3.468  11.125 -1.3147  0.7735  0.1382
  808TIP3    H223840   6.156   3.503  10.979  1.0478 -1.6327 -0.7570
  809TIP3   OH223841   6.481   3.356  14.851  0.3963  0.7243 -0.1874
  809TIP3    H123842   6.405   3.359  14.909  0.8568  0.1391  0.4652
  809TIP3    H223843   6.467   3.280  14.795  1.7970 -1.0938  1.8096
  810TIP3   OH223844   6.503   4.786  10.742 -0.2957  0.5503 -0.0307
  810TIP3    H123845   6.435   4.832  10.790 -1.8281 -2.6818  1.0039
  810TIP3    H223846   6.519   4.840  10.665 -0.0521  4.1833  2.4353
  811TIP3   OH223847   4.044   0.608   9.700  0.0099  0.0969  0.0110
  811TIP3    H123848   4.005   0.540   9.644  0.0604  0.6901 -0.7517
  811TIP3    H223849   3.972   0.669   9.715  1.2343  2.4859 -3.4073
  812TIP3   OH223850   4.178   2.280  13.244  0.1924  0.1800 -0.6639
  812TIP3    H123851   4.117   2.252  13.175  1.8798 -1.0134 -1.6921
  812TIP3    H223852   4.182   2.375  13.234 -0.0126  0.0771 -1.8454
  813TIP3   OH223853   5.141   7.013   9.840 -0.8877  0.4662  0.2300
  813TIP3    H123854   5.192   7.061   9.774 -0.0577 -0.4885  0.1718
  813TIP3    H223855   5.056   6.997   9.798 -0.6538  0.5839 -0.2935
  814TIP3   OH223856   2.527   2.425  14.908  0.3449  0.5241  0.6186
  814TIP3    H123857   2.580   2.412  14.986  1.5541  0.2580 -0.2346
  814TIP3    H223858   2.452   2.477  14.938  1.5679  1.7236  1.6411
  815TIP3   OH223859   6.607   0.247  10.495  0.1822  0.7551 -0.0631
  815TIP3    H123860   6.679   0.294  10.452 -0.2297  1.7115  0.2778
  815TIP3    H223861   6.587   0.300  10.572 -0.6056  0.2655  0.0687
  816TIP3   OH223862   1.798   6.789  13.344 -0.3174 -0.4847 -0.1078
  816TIP3    H123863   1.719   6.843  13.349  0.1720  0.1232  1.2502
  816TIP3    H223864   1.865   6.847  13.310  0.0076 -0.4655  0.5597
  817TIP3   OH223865   4.288   0.366  12.371  0.3293 -0.4791  0.2548
  817TIP3    H123866   4.240   0.327  12.298  1.5088 -0.1724 -0.7099
  817TIP3    H223867   4.378   0.338  12.357  0.6609  0.0670  1.2759
  818TIP3   OH223868   5.785   0.268  10.747  0.4246  0.0591  0.1526
  818TIP3    H123869   5.712   0.218  10.784 -0.0693 -0.5118 -1.5205
  818TIP3    H223870   5.745   0.321  10.677  1.5671 -0.1026 -0.6397
  819TIP3   OH223871   6.381   6.502  10.296  0.0791 -0.0743 -0.5157
  819TIP3    H123872   6.464   6.513  10.342  1.3802 -3.6905 -1.7329
  819TIP3    H223873   6.406   6.501  10.203 -0.9976 -2.9355 -0.8295
  820TIP3   OH223874   4.135   6.976   0.806 -0.2368  0.3989  0.3902
  820TIP3    H123875   4.175   7.057   0.773 -0.5849  0.5077  0.2335
  820TIP3    H223876   4.108   6.998   0.895 -1.1669  0.7419  0.0292
  821TIP3   OH223877   6.543   2.844   0.180  0.0277  0.0348  0.0382
  821TIP3    H123878   6.542   2.781   0.108  1.4886  0.0849 -0.0320
  821TIP3    H223879   6.624   2.893   0.168 -0.1732  0.6565  1.1857
  822TIP3   OH223880   4.497   0.205   9.898 -0.1817 -0.4026 -0.0659
  822TIP3    H123881   4.466   0.184   9.810  0.7205  0.5751 -0.6387
  822TIP3    H223882   4.435   0.272   9.929  0.2767  0.2289 -0.4944
  823TIP3   OH223883   3.300   1.804  10.571  0.5351 -0.1348 -0.1300
  823TIP3    H123884   3.375   1.808  10.631  3.5154  0.0899 -3.6947
  823TIP3    H223885   3.299   1.714  10.540  0.4280  0.3014 -1.4216
  824TIP3   OH223886   4.008   1.947  12.359 -0.3723 -0.1461 -0.5498
  824TIP3    H123887   3.935   1.959  12.419 -1.0037 -0.7057 -1.2023
  824TIP3    H223888   4.045   1.862  12.383 -0.1300 -0.0079 -0.4316
  825TIP3   OH223889   2.036   1.458  10.137  0.1678 -0.4816 -0.2300
  825TIP3    H123890   2.097   1.405  10.084  1.9758  0.9906  0.3048
  825TIP3    H223891   2.002   1.523  10.076  0.5471 -0.1661 -0.1088
  826TIP3   OH223892   4.714   2.728  10.247 -0.0685  0.0958  0.6275
  826TIP3    H123893   4.744   2.697  10.161  2.4914  0.9448  1.1839
  826TIP3    H223894   4.620   2.744  10.234 -0.1535 -1.7292 -1.4260
  827TIP3   OH223895   0.017   0.538  12.512  0.2391  0.4082  0.0215
  827TIP3    H123896   0.054   0.523  12.425  1.7829  1.4677  0.4847
  827TIP3    H223897   0.013   0.451  12.552  0.7928  0.0953 -0.6019
  828TIP3   OH223898   3.937   0.206   9.594  0.5797  0.0168  0.1944
  828TIP3    H123899   4.011   0.149   9.611 -1.0758 -2.1129  0.4445
  828TIP3    H223900   3.886   0.204   9.675 -0.3697  0.5092 -0.3828
  829TIP3   OH223901   3.730   2.011  10.843 -0.4426  0.4338 -0.2925
  829TIP3    H123902   3.816   1.977  10.819 -0.5687  0.1498 -0.3481
  829TIP3    H223903   3.746   2.063  10.922  0.0212  1.6743 -1.1934
  830TIP3   OH223904   5.850   6.965  10.276 -0.2179 -0.4044 -0.6561
  830TIP3    H123905   5.827   7.057  10.267 -2.1222 -0.8014 -0.1130
  830TIP3    H223906   5.876   6.938  10.188  0.4421  0.6615 -0.7953
  831TIP3   OH223907   2.166   0.521  14.064  0.4486 -0.2538  0.1361
  831TIP3    H123908   2.088   0.542  14.116 -0.3544 -0.3635 -1.0138
  831TIP3    H223909   2.239   0.540  14.122 -0.4646 -1.8004  1.8640
  832TIP3   OH223910   5.263   1.318  10.109 -0.0228 -0.4333  0.2790
  832TIP3    H123911   5.337   1.308  10.049 -1.4791 -3.6817 -1.0642
  832TIP3    H223912   5.191   1.347  10.053 -0.4302  0.2708  1.1527
  833TIP3   OH223913   4.142   2.036   9.895  0.1124  0.2626 -0.8433
  833TIP3    H123914   4.053   2.040   9.859 -0.2756  3.7661  0.2659
  833TIP3    H223915   4.129   2.031   9.989  1.1235 -0.6307 -0.7471
  834TIP3   OH223916   5.147   2.726  10.336 -0.1954 -0.5413 -0.0465
  834TIP3    H123917   5.203   2.757  10.266 -1.1560 -2.0143 -1.5048
  834TIP3    H223918   5.063   2.768  10.320  0.4984  1.8921  2.3034
  835TIP3   OH223919   5.381   5.920  13.331  0.4255  0.2121  0.3332
  835TIP3    H123920   5.390   5.829  13.304 -1.5260 -0.2502  1.1079
  835TIP3    H223921   5.400   5.971  13.253 -0.9003 -0.9563 -0.7628
  836TIP3   OH223922   5.263   4.264  11.273  0.2199  0.1468  0.0236
  836TIP3    H123923   5.323   4.338  11.265  0.4309 -0.0875 -0.6074
  836TIP3    H223924   5.209   4.268  11.194 -0.1477 -0.0417  0.2615
  837TIP3   OH223925   5.999   6.617  10.623 -0.3932 -0.0521  0.2647
  837TIP3    H123926   6.045   6.538  10.651 -0.6450 -0.1712  0.3499
  837TIP3    H223927   6.047   6.648  10.546 -0.5131 -0.4920  0.0166
  838TIP3   OH223928   5.529   0.807  15.117 -0.1076 -0.0404  0.4091
  838TIP3    H123929   5.591   0.814  15.045 -3.2303 -0.1447 -2.3908
  838TIP3    H223930   5.551   0.879  15.176  2.8635 -0.3107 -0.3377
  839TIP3   OH223931   2.832   7.133  12.593 -0.3521  0.1320  0.8156
  839TIP3    H123932   2.818   7.113  12.500 -1.2138  0.4143  0.8841
  839TIP3    H223933   2.806   7.054  12.639 -1.1006  0.4296  0.9003
  840TIP3   OH223934   6.783   5.725  11.249  0.0974  0.3102 -0.0526
  840TIP3    H123935   6.838   5.733  11.171  0.4057  0.8438  0.2164
  840TIP3    H223936   6.779   5.813  11.284  0.1325  0.0298  0.6575
  841TIP3   OH223937   1.617   4.965   9.998  0.2211  0.1267  0.4626
  841TIP3    H123938   1.542   5.018   9.969 -0.7246 -2.4359 -1.9623
  841TIP3    H223939   1.581   4.908  10.066  0.3777  0.1106  0.5329
  842TIP3   OH223940   4.751   6.632  10.639  0.2545  0.0833 -0.5126
  842TIP3    H123941   4.737   6.642  10.544 -0.0088  0.2180 -0.4601
  842TIP3    H223942   4.696   6.700  10.678  0.2814 -0.0450 -0.2558
  843TIP3   OH223943   6.333   0.685  10.377 -0.3279 -0.1226 -0.0962
  843TIP3    H123944   6.309   0.635  10.455 -1.2950  4.5588  2.7620
  843TIP3    H223945   6.428   0.697  10.385 -0.2226 -0.7086 -0.3724
  844TIP3   OH223946   5.908   1.173  12.152 -0.1968 -1.0374  0.0510
  844TIP3    H123947   5.916   1.197  12.244 -2.0872  0.8705 -0.2432
  844TIP3    H223948   5.995   1.190  12.115  0.1129 -0.2160  1.1262
  845TIP3   OH223949   5.047   7.101  11.261 -0.3200  0.0781  0.1223
  845TIP3    H123950   5.131   7.122  11.303  0.4393  2.1993 -2.3362
  845TIP3    H223951   4.981   7.136  11.321  0.7171  2.1719  0.0950
  846TIP3   OH223952   5.065   3.336  10.501 -0.3087  0.0129  0.0895
  846TIP3    H123953   5.040   3.301  10.586 -2.2190  2.7761  0.7287
  846TIP3    H223954   4.984   3.372  10.464  0.1670 -2.3724 -3.5548
  847TIP3   OH223955   5.731   7.063  13.083  0.3718  0.4313 -0.3123
  847TIP3    H123956   5.788   7.003  13.130  0.6882 -1.4925 -3.0529
  847TIP3    H223957   5.652   7.012  13.064 -0.1768  1.4964 -0.9816
  848TIP3   OH223958   4.422   1.510  13.427 -0.0815  0.3039  0.0804
  848TIP3    H123959   4.454   1.593  13.463  0.0238 -0.1992  1.1810
  848TIP3    H223960   4.356   1.480  13.490  0.1353 -0.6207 -0.1237
  849TIP3   OH223961   5.037   7.018  13.891  0.1615  0.0983 -0.0060
  849TIP3    H123962   5.002   7.030  13.979  0.2146 -0.4550  0.0934
  849TIP3    H223963   5.088   7.097  13.874 -1.8242  1.3039 -0.4863
  850TIP3   OH223964   5.135   1.982  12.219 -0.1463  0.4682 -0.2981
  850TIP3    H123965   5.074   2.055  12.215 -0.3477  0.2403 -1.7209
  850TIP3    H223966   5.170   1.975  12.130  1.7070  0.3890  0.4085
  851TIP3   OH223967   6.642   6.839  11.442  0.1753 -0.5548  0.1137
  851TIP3    H123968   6.672   6.882  11.522  0.0387  0.0373 -0.1486
  851TIP3    H223969   6.683   6.752  11.444  0.2186 -0.5211  0.7926
  852TIP3   OH223970   6.479   0.802  12.959 -0.4471  0.3617  0.4613
  852TIP3    H123971   6.421   0.764  12.894  1.1954 -0.1641 -0.7081
  852TIP3    H223972   6.496   0.731  13.021  1.6519 -0.5229 -1.0650
  853TIP3   OH223973   1.466   4.842   0.361  0.0500 -0.4157  0.0252
  853TIP3    H123974   1.464   4.938   0.367 -1.2276 -0.5344  1.4520
  853TIP3    H223975   1.382   4.813   0.395 -0.5118 -1.9620 -2.5062
  854TIP3   OH223976   5.009   5.671   9.899 -0.8283  0.0372 -0.6012
  854TIP3    H123977   4.968   5.606   9.841 -0.3573 -0.4135 -0.4336
  854TIP3    H223978   5.091   5.694   9.856 -0.4863 -0.2828 -0.1327
  855TIP3   OH223979   4.007   5.388  11.798  0.0737  0.5166  1.0833
  855TIP3    H123980   4.086   5.334  11.801  0.1890  0.6334  0.1955
  855TIP3    H223981   3.937   5.327  11.772 -0.0780  0.4840  1.5484
  856TIP3   OH223982   5.925   6.205  10.591  0.3342  0.3897  0.2905
  856TIP3    H123983   5.908   6.296  10.567  0.9502  0.0916 -1.3408
  856TIP3    H223984   5.911   6.156  10.510  0.0940 -0.9623  1.1338
  857TIP3   OH223985   5.108   6.821  12.318 -0.2978 -0.2253  0.2493
  857TIP3    H123986   5.036   6.840  12.258 -0.3648 -0.7554  0.1575
  857TIP3    H223987   5.125   6.905  12.362 -1.0463 -0.1213  0.3587
  858TIP3   OH223988   3.392   6.786  12.781 -0.3205 -0.7010 -0.5565
  858TIP3    H123989   3.344   6.758  12.859 -1.1359  0.5458 -0.5899
  858TIP3    H223990   3.332   6.847  12.737  0.7693 -0.1594 -1.3169
  859TIP3   OH223991   5.335   0.287  11.256  0.0569 -0.1647  0.1929
  859TIP3    H123992   5.328   0.362  11.315  0.3066 -0.0556  0.0830
  859TIP3    H223993   5.360   0.214  11.312 -1.3479 -0.4264  0.4901
  860TIP3   OH223994   5.353   2.988  13.095 -0.2681 -0.0428 -0.7832
  860TIP3    H123995   5.399   2.963  13.176 -0.8294  0.9781 -0.1221
  860TIP3    H223996   5.313   3.072  13.117 -3.7546 -1.6446 -0.8364
  861TIP3   OH223997   5.341   0.487  11.781 -0.0835  0.3097 -0.0485
  861TIP3    H123998   5.287   0.490  11.860  0.4137  1.4792  0.2514
  861TIP3    H223999   5.399   0.412  11.795 -0.3456  0.2013  0.4670
  862TIP3   OH224000   4.140   2.299  10.994 -0.3556 -0.0007 -0.6972
  862TIP3    H124001   4.055   2.307  11.038 -0.2493 -0.4935 -0.3982
  862TIP3    H224002   4.151   2.205  10.980  0.3628  0.0245 -0.2973
  863TIP3   OH224003   6.186   5.600  11.537  0.2356  0.6997 -0.1799
  863TIP3    H124004   6.278   5.587  11.511  0.5725  1.9017  0.3938
  863TIP3    H224005   6.158   5.514  11.569  1.4248  0.5348  0.4581
  864TIP3   OH224006   5.346   5.605   9.865  0.0094 -0.1879  0.0013
  864TIP3    H124007   5.300   5.629   9.945 -2.5124  1.5600 -1.8640
  864TIP3    H224008   5.310   5.665   9.799  0.5160 -2.9175 -2.8436
  865TIP3   OH224009   0.073   5.108  11.542  0.2666  0.5243  0.4620
  865TIP3    H124010   0.067   5.193  11.498 -0.2185 -0.3544 -1.1909
  865TIP3    H224011   0.009   5.053  11.497  1.6081 -1.1438  0.5422
  866TIP3   OH224012   4.658   6.433  10.322 -0.4471  0.1791  0.1385
  866TIP3    H124013   4.697   6.351  10.354 -2.2366 -1.5369 -1.8613
  866TIP3    H224014   4.700   6.447  10.237 -1.0783  0.6508 -0.0982
  867TIP3   OH224015   4.845   1.164  10.055  0.4189  0.3505  0.6162
  867TIP3    H124016   4.780   1.110  10.101  0.3208 -0.4435 -0.4293
  867TIP3    H224017   4.900   1.101  10.009  0.1670  1.1450 -0.8053
  868TIP3   OH224018   2.617   2.022  13.604  0.3556  0.2853  0.1080
  868TIP3    H124019   2.543   2.079  13.586 -1.5731 -1.8366  1.1376
  868TIP3    H224020   2.669   2.024  13.523  0.4490  3.5666  0.1648
  869TIP3   OH224021   1.819   2.045  13.586  0.4594 -0.1021 -0.0930
  869TIP3    H124022   1.864   2.109  13.641  0.2870  1.1159 -1.3231
  869TIP3    H224023   1.806   2.091  13.503 -0.4250 -1.4582 -0.7178
  870TIP3   OH224024   3.498   6.647  12.147  0.0237 -0.8863 -0.5221
  870TIP3    H124025   3.434   6.576  12.141  0.4171 -1.2216 -0.7491
  870TIP3    H224026   3.563   6.627  12.080 -0.4399  0.2871 -1.3492
  871TIP3   OH224027   3.480   0.546  10.915 -0.3519 -0.6559 -0.0812
  871TIP3    H124028   3.419   0.597  10.969  0.3653 -0.0405  0.1503
  871TIP3    H224029   3.492   0.598  10.836 -2.5965 -2.2806 -1.5317
  872TIP3   OH224030   3.798   0.906  10.743  0.0547 -0.6193  0.0773
  872TIP3    H124031   3.716   0.893  10.695  0.7987 -0.6938 -1.2084
  872TIP3    H224032   3.850   0.828  10.722  0.9089 -0.0123 -0.0996
  873TIP3   OH224033   4.562   5.733  11.287 -0.3632  0.2651 -0.3421
  873TIP3    H124034   4.519   5.718  11.202  0.2839 -0.1296 -0.6067
  873TIP3    H224035   4.575   5.828  11.291 -0.5593  0.3053 -0.6028
  874TIP3   OH224036   4.386   0.121  10.416 -0.0666 -0.6774 -0.2157
  874TIP3    H124037   4.292   0.103  10.414 -0.0154 -0.9563 -0.0905
  874TIP3    H224038   4.427   0.035  10.425  0.2423 -0.6563 -1.3670
  875TIP3   OH224039   5.977   5.152  10.785 -0.6128 -0.3977  0.4194
  875TIP3    H124040   5.998   5.088  10.853 -0.6257 -2.4092 -1.3934
  875TIP3    H224041   5.888   5.128  10.757 -1.4053  1.6711  1.0321
  876TIP3   OH224042   5.140   3.207  14.581  0.0636 -0.3970 -0.7361
  876TIP3    H124043   5.217   3.167  14.623 -0.9693 -1.2274  0.4029
  876TIP3    H224044   5.116   3.145  14.512 -0.8830 -1.2453  0.3275
  877TIP3   OH224045   5.751   5.040  11.152  0.0296  0.4142 -0.3125
  877TIP3    H124046   5.800   5.107  11.104  1.6281 -1.2609 -1.0836
  877TIP3    H224047   5.718   5.085  11.229  1.9944  1.8420 -0.2591
  878TIP3   OH224048   3.710   1.038  10.214 -0.2702  0.5719 -0.3209
  878TIP3    H124049   3.682   1.033  10.123 -0.3166 -0.0661 -0.2728
  878TIP3    H224050   3.635   1.074  10.261 -0.8559 -0.7043 -0.2647
  879TIP3   OH224051   5.550   6.710  12.660  0.4237 -0.7182  0.4923
  879TIP3    H124052   5.579   6.702  12.751 -0.0478 -2.6658  0.4993
  879TIP3    H224053   5.566   6.623  12.623 -0.3417 -0.2318 -0.9967
  880TIP3   OH224054   6.917   3.977  10.936 -0.2650 -0.4970  0.2383
  880TIP3    H124055   6.846   3.934  10.984  1.1723 -0.7081  2.2031
  880TIP3    H224056   6.918   3.932  10.851 -1.7759 -1.2012  0.5640
  881TIP3   OH224057   0.919   6.595  12.179  0.2522  0.5628  0.3440
  881TIP3    H124058   0.881   6.602  12.267 -0.8645  1.6860 -0.2021
  881TIP3    H224059   0.854   6.545  12.129  0.1927  1.1599 -0.1951
  882TIP3   OH224060   4.307   4.140  13.454 -0.0097  0.2390  0.3286
  882TIP3    H124061   4.332   4.211  13.512  1.6255 -0.1174  0.0783
  882TIP3    H224062   4.333   4.170  13.366 -0.4479 -0.1483  0.0611
  883TIP3   OH224063   3.421   1.331  10.094 -0.2752  0.1156 -0.5290
  883TIP3    H124064   3.334   1.294  10.087 -1.0022  1.7131 -0.1324
  883TIP3    H224065   3.459   1.320  10.006 -0.8235 -0.6735 -0.6683
  884TIP3   OH224066   7.035   6.123  12.925 -0.5058 -0.4148  0.0015
  884TIP3    H124067   7.077   6.201  12.889 -1.5778  0.2145  0.0970
  884TIP3    H224068   6.970   6.098  12.859 -0.6027 -0.8665  0.2643
  885TIP3   OH224069   3.156   2.781  10.759  0.2951 -0.4395  0.3618
  885TIP3    H124070   3.178   2.760  10.850 -1.9962  0.5833  1.1944
  885TIP3    H224071   3.211   2.856  10.737  1.1773 -0.9723  0.7568
  886TIP3   OH224072   0.330   6.513   9.983 -0.2798  0.9048 -0.1382
  886TIP3    H124073   0.254   6.461  10.009  0.4545 -0.7109 -1.1600
  886TIP3    H224074   0.405   6.465  10.017  0.4987  0.4692 -2.3994
  887TIP3   OH224075   5.539   0.885  11.272  0.3196 -0.0052 -0.2092
  887TIP3    H124076   5.508   0.801  11.306 -0.1754  1.2982  2.7303
  887TIP3    H224077   5.471   0.913  11.211 -1.0903 -0.2779  1.2126
  888TIP3   OH224078   5.576   0.090  10.292 -0.0243  0.2596 -0.3051
  888TIP3    H124079   5.576   0.184  10.273 -2.0678  0.0498 -1.4320
  888TIP3    H224080   5.643   0.054  10.233 -1.3945  0.5971 -2.1028
  889TIP3   OH224081   5.217   3.636  11.973  0.5299  0.0750  0.4676
  889TIP3    H124082   5.126   3.609  11.966  0.0112  1.0247  2.9867
  889TIP3    H224083   5.214   3.732  11.973  1.7553  0.1401 -1.7962
  890TIP3   OH224084   4.513   5.190  12.961 -0.6993 -0.0135  0.1693
  890TIP3    H124085   4.558   5.274  12.961  0.1851 -0.4245  3.1481
  890TIP3    H224086   4.420   5.213  12.969 -0.7718  0.7292 -2.3619
  891TIP3   OH224087   4.665   0.559  10.542 -0.9809 -0.8500  0.1998
  891TIP3    H124088   4.642   0.599  10.458 -0.5621 -2.5477 -0.7475
  891TIP3    H224089   4.605   0.485  10.551 -1.5970 -0.1877  1.8277
  892TIP3   OH224090   4.307   1.650  10.319 -0.4174  0.7009  0.1805
  892TIP3    H124091   4.224   1.663  10.366  0.0555 -0.7904  1.4455
  892TIP3    H224092   4.302   1.711  10.245 -1.8158  2.0068  1.3174
  893TIP3   OH224093   5.412   2.916  10.287 -0.3469  0.3117 -0.6672
  893TIP3    H124094   5.376   2.869  10.362 -0.0379  0.7270 -0.2565
  893TIP3    H224095   5.491   2.867  10.264  0.8878  1.5691  0.7999
  894TIP3   OH224096   4.844   0.546  10.762  0.2562  0.1736 -0.0099
  894TIP3    H124097   4.800   0.591  10.689  0.2486  0.5669  0.2359
  894TIP3    H224098   4.879   0.466  10.723 -0.9902 -0.3179 -0.1385
  895TIP3   OH224099   5.260   1.002  11.762 -0.4240 -0.0431 -0.6109
  895TIP3    H124100   5.251   1.060  11.686 -1.1675  1.1306  0.3515
  895TIP3    H224101   5.273   0.915  11.724  0.9989  0.7727 -2.0828
  896TIP3   OH224102   3.609   4.507   9.826  0.1101  0.0552 -0.3327
  896TIP3    H124103   3.595   4.591   9.870 -3.2822 -0.9343  0.6224
  896TIP3    H224104   3.698   4.482   9.850 -0.3012  1.3788  2.8220
  897TIP3   OH224105   6.240   6.000   9.977  0.1977 -0.6138 -0.4963
  897TIP3    H124106   6.299   6.047   9.918 -0.1771  0.6390  0.1006
  897TIP3    H224107   6.194   5.938   9.922  1.1915 -0.7380 -1.1888
  898TIP3   OH224108   1.609   1.588  11.088 -1.1131  0.0260 -0.0761
  898TIP3    H124109   1.618   1.584  11.184 -2.0415 -0.4526 -0.0095
  898TIP3    H224110   1.695   1.559  11.056 -1.4301 -1.7208  0.6002
  899TIP3   OH224111   6.909   5.342  10.700 -0.5743 -0.8511  0.0360
  899TIP3    H124112   7.002   5.324  10.683 -0.2690  0.4362  0.2324
  899TIP3    H224113   6.878   5.265  10.747  1.1151 -0.1855  2.4030
  900TIP3   OH224114   2.981   0.010  10.909 -0.1582  0.6431  0.0244
  900TIP3    H124115   2.892  -0.020  10.890 -0.0595 -0.1975  0.8846
  900TIP3    H224116   2.971   0.102  10.932 -0.9034  0.3622  0.8515
  901TIP3   OH224117   2.152   6.259  10.902  0.4177 -0.3715 -0.1183
  901TIP3    H124118   2.143   6.182  10.958  0.5268 -0.7368 -0.5960
  901TIP3    H224119   2.190   6.326  10.959  0.1585 -0.6141  0.3467
  902TIP3   OH224120   3.877   7.104  10.136  0.1692  0.0434  0.6264
  902TIP3    H124121   3.902   7.165  10.067 -0.5388  0.1288  0.4422
  902TIP3    H224122   3.828   7.157  10.199 -2.3297 -0.7325 -0.5976
  903TIP3   OH224123   6.798   1.810  10.239  0.1981 -0.1268  0.1071
  903TIP3    H124124   6.789   1.903  10.219 -2.2555 -0.3462  0.0454
  903TIP3    H224125   6.854   1.776  10.170 -3.2602  0.2973 -3.0904
  904TIP3   OH224126   6.217   6.314  10.463 -0.1115  0.4922  0.0004
  904TIP3    H124127   6.296   6.358  10.432  1.3697 -2.1501 -0.1041
  904TIP3    H224128   6.196   6.250  10.394 -0.9262 -0.5010  1.1379
  905TIP3   OH224129   0.102   7.072  11.057  0.0706 -0.0685  0.1603
  905TIP3    H124130   0.135   6.982  11.056  1.2742  0.3012  2.2722
  905TIP3    H224131   0.103   7.099  10.966 -1.0745 -2.4626 -0.6037
  906TIP3   OH224132   4.368   5.015  12.617 -0.7696 -0.4468 -0.4473
  906TIP3    H124133   4.381   5.101  12.656 -0.9587 -0.2599 -0.7916
  906TIP3    H224134   4.407   5.022  12.530 -0.4074 -0.8415 -0.3190
  907TIP3   OH224135   4.955   5.896  11.250 -0.1428  0.1886 -0.2904
  907TIP3    H124136   4.951   5.989  11.273  0.3695  0.5023 -1.4277
  907TIP3    H224137   4.937   5.850  11.332 -1.4339  1.2954  0.0526
  908TIP3   OH224138   1.956   6.949   9.700 -0.0319  0.0356  0.1503
  908TIP3    H124139   1.894   6.913   9.637  0.1185 -0.3902  0.2436
  908TIP3    H224140   1.994   6.872   9.743  0.9752  0.2715 -0.3092
  909TIP3   OH224141   4.732   6.643  11.767 -0.4683 -0.1133 -0.6276
  909TIP3    H124142   4.697   6.725  11.803  1.0873  1.1508 -1.9252
  909TIP3    H224143   4.753   6.591  11.845 -2.2143  0.3697  0.2056
  910TIP3   OH224144   5.327   4.848  10.369  0.2173  0.7099 -0.4943
  910TIP3    H124145   5.384   4.892  10.305  0.2054  0.3531 -0.7522
  910TIP3    H224146   5.239   4.878  10.348 -0.0185 -0.9004 -1.8889
  911TIP3   OH224147   5.264   3.619   0.536 -0.2337 -0.2314 -1.0013
  911TIP3    H124148   5.291   3.529   0.550  0.9276 -0.0761 -2.1226
  911TIP3    H224149   5.307   3.645   0.454 -1.4568  0.9707 -1.2891
  912TIP3   OH224150   3.137   7.093  12.446 -0.2486  0.1492  0.1448
  912TIP3    H124151   3.109   7.181  12.474 -0.9188  0.5920 -1.8395
  912TIP3    H224152   3.105   7.085  12.356  3.1889 -0.6023 -1.0791
  913TIP3   OH224153   1.093   4.888   0.017 -0.0942 -0.3578 -0.2936
  913TIP3    H124154   1.128   4.974  -0.001 -1.8033  0.1832 -1.1573
  913TIP3    H224155   1.127   4.832  -0.053  0.7433 -0.3180  0.0787
  914TIP3   OH224156   5.248   1.837  11.766 -0.4303 -0.5573  0.0437
  914TIP3    H124157   5.325   1.818  11.820 -0.1063 -1.2352 -0.6411
  914TIP3    H224158   5.271   1.917  11.719 -1.0421  0.5005  1.5174
  915TIP3   OH224159   3.733   2.826  12.239  0.4434  0.4168  0.2578
  915TIP3    H124160   3.782   2.883  12.181  0.4944  0.2361  0.1245
  915TIP3    H224161   3.746   2.864  12.326 -1.2253  1.8134 -0.0761
  916TIP3   OH224162   5.756   4.527  12.688 -0.0374  0.0124  0.7873
  916TIP3    H124163   5.710   4.444  12.677  0.7123 -0.3463  0.2590
  916TIP3    H224164   5.694   4.584  12.733 -1.4355 -0.0694 -1.0075
  917TIP3   OH224165   4.581   6.973  10.060  0.0417 -0.4267  0.6850
  917TIP3    H124166   4.529   7.048  10.090  1.7510  1.3859 -0.7321
  917TIP3    H224167   4.670   6.992  10.089  0.8266 -1.0044 -1.2171
  918TIP3   OH224168   4.891   0.650  10.307 -0.3562  0.3361  0.4915
  918TIP3    H124169   4.908   0.556  10.304 -1.6595  0.0616  1.3967
  918TIP3    H224170   4.836   0.668  10.230  1.4355  0.7023 -0.7356
  919TIP3   OH224171   0.265   0.987  10.285 -0.3734  0.1686  0.5066
  919TIP3    H124172   0.264   0.901  10.326  0.7144  0.4069  1.0397
  919TIP3    H224173   0.178   1.023  10.304 -0.0108  0.1337  2.3199
  920TIP3   OH224174   4.710   6.758   9.475 -0.3873 -0.2069 -0.4288
  920TIP3    H124175   4.721   6.840   9.427 -1.2726  0.7174  0.9021
  920TIP3    H224176   4.785   6.704   9.450  0.6610  1.3359 -0.6590
  921TIP3   OH224177   3.808   0.257  10.498 -0.2755 -0.5146  0.0900
  921TIP3    H124178   3.896   0.221  10.495 -0.3673 -0.6828 -0.7752
  921TIP3    H224179   3.799   0.291  10.587  2.0174  2.8080 -0.8379
  922TIP3   OH224180   3.173   2.689   0.003  0.1091 -0.4519  0.6625
  922TIP3    H124181   3.222   2.763   0.041 -0.7858  0.0551  0.8302
  922TIP3    H224182   3.200   2.687  -0.088  0.9040 -0.5479  0.8929
  923TIP3   OH224183   3.692   0.989   9.942  0.1578 -0.0262  0.8399
  923TIP3    H124184   3.784   0.975   9.922  0.2997  1.6594  0.1801
  923TIP3    H224185   3.650   0.998   9.856 -0.3078  0.9976  1.1624
  924TIP3   OH224186   4.673   2.216  10.761 -0.5288 -0.3418 -0.4000
  924TIP3    H124187   4.590   2.172  10.741 -1.0394  1.5177 -2.7076
  924TIP3    H224188   4.650   2.308  10.768  1.1503  0.0423  0.3153
  925TIP3   OH224189   3.483   1.867  12.161  0.0903 -0.2819 -0.0425
  925TIP3    H124190   3.459   1.923  12.235  0.3768 -1.5315  1.0273
  925TIP3    H224191   3.570   1.834  12.184  0.5876  0.0495 -1.3871
  926TIP3   OH224192   4.492   6.100  14.990 -0.3704  0.0283  0.4233
  926TIP3    H124193   4.571   6.119  14.940 -0.2404 -0.7092  0.3505
  926TIP3    H224194   4.424   6.153  14.948  0.4487  2.0736  1.6051
  927TIP3   OH224195   6.132   1.898  10.453  0.4700  0.1438  0.4734
  927TIP3    H124196   6.057   1.890  10.512  1.6418  0.7193  2.0913
  927TIP3    H224197   6.096   1.933  10.372 -1.0470  0.1524  1.1399
  928TIP3   OH224198   2.257   5.220  10.850 -0.0998 -0.3311  0.2705
  928TIP3    H124199   2.294   5.298  10.808  0.8524 -1.6356 -1.3544
  928TIP3    H224200   2.254   5.243  10.943  0.9166  1.3611 -0.0904
  929TIP3   OH224201   2.384   6.014  10.295  0.0896  0.2871  0.1295
  929TIP3    H124202   2.323   5.942  10.310  1.6855 -1.7424 -2.6028
  929TIP3    H224203   2.332   6.080  10.249 -0.7744 -0.1994  0.3997
  930TIP3   OH224204   5.340   3.930  15.152  0.3984 -0.0712 -0.0329
  930TIP3    H124205   5.313   3.843  15.181  1.7491 -0.6484 -0.4504
  930TIP3    H224206   5.336   3.926  15.057  1.2639  0.0500 -0.0763
  931TIP3   OH224207   5.082   0.449  12.877 -0.7197  0.2904 -0.2980
  931TIP3    H124208   5.118   0.527  12.918 -1.4352 -0.7474  2.3763
  931TIP3    H224209   4.987   0.463  12.878 -0.8968 -0.8945  0.8235
  932TIP3   OH224210   1.729   5.731  11.946  0.1975  0.9684  0.7074
  932TIP3    H124211   1.743   5.806  12.003 -0.0310 -1.4135  4.1026
  932TIP3    H224212   1.639   5.703  11.965  0.5547 -0.6250  0.1418
  933TIP3   OH224213   3.307   7.047  10.060 -1.1421 -0.5057 -0.0430
  933TIP3    H124214   3.364   7.040   9.983 -0.5835  0.3012  0.2955
  933TIP3    H224215   3.336   7.126  10.104 -0.7964 -1.4980  1.5380
  934TIP3   OH224216   3.795   7.012   0.785  0.1609  0.2978 -0.0502
  934TIP3    H124217   3.890   7.024   0.786  0.2115 -0.1418  0.4196
  934TIP3    H224218   3.769   7.030   0.694  0.8441 -0.7350 -0.4568
  935TIP3   OH224219   1.891   3.099  12.054 -0.1561 -0.3304 -0.0076
  935TIP3    H124220   1.833   3.052  12.116 -1.2250 -0.2673 -0.9389
  935TIP3    H224221   1.953   3.033  12.025  0.1452 -0.4474  0.8744
  936TIP3   OH224222   3.533   0.751  12.665 -0.0481 -1.1623  0.2145
  936TIP3    H124223   3.490   0.705  12.738 -0.6868  1.1149  1.3039
  936TIP3    H224224   3.476   0.736  12.590 -1.2760 -0.5175  1.0072
  937TIP3   OH224225   4.815   0.042  11.469  0.6679  0.0241  0.7467
  937TIP3    H124226   4.830   0.031  11.563 -1.9713  1.7208  1.4476
  937TIP3    H224227   4.854   0.127  11.449 -0.8825  0.7838  0.8690
  938TIP3   OH224228   2.664   0.093   9.674 -0.6900 -0.0806  0.5176
  938TIP3    H124229   2.751   0.132   9.673 -0.8583  0.2902 -1.6784
  938TIP3    H224230   2.678   0.003   9.703  0.5399 -0.3164 -0.8045
  939TIP3   OH224231   4.813   1.561  11.240 -0.4691  0.4310 -0.1661
  939TIP3    H124232   4.789   1.478  11.198  0.1220 -0.0398  0.4220
  939TIP3    H224233   4.797   1.545  11.334 -0.2524  0.9499 -0.0450
  940TIP3   OH224234   3.859   5.137  13.862  0.2799 -0.3803 -0.0148
  940TIP3    H124235   3.771   5.139  13.824 -0.4853 -1.8794  1.6036
  940TIP3    H224236   3.859   5.210  13.924  0.5622  0.3259 -0.8491
  941TIP3   OH224237   7.109   7.124  10.017  0.6195  0.3550 -0.2943
  941TIP3    H124238   7.194   7.082  10.003  0.6238  0.5121 -0.7363
  941TIP3    H224239   7.047   7.071   9.965  0.6373  0.9387 -0.9200
  942TIP3   OH224240   2.596   3.061  11.548 -0.8738  0.0214  0.0189
  942TIP3    H124241   2.612   2.968  11.566  0.3972  0.2339 -0.0184
  942TIP3    H224242   2.641   3.107  11.618  1.0382  0.7189 -1.6271
  943TIP3   OH224243   4.495   4.232  12.901 -0.0142 -0.3121  0.3354
  943TIP3    H124244   4.462   4.293  12.967  0.8642  0.8539 -0.2871
  943TIP3    H224245   4.432   4.241  12.828 -1.0145 -1.6390  1.0192
  944TIP3   OH224246   4.329   1.297  10.529  0.4129  0.0581 -0.0415
  944TIP3    H124247   4.326   1.221  10.471  2.7614 -0.3525  0.3257
  944TIP3    H224248   4.389   1.358  10.487  1.8269 -0.0645  1.7214
  945TIP3   OH224249   4.376   0.984  10.403  0.0946  0.0081  0.3160
  945TIP3    H124250   4.467   1.016  10.406  0.2261 -0.4870  1.9910
  945TIP3    H224251   4.371   0.935  10.321  0.6224  2.1266 -1.0434
  946TIP3   OH224252   5.409   2.688  11.180  0.4416 -0.7032 -0.8690
  946TIP3    H124253   5.412   2.616  11.242  1.7482 -0.7036 -0.9184
  946TIP3    H224254   5.498   2.692  11.143  0.2009  0.4958 -1.3466
  947TIP3   OH224255   2.488   5.053  10.043 -0.3095 -0.2591 -0.0027
  947TIP3    H124256   2.489   4.992   9.969  0.6612 -0.7548  0.4190
  947TIP3    H224257   2.439   5.129  10.010  4.5262  1.8017 -2.9655
  948TIP3   OH224258   4.071   2.868  10.683 -0.7296 -0.3554 -0.3259
  948TIP3    H124259   4.027   2.818  10.751  0.3938 -1.0571 -0.1010
  948TIP3    H224260   4.007   2.874  10.612 -0.5456 -2.9377 -0.7321
  949TIP3   OH224261   4.513   2.464   0.368 -0.0080 -0.4496  0.2912
  949TIP3    H124262   4.466   2.392   0.409 -0.2350 -0.4331  0.0585
  949TIP3    H224263   4.470   2.476   0.284 -0.2809  0.2854  0.5391
  950TIP3   OH224264   4.840   0.383  12.291  0.1592  0.7559 -0.2093
  950TIP3    H124265   4.749   0.377  12.320  0.5002 -0.2461  0.6343
  950TIP3    H224266   4.844   0.325  12.215  0.3652 -0.0848  0.4346
  951TIP3   OH224267   2.578   2.251  11.469  0.5073 -0.6304 -0.2469
  951TIP3    H124268   2.518   2.181  11.441  1.7278 -1.7959 -0.0167
  951TIP3    H224269   2.571   2.252  11.564 -3.4683  3.1806 -0.4140
  952TIP3   OH224270   1.842   4.878  11.372 -0.3493 -1.1289 -0.2765
  952TIP3    H124271   1.909   4.810  11.382 -0.1571 -0.7691  0.9255
  952TIP3    H224272   1.796   4.853  11.292 -1.4802 -3.7065  1.1034
  953TIP3   OH224273   0.036   5.146  13.523 -0.0790 -0.3571  0.1737
  953TIP3    H124274   0.076   5.060  13.512  0.2866 -0.1743  0.0419
  953TIP3    H224275   0.090   5.204  13.470  1.6345  0.5141  2.7567
  954TIP3   OH224276   4.043   0.195  13.329  0.1168  0.2984 -0.3791
  954TIP3    H124277   4.031   0.174  13.421  0.1609 -1.6328 -0.7865
  954TIP3    H224278   4.123   0.149  13.304  1.2701  2.5095 -0.8916
  955TIP3   OH224279   7.003   4.833   9.910 -0.0505 -0.0281  0.2082
  955TIP3    H124280   7.023   4.891   9.983  0.9813 -1.3808  1.0444
  955TIP3    H224281   6.908   4.822   9.912 -0.2148  1.3831  0.2190
  956TIP3   OH224282   2.339   1.182  10.077 -0.0090 -0.0698 -0.1782
  956TIP3    H124283   2.355   1.230  10.158  2.0593  0.5850 -0.9516
  956TIP3    H224284   2.247   1.157  10.083  0.1178 -0.0959  2.3958
  957TIP3   OH224285   6.377   1.422  10.612 -0.4137 -0.4472  0.1622
  957TIP3    H124286   6.375   1.445  10.705 -1.0520  0.2733 -0.0258
  957TIP3    H224287   6.319   1.485  10.571  1.9539  0.9720 -1.1237
  958TIP3   OH224288   5.147   5.216  10.784 -0.1536  0.0063  0.2125
  958TIP3    H124289   5.096   5.240  10.706  1.4638 -0.9998 -1.1743
  958TIP3    H224290   5.149   5.121  10.783 -1.2209 -0.0684  2.2481
  959TIP3   OH224291   6.254   5.948  10.562 -0.4635  0.2989  0.4861
  959TIP3    H124292   6.300   5.933  10.480 -1.2159 -0.8786  0.2640
  959TIP3    H224293   6.163   5.923  10.544 -0.6910  0.2597  1.5964
  960TIP3   OH224294   4.926   6.977   9.686 -0.2696  0.3300  0.0798
  960TIP3    H124295   4.885   7.018   9.610  0.2103 -0.7901 -0.7930
  960TIP3    H224296   4.861   6.915   9.719  0.1937 -0.4545 -0.4775
  961TIP3   OH224297   2.965   3.694  11.881  0.5032  0.9497 -0.2103
  961TIP3    H124298   2.875   3.665  11.870  0.4461  1.0498 -0.0074
  961TIP3    H224299   2.982   3.683  11.975  0.6493  1.0860 -0.2214
  962TIP3   OH224300   2.054   0.773  10.454  0.1211  0.0333 -0.3127
  962TIP3    H124301   2.010   0.817  10.382 -0.1395  1.3491  0.6376
  962TIP3    H224302   2.030   0.823  10.532  1.7175 -0.3730  0.4812
  963TIP3   OH224303   4.945   1.591  11.679 -0.7086  0.4519  0.1933
  963TIP3    H124304   4.881   1.562  11.614 -0.3925 -0.5659  0.3333
  963TIP3    H224305   4.952   1.518  11.740 -2.0349  1.9323  2.1784
  964TIP3   OH224306   4.489   0.544   9.833  0.6753  0.2485 -0.0804
  964TIP3    H124307   4.467   0.631   9.801 -2.2237 -0.7367 -0.8633
  964TIP3    H224308   4.405   0.500   9.846  2.0846 -2.6947 -0.3886
  965TIP3   OH224309   3.303   4.792  10.760  0.1178  0.6264 -0.3909
  965TIP3    H124310   3.391   4.786  10.797 -0.5595  1.1084  1.3764
  965TIP3    H224311   3.280   4.702  10.738  0.6750  0.3615  0.0812
  966TIP3   OH224312   4.538   5.991  11.416  0.4624  0.2959 -0.6711
  966TIP3    H124313   4.625   6.022  11.442  0.8271 -1.5081  0.3383
  966TIP3    H224314   4.479   6.033  11.478  0.8950 -0.5513  0.3289
  967TIP3   OH224315   1.238   4.267  13.350  0.0120 -0.2430  0.4467
  967TIP3    H124316   1.198   4.198  13.403  0.4571 -1.6752 -1.0452
  967TIP3    H224317   1.244   4.230  13.262  1.5396  1.1807 -0.0863
  968TIP3   OH224318   5.308   4.011   9.971  0.0921 -0.5220  0.2201
  968TIP3    H124319   5.317   4.105   9.955 -1.7981 -0.0313  1.8290
  968TIP3    H224320   5.308   4.002  10.066  0.1590 -2.1555  0.0919
  969TIP3   OH224321   0.636   1.984  11.295  0.1725  0.0972  0.0675
  969TIP3    H124322   0.594   2.069  11.307 -0.6204 -0.3223  0.2712
  969TIP3    H224323   0.658   1.955  11.384  0.9269  0.3298 -0.0390
  970TIP3   OH224324   0.562   6.344  11.113 -0.1705  0.0103 -0.1820
  970TIP3    H124325   0.521   6.258  11.117 -0.2254 -0.0263 -1.3435
  970TIP3    H224326   0.554   6.378  11.202  0.3596 -1.4081  0.4172
  971TIP3   OH224327   2.643   5.425  10.450  0.5440  0.2643  0.3821
  971TIP3    H124328   2.570   5.484  10.468  2.1161  2.1058  0.8134
  971TIP3    H224329   2.676   5.401  10.537  0.5970 -0.4023  0.1839
  972TIP3   OH224330   1.144   2.339   9.710 -0.3038 -0.7419  0.0019
  972TIP3    H124331   1.215   2.276   9.721 -0.5126 -1.6398 -3.1820
  972TIP3    H224332   1.064   2.286   9.720 -0.5259 -0.2370  0.9818
  973TIP3   OH224333   6.925   0.661  11.170  0.0647  0.6068  0.0089
  973TIP3    H124334   6.983   0.731  11.138  0.3387  1.1892  1.7214
  973TIP3    H224335   6.916   0.678  11.263 -0.1218 -1.4877  0.3999
  974TIP3   OH224336   0.780   6.468  11.387  0.0112  0.1018  0.5484
  974TIP3    H124337   0.850   6.509  11.335 -2.6496  0.8769 -2.6411
  974TIP3    H224338   0.811   6.380  11.404  2.3659  0.8786  0.4625
  975TIP3   OH224339   0.516   6.373  11.414  0.0251 -0.2809  0.1916
  975TIP3    H124340   0.493   6.450  11.466 -1.1939 -0.8932  0.5598
  975TIP3    H224341   0.610   6.383  11.397  0.0101  0.9501  0.7917
  976TIP3   OH224342   5.714   0.570  12.701 -0.5457 -0.2012  0.3426
  976TIP3    H124343   5.653   0.644  12.700 -1.9146 -1.2515  2.1690
  976TIP3    H224344   5.792   0.603  12.746  0.2566  1.1343 -1.9483
  977TIP3   OH224345   2.470   4.772  10.546 -0.2210 -0.5442  0.3957
  977TIP3    H124346   2.562   4.761  10.571  0.1302  1.1328 -0.0950
  977TIP3    H224347   2.473   4.831  10.470 -1.7548  0.1144  0.8360
  978TIP3   OH224348   5.891   0.955   9.823  0.3901  0.6694  0.0179
  978TIP3    H124349   5.909   1.037   9.776 -0.2840  0.8087  0.0037
  978TIP3    H224350   5.964   0.947   9.884 -0.6297  2.3956  1.5255
  979TIP3   OH224351   6.760   6.658   9.840 -0.5994 -0.4470  0.3278
  979TIP3    H124352   6.767   6.732   9.780 -0.9135 -0.2106  0.5779
  979TIP3    H224353   6.722   6.587   9.788  0.6439 -0.7561 -0.1863
  980TIP3   OH224354   0.481   6.829  11.003 -0.0190  0.4313 -0.0084
  980TIP3    H124355   0.536   6.907  11.008 -0.5050  0.8150 -0.5106
  980TIP3    H224356   0.488   6.800  10.912  1.2793 -0.9480  0.5062
  981TIP3   OH224357   6.350   5.757  11.749  0.7233  0.6534  0.2708
  981TIP3    H124358   6.330   5.748  11.656  2.4368 -0.6910  0.0061
  981TIP3    H224359   6.266   5.778  11.790 -0.5001 -1.0458 -1.2709
  982TIP3   OH224360   2.705   0.153  11.573  0.3303 -0.3082  0.1163
  982TIP3    H124361   2.734   0.062  11.568  0.7758 -0.1452 -0.2941
  982TIP3    H224362   2.786   0.203  11.584  0.0397 -0.0054  0.8583
  983TIP3   OH224363   5.636   4.098  10.826  0.3311  0.5842  0.3196
  983TIP3    H124364   5.675   4.126  10.909 -1.1722  0.6920  1.0127
  983TIP3    H224365   5.678   4.014  10.807  0.2371  0.2502  1.5273
  984TIP3   OH224366   4.018   1.488   9.807  0.1836 -0.3292  0.0272
  984TIP3    H124367   4.046   1.448   9.725 -0.3965  1.0448 -0.8509
  984TIP3    H224368   3.942   1.437   9.834 -0.3373 -0.0619 -0.9025
  985TIP3   OH224369   2.316   2.861  11.924 -0.9633  0.4383  0.0322
  985TIP3    H124370   2.253   2.842  11.994 -1.5647 -2.9629 -1.3352
  985TIP3    H224371   2.351   2.776  11.900  0.8992  1.8182 -2.3146
  986TIP3   OH224372   4.658   3.225   1.382  0.0151 -0.6673 -0.0263
  986TIP3    H124373   4.599   3.289   1.343  0.3526 -0.5736 -0.3893
  986TIP3    H224374   4.682   3.262   1.467  2.3808  1.0216 -1.3699
  987TIP3   OH224375   2.555   2.815   1.762  0.3284 -0.3345 -0.1728
  987TIP3    H124376   2.488   2.747   1.767  1.1183 -1.0622  0.6362
  987TIP3    H224377   2.612   2.798   1.837  1.8139 -0.1245 -1.2477
  988TIP3   OH224378   6.450   6.676  12.317  0.3007  0.2102  0.0731
  988TIP3    H124379   6.387   6.744  12.291  1.0221  0.2286 -1.6811
  988TIP3    H224380   6.395   6.599  12.335 -0.3802  0.7785  0.4939
  989TIP3   OH224381   3.194   1.155  10.282  0.0416 -0.5140 -0.4982
  989TIP3    H124382   3.121   1.098  10.307  0.8005 -1.7111 -0.9926
  989TIP3    H224383   3.176   1.238  10.326 -1.0669 -1.1407  0.2338
  990TIP3   OH224384   3.738   2.472  13.404 -0.2871  0.0599 -0.0705
  990TIP3    H124385   3.749   2.389  13.450  0.7677 -0.8633 -1.9315
  990TIP3    H224386   3.775   2.537  13.463  0.0243 -0.9710  0.8790
  991TIP3   OH224387   6.368   3.320  10.097 -0.0644 -0.3700  0.3134
  991TIP3    H124388   6.431   3.336  10.027 -0.4621  0.8100  0.2147
  991TIP3    H224389   6.310   3.252  10.063  0.1938 -0.3273 -0.2100
  992TIP3   OH224390   6.449   7.073   9.570  0.3549  0.5050 -0.4460
  992TIP3    H124391   6.487   7.141   9.626  2.7806 -0.5779 -0.7535
  992TIP3    H224392   6.371   7.115   9.533  0.1651  2.1195  1.6516
  993TIP3   OH224393   4.378   0.695  14.475 -0.4790  0.1670 -0.5697
  993TIP3    H124394   4.430   0.773  14.456 -0.9803  1.2471  2.2207
  993TIP3    H224395   4.441   0.633  14.512  0.1415 -1.2308 -3.8518
  994TIP3   OH224396   0.252   7.105   9.966 -0.2589  0.4535 -0.2427
  994TIP3    H124397   0.282   7.041   9.903  1.5408  1.2604 -0.2405
  994TIP3    H224398   0.219   7.178   9.913  0.8249  0.9369 -0.2615
  995TIP3   OH224399   5.999   1.191  11.608 -0.0876  0.4151 -0.2495
  995TIP3    H124400   6.041   1.173  11.692  0.1839 -1.1893 -0.7181
  995TIP3    H224401   5.905   1.179  11.625 -0.1462  1.3344  0.1234
  996TIP3   OH224402   6.726   2.211   9.654  0.0240  0.0218  0.5845
  996TIP3    H124403   6.770   2.260   9.723 -0.3969  0.3516  0.6160
  996TIP3    H224404   6.682   2.278   9.601  0.8307 -0.1631 -0.3539
  997TIP3   OH224405   4.223   6.829  13.609 -0.4136 -0.3603 -0.3356
  997TIP3    H124406   4.198   6.757  13.551  2.7999  0.2856 -2.6605
  997TIP3    H224407   4.319   6.822  13.617  0.0269  3.7957 -0.8507
  998TIP3   OH224408   6.778   0.589  10.711  0.1726  0.9321  0.0074
  998TIP3    H124409   6.869   0.579  10.684 -0.1049 -0.4493 -0.4516
  998TIP3    H224410   6.737   0.505  10.689 -1.8258  2.4164 -2.1666
  999TIP3   OH224411   5.019   1.014   9.649  0.4066  0.0747  0.3685
  999TIP3    H124412   5.065   1.063   9.581 -2.3707  1.2465 -0.7390
  999TIP3    H224413   5.000   0.929   9.609 -0.6010  0.5090 -0.0950
 1000TIP3   OH224414   0.556   0.733   9.591 -0.3430  0.1465 -0.6025
 1000TIP3    H124415   0.487   0.733   9.526 -0.4897 -2.5180 -0.5051
 1000TIP3    H224416   0.510   0.730   9.675 -0.1435 -0.1490 -0.5006
 1001TIP3   OH224417   3.353   0.288  11.027 -0.3752  0.1345 -0.1070
 1001TIP3    H124418   3.379   0.204  10.991 -0.9794 -0.7139  1.3816
 1001TIP3    H224419   3.414   0.351  10.989 -0.2485 -0.9003 -1.6222
 1002TIP3   OH224420   0.173   5.692  10.230  0.6293  0.0705 -0.4565
 1002TIP3    H124421   0.099   5.659  10.280  1.6073  0.2195  1.1157
 1002TIP3    H224422   0.171   5.787  10.242  0.0235  0.2452 -1.8926
 1003TIP3   OH224423   0.123   6.186  11.812 -0.2258  0.1431  0.2613
 1003TIP3    H124424   0.134   6.281  11.821  0.1991  0.1255 -0.0337
 1003TIP3    H224425   0.051   6.165  11.871 -0.5832  0.7067  0.0335
 1004TIP3   OH224426   4.901   6.905  10.179 -0.0812 -0.4694  0.0826
 1004TIP3    H124427   4.864   6.991  10.197  0.2957 -0.5965  1.4978
 1004TIP3    H224428   4.996   6.917  10.187  0.1230 -0.5087 -1.9624
 1005TIP3   OH224429   2.399   0.920  10.778  0.1775 -0.4920 -0.1276
 1005TIP3    H124430   2.455   0.903  10.702 -2.1966  0.4891 -2.1645
 1005TIP3    H224431   2.392   0.836  10.823 -0.0746 -1.5674 -2.1618
 1006TIP3   OH224432   6.597   5.217  15.511 -0.1656  0.6362  0.1867
 1006TIP3    H124433   6.636   5.139  15.473 -1.2358 -0.0385  0.4315
 1006TIP3    H224434   6.560   5.186  15.595  2.3147  2.1220  1.8743
 1007TIP3   OH224435   6.622   6.544  10.400  0.1141  0.1807 -0.4139
 1007TIP3    H124436   6.635   6.477  10.468  0.0334 -0.0072 -0.5826
 1007TIP3    H224437   6.689   6.526  10.335  1.7751  1.8648  0.7771
 1008TIP3   OH224438   2.712   3.588  11.882  0.3914  0.1188  0.2181
 1008TIP3    H124439   2.638   3.627  11.928  0.5760  1.0132 -0.2315
 1008TIP3    H224440   2.759   3.540  11.950 -0.6383 -0.5190  0.4873
 1009TIP3   OH224441   4.895   1.412  10.890  0.0233 -0.3517  0.0077
 1009TIP3    H124442   4.859   1.373  10.969  0.9253 -0.4632  0.3690
 1009TIP3    H224443   4.962   1.350  10.861  1.2114  0.7232  0.3865
 1010TIP3   OH224444   5.632   1.208  10.239  0.1514 -0.2884  0.2133
 1010TIP3    H124445   5.702   1.269  10.263  1.5707 -1.4259 -0.9824
 1010TIP3    H224446   5.677   1.126  10.218 -1.6886 -1.5833  1.2120
 1011TIP3   OH224447   2.620   3.219  14.712 -0.2195 -0.0782 -0.1872
 1011TIP3    H124448   2.641   3.294  14.767 -2.4363 -0.1418  0.8103
 1011TIP3    H224449   2.703   3.196  14.670  0.9235  1.6637  1.0312
 1012TIP3   OH224450   0.950   2.258  11.471 -0.2024  0.0680 -0.5062
 1012TIP3    H124451   1.005   2.221  11.402 -0.8607 -0.2008 -0.8989
 1012TIP3    H224452   1.010   2.278  11.542  0.0926 -2.3636 -0.0196
 1013TIP3   OH224453   0.184   3.383  12.664  0.3034 -0.1010 -0.0964
 1013TIP3    H124454   0.253   3.319  12.676  0.4549 -0.0414 -0.6671
 1013TIP3    H224455   0.228   3.468  12.669  0.2798 -0.0635 -0.5053
 1014TIP3   OH224456   4.234   4.394  12.915  0.7174  0.6242 -0.2007
 1014TIP3    H124457   4.154   4.415  12.867 -0.2087  0.8830  1.4171
 1014TIP3    H224458   4.294   4.466  12.896 -1.2024  3.0279  2.5395
 1015TIP3   OH224459   1.979   2.477  12.661  0.4710 -0.4970 -0.4105
 1015TIP3    H124460   2.001   2.536  12.588  0.6629  0.1922  0.2055
 1015TIP3    H224461   1.905   2.425  12.628  0.4172 -0.0378 -1.0178
 1016TIP3   OH224462   6.946   6.885  10.260  0.0094 -0.7212  0.1869
 1016TIP3    H124463   6.914   6.929  10.181 -0.5705 -1.6409 -0.0863
 1016TIP3    H224464   7.032   6.925  10.276 -0.1887 -0.0187 -0.4890
 1017TIP3   OH224465   7.162   7.057  10.295 -0.6566  0.1799 -0.1237
 1017TIP3    H124466   7.155   7.090  10.205 -0.3078 -0.2139 -0.2950
 1017TIP3    H224467   7.162   7.136  10.349 -1.4209  0.3974 -0.4337
 1018TIP3   OH224468   5.533   6.772   9.640 -0.1646  0.0188 -0.3533
 1018TIP3    H124469   5.450   6.789   9.595 -0.1587 -0.5809 -0.5999
 1018TIP3    H224470   5.527   6.822   9.721 -0.6101  0.2779 -0.5434
 1019TIP3   OH224471   1.958   7.154  14.856  0.8055  0.0784  0.0552
 1019TIP3    H124472   1.882   7.109  14.893  1.8109 -0.7801  1.1115
 1019TIP3    H224473   1.954   7.135  14.763  0.2349 -0.7362  0.2442
 1020TIP3   OH224474   7.148   4.535   9.792  0.3259  0.2978 -0.5147
 1020TIP3    H124475   7.069   4.555   9.842  2.1015 -1.6916  3.3224
 1020TIP3    H224476   7.140   4.443   9.768  1.7332 -0.0933  0.4436
 1021TIP3   OH224477   1.527   1.318  10.578  0.0383  0.8064  0.4055
 1021TIP3    H124478   1.585   1.384  10.617 -1.7326  1.6167  1.7222
 1021TIP3    H224479   1.446   1.325  10.628 -0.1757 -2.4318  0.6336
 1022TIP3   OH224480   7.062   0.828  12.805  0.0849 -0.0462 -0.4586
 1022TIP3    H124481   6.988   0.888  12.815  1.4863  1.2833  2.5458
 1022TIP3    H224482   7.041   0.754  12.863  1.0046  0.2620  0.2795
 1023TIP3   OH224483   0.040   0.298  10.787 -0.3835  0.0220 -0.4085
 1023TIP3    H124484   0.003   0.210  10.797  0.1450 -0.2233 -0.5476
 1023TIP3    H224485   0.135   0.284  10.791 -0.2997  0.6017 -0.3231
 1024TIP3   OH224486   5.022   2.521  11.819  0.3395  0.2019  0.6916
 1024TIP3    H124487   5.068   2.584  11.764  0.3901 -0.2572  0.2060
 1024TIP3    H224488   5.075   2.441  11.815 -0.2364 -0.1765  0.5257
 1025TIP3   OH224489   1.364   7.066  12.918  0.2405  0.7712 -0.1667
 1025TIP3    H124490   1.280   7.027  12.941  0.6532 -0.4061 -0.6507
 1025TIP3    H224491   1.383   7.032  12.831  2.7371 -1.5085  1.1910
 1026TIP3   OH224492   0.423   4.758  10.176  0.5398 -0.1520 -0.0915
 1026TIP3    H124493   0.445   4.801  10.093  0.2798 -0.6955 -0.4400
 1026TIP3    H224494   0.391   4.830  10.231  3.5766  0.7359  0.5881
 1027TIP3   OH224495   4.359   3.709  11.809  0.1961  0.5991  0.4621
 1027TIP3    H124496   4.435   3.659  11.839  0.4194  0.7492  0.1447
 1027TIP3    H224497   4.302   3.644  11.767 -0.5387  0.2227  2.0037
 1028TIP3   OH224498   6.225   6.179  10.202  0.4228 -0.4243 -0.1820
 1028TIP3    H124499   6.233   6.268  10.167  2.5810 -1.0371 -1.3428
 1028TIP3    H224500   6.230   6.123  10.124  0.3214 -1.6150  0.6621
 1029TIP3   OH224501   2.295   3.198  10.666 -0.3435  0.2632 -0.1364
 1029TIP3    H124502   2.250   3.279  10.692 -0.8179 -0.6381  1.9391
 1029TIP3    H224503   2.388   3.215  10.684 -0.6002 -0.1353  1.6660
 1030TIP3   OH224504   5.109   0.734  11.314 -0.1771  0.5470  0.3663
 1030TIP3    H124505   5.146   0.780  11.238  0.0142 -1.4861 -0.7842
 1030TIP3    H224506   5.183   0.687  11.352 -0.4812  0.7588  1.2349
 1031TIP3   OH224507   0.620   4.448  13.314  0.3063  0.0354  0.1695
 1031TIP3    H124508   0.566   4.386  13.264  0.0403  1.8405 -1.8518
 1031TIP3    H224509   0.702   4.454  13.265 -0.3272  2.5688 -0.6671
 1032TIP3   OH224510   1.179   5.114  11.473 -0.3718  0.1217  0.3865
 1032TIP3    H124511   1.191   5.036  11.419 -1.7603  1.7462 -2.3951
 1032TIP3    H224512   1.257   5.167  11.455  0.5547 -0.5968  2.2421
 1033TIP3   OH224513   6.451   3.887  11.742 -0.3755 -0.0351  0.4166
 1033TIP3    H124514   6.454   3.918  11.833  1.3638 -0.2119  0.4334
 1033TIP3    H224515   6.385   3.943  11.700 -0.5110  0.6774  1.5559
 1034TIP3   OH224516   7.044   6.351  10.429 -0.0939  0.1245  0.6616
 1034TIP3    H124517   7.071   6.260  10.443  0.8459  0.3041  0.1231
 1034TIP3    H224518   7.056   6.393  10.514  1.4653  0.2147  0.4213
 1035TIP3   OH224519   4.964   2.315  10.803 -0.1659  0.1978 -0.3469
 1035TIP3    H124520   4.877   2.309  10.766 -0.5228 -0.4049  0.5819
 1035TIP3    H224521   4.972   2.239  10.861  1.0611  0.1083 -0.6038
 1036TIP3   OH224522   1.811   1.550  12.272  0.3748 -0.0916 -0.2458
 1036TIP3    H124523   1.878   1.507  12.325 -1.4048 -1.7666  0.7197
 1036TIP3    H224524   1.804   1.496  12.194 -0.8052 -0.7387  0.2887
 1037TIP3   OH224525   0.288   5.712  11.024 -0.3065 -0.2497 -0.3921
 1037TIP3    H124526   0.249   5.628  11.047 -0.3893 -0.2599 -0.5704
 1037TIP3    H224527   0.381   5.694  11.014 -0.0787  0.0155  1.2068
 1038TIP3   OH224528   1.974   1.364  10.378  0.2173  0.2238  0.2104
 1038TIP3    H124529   1.990   1.387  10.286 -1.5718 -1.0948 -0.4733
 1038TIP3    H224530   2.037   1.415  10.427  0.2689  2.0397 -1.6706
 1039TIP3   OH224531   6.584   1.141  12.309 -0.0145 -0.0683  0.5497
 1039TIP3    H124532   6.602   1.049  12.290  2.5374  0.9063 -2.2643
 1039TIP3    H224533   6.544   1.141  12.396 -0.7294 -3.8701  0.3027
 1040TIP3   OH224534   5.406   6.208  11.533  0.4323 -0.1936  1.0313
 1040TIP3    H124535   5.416   6.134  11.474  1.0685  0.5110  0.2537
 1040TIP3    H224536   5.440   6.283  11.484  0.1381  0.5481  1.9494
 1041TIP3   OH224537   6.737   2.558  10.458 -0.6506  0.2600  0.1727
 1041TIP3    H124538   6.746   2.567  10.363  2.1998 -0.0102  0.3679
 1041TIP3    H224539   6.643   2.549  10.473 -1.1410  0.4424 -2.6081
 1042TIP3   OH224540   0.076   7.141  10.786 -0.1798 -0.1906  0.6381
 1042TIP3    H124541   0.122   7.169  10.707 -1.8583  1.5974  0.2554
 1042TIP3    H224542  -0.000   7.092  10.753 -0.7724  0.3830  1.1476
 1043TIP3   OH224543   1.773   1.957  14.308  0.2079 -0.9130  0.2932
 1043TIP3    H124544   1.720   1.917  14.376 -0.3449 -1.5835 -0.5174
 1043TIP3    H224545   1.811   2.034  14.349 -0.0268 -1.3730  1.3891
 1044TIP3   OH224546   1.033   1.352  10.627  0.0411 -0.3040  0.3857
 1044TIP3    H124547   1.069   1.405  10.556  0.4901 -1.1129  0.0050
 1044TIP3    H224548   1.091   1.367  10.701  0.9071 -1.2505 -0.0928
 1045TIP3   OH224549   6.601   1.182  10.885  0.1458 -0.0992  0.4138
 1045TIP3    H124550   6.633   1.131  10.959  0.8340 -0.0920  0.1240
 1045TIP3    H224551   6.581   1.268  10.921 -0.5671 -0.4220  0.8065
 1046TIP3   OH224552   6.868   1.944  11.918 -0.6917  0.6449  0.1757
 1046TIP3    H124553   6.826   1.905  11.995 -0.9258  0.9762  0.2148
 1046TIP3    H224554   6.952   1.976  11.950 -1.4894  2.2968  0.6806
 1047TIP3   OH224555   0.026   4.551  12.033  0.2315 -0.1168 -0.7124
 1047TIP3    H124556  -0.038   4.553  11.961 -0.1449 -1.0584 -0.4100
 1047TIP3    H224557   0.016   4.464  12.071  1.2406 -0.0299 -0.2434
 1048TIP3   OH224558   0.312   2.644  10.086  0.0340  0.1708 -0.4078
 1048TIP3    H124559   0.282   2.574  10.143  1.3183  0.1810  0.3101
 1048TIP3    H224560   0.295   2.612   9.997 -1.2163 -0.1947 -0.0410
 1049TIP3   OH224561   4.503   2.026  11.002  0.1097  0.2441  0.1059
 1049TIP3    H124562   4.479   2.012  11.093  0.5927 -0.7758  0.0877
 1049TIP3    H224563   4.597   2.046  11.004  0.3939 -0.9546 -0.2427
 1050TIP3   OH224564   2.244   1.583  10.949 -0.2755 -0.2193 -0.4588
 1050TIP3    H124565   2.305   1.545  10.886 -0.6760  0.5541 -1.3161
 1050TIP3    H224566   2.161   1.588  10.902 -1.0186 -1.2765  0.7098
 1051TIP3   OH224567   3.761   0.565  10.621 -0.4029  0.3470 -0.2763
 1051TIP3    H124568   3.838   0.607  10.660  0.9004 -1.9457 -0.2758
 1051TIP3    H224569   3.785   0.550  10.530  0.2277 -2.6987  0.3192
 1052TIP3   OH224570   1.056   1.119  11.604  0.2843  0.0336 -0.4647
 1052TIP3    H124571   1.039   1.066  11.682  0.7278  0.1062 -0.3169
 1052TIP3    H224572   1.050   1.209  11.636  3.2840  0.0624  0.1187
 1053TIP3   OH224573   0.727   4.363  11.239 -0.1568 -0.3344  0.0033
 1053TIP3    H124574   0.637   4.334  11.257  0.1712 -0.2234  1.9717
 1053TIP3    H224575   0.751   4.415  11.316  2.1092 -1.5724  0.1886
 1054TIP3   OH224576   7.116   3.976  10.232 -0.5556  0.0377  1.2426
 1054TIP3    H124577   7.166   4.055  10.252 -0.4594  0.2823  0.0876
 1054TIP3    H224578   7.121   3.968  10.137 -0.3345 -1.5102  1.3641
 1055TIP3   OH224579   3.185   0.168  13.246  0.6040 -0.4879 -0.3660
 1055TIP3    H124580   3.260   0.152  13.187 -0.0247 -1.2775 -0.9698
 1055TIP3    H224581   3.134   0.236  13.202  0.4474 -0.6545 -0.4426
 1056TIP3   OH224582   3.204   1.368  11.196 -0.2524 -0.2966 -0.8055
 1056TIP3    H124583   3.203   1.292  11.254 -0.2212  0.1378 -0.2286
 1056TIP3    H224584   3.140   1.347  11.128  0.5701 -1.3195 -1.2865
 1057TIP3   OH224585   2.228   0.850  10.229  0.2817  0.2679 -1.2121
 1057TIP3    H124586   2.176   0.786  10.181 -0.9514  1.6886 -1.8031
 1057TIP3    H224587   2.303   0.801  10.261 -0.5885 -1.4405 -1.7611
 1058TIP3   OH224588   0.304   1.273  13.562  0.2869 -0.1078 -0.1340
 1058TIP3    H124589   0.337   1.301  13.647  0.3901 -2.8987  0.7979
 1058TIP3    H224590   0.209   1.279  13.570  0.2123 -2.1235  0.8690
 1059TIP3   OH224591   5.465   0.639  14.433  0.7353 -0.4776  0.2245
 1059TIP3    H124592   5.511   0.708  14.385  1.7517 -0.3430  1.3614
 1059TIP3    H224593   5.472   0.666  14.525 -1.9801 -0.2345  0.4031
 1060TIP3   OH224594   5.456   1.632   9.710  0.0696  0.3344 -0.2279
 1060TIP3    H124595   5.513   1.703   9.741  0.7378 -1.0682  1.9286
 1060TIP3    H224596   5.515   1.556   9.703 -1.0142 -0.4827 -0.5093
 1061TIP3   OH224597   5.351   1.525  11.023 -0.4933 -0.0359  0.7356
 1061TIP3    H124598   5.384   1.458  10.963  0.2108  0.7759  0.1840
 1061TIP3    H224599   5.262   1.544  10.992 -0.4565 -0.2558  0.4931
 1062TIP3   OH224600   3.377   7.063  11.111  0.6171  0.1837 -0.1114
 1062TIP3    H124601   3.308   6.998  11.098  0.6567  0.1301 -0.0596
 1062TIP3    H224602   3.376   7.116  11.031 -1.2012  1.8138  0.9694
 1063TIP3   OH224603   2.304   1.056  11.672 -0.6507 -0.0503  0.1796
 1063TIP3    H124604   2.378   1.052  11.611 -2.0443  2.6850 -1.7516
 1063TIP3    H224605   2.335   1.008  11.750  3.0639  0.8473 -0.6495
 1064TIP3   OH224606   4.320   2.389   9.667 -1.1387 -0.0956 -0.3298
 1064TIP3    H124607   4.414   2.391   9.683 -1.4493  1.7391  1.6210
 1064TIP3    H224608   4.290   2.308   9.708 -0.7190  0.5084  1.2120
 1065TIP3   OH224609   4.511   1.497  10.411  0.1104 -0.2231  0.1328
 1065TIP3    H124610   4.536   1.523  10.500 -0.0862 -0.3998  0.2397
 1065TIP3    H224611   4.446   1.562  10.385 -0.6444 -0.8179  0.5333
 1066TIP3   OH224612   1.311   2.993  10.553  0.0199 -0.0519  0.2805
 1066TIP3    H124613   1.384   2.936  10.582 -0.0205  0.1011  0.6943
 1066TIP3    H224614   1.320   3.071  10.607  0.3175  0.5087 -0.5765
 1067TIP3   OH224615   0.875   0.659  13.807 -0.2207  0.2756  0.5665
 1067TIP3    H124616   0.804   0.598  13.824  0.9108 -1.6626 -1.4224
 1067TIP3    H224617   0.835   0.746  13.820 -3.0898 -0.7336 -0.9237
 1068TIP3   OH224618   1.842   0.260  11.787 -0.0052 -0.0898  0.0504
 1068TIP3    H124619   1.781   0.321  11.747  0.5032 -1.3822 -2.8202
 1068TIP3    H224620   1.916   0.314  11.815 -0.9711  1.0097  0.5047
 1069TIP3   OH224621   1.941   2.768  10.912 -0.1284  0.0391 -0.0592
 1069TIP3    H124622   2.024   2.770  10.960  0.6151 -1.7578 -1.2058
 1069TIP3    H224623   1.952   2.831  10.841  0.0514  0.2124  0.1225
 1070TIP3   OH224624   0.155   4.447  10.727 -0.3331 -0.0896  0.4555
 1070TIP3    H124625   0.099   4.370  10.736 -0.4450 -0.5564 -3.2971
 1070TIP3    H224626   0.243   4.412  10.717 -0.2629  0.2924 -0.3371
 1071TIP3   OH224627   3.685   6.979   9.977  0.1112  0.3215 -0.3158
 1071TIP3    H124628   3.736   7.020  10.047  1.2356 -0.8146 -0.4586
 1071TIP3    H224629   3.724   7.010   9.896  0.0160  0.1426 -0.4328
 1072TIP3   OH224630   6.192   6.210  12.349 -0.4592  0.0511  0.0418
 1072TIP3    H124631   6.263   6.240  12.293 -1.5054  0.9769 -0.8326
 1072TIP3    H224632   6.144   6.290  12.371 -0.9606 -0.4979  0.9949
 1073TIP3   OH224633   4.077   4.426  10.988  0.3937 -0.4086  0.1326
 1073TIP3    H124634   4.162   4.396  10.956 -0.5607 -2.3297 -0.7001
 1073TIP3    H224635   4.034   4.464  10.911  0.2216 -0.1296  0.3684
 1074TIP3   OH224636   6.276   1.061  13.249 -0.0027  0.3935 -0.5414
 1074TIP3    H124637   6.181   1.064  13.261  0.2516  0.0206  1.7236
 1074TIP3    H224638   6.301   0.975  13.282  1.0272  0.1588 -1.9163
 1075TIP3   OH224639   1.615   5.616  11.239  0.6566  0.2791  0.5036
 1075TIP3    H124640   1.526   5.597  11.269  0.3375 -0.0487 -0.6224
 1075TIP3    H224641   1.654   5.529  11.225  1.0556  0.4257  0.7195
 1076TIP3   OH224642   2.719   0.060  13.179  0.5099 -0.5879 -0.0716
 1076TIP3    H124643   2.718  -0.033  13.201  1.2515 -0.6551 -0.2939
 1076TIP3    H224644   2.802   0.073  13.133  0.2603  0.1153 -0.3430
 1077TIP3   OH224645   5.315   2.973  10.712 -0.3612 -0.8281  0.1481
 1077TIP3    H124646   5.268   2.890  10.713 -0.0522 -0.9934  1.0818
 1077TIP3    H224647   5.296   3.010  10.625 -0.2883 -1.9842 -0.3746
 1078TIP3   OH224648   0.778   6.877  10.866  0.1623 -0.3835  0.0862
 1078TIP3    H124649   0.762   6.924  10.947  2.4945  0.7153 -0.0724
 1078TIP3    H224650   0.792   6.786  10.894  1.8149  0.1347  1.0330
 1079TIP3   OH224651   0.328   1.068  11.274 -0.5589 -0.0312 -0.4759
 1079TIP3    H124652   0.281   1.137  11.322 -0.3691  0.4240 -0.9375
 1079TIP3    H224653   0.420   1.092  11.283 -0.4840 -0.3103 -0.5143
 1080TIP3   OH224654   0.237   4.539  11.418  0.0828  0.4388 -0.5388
 1080TIP3    H124655   0.244   4.623  11.371  0.9434 -0.1131 -1.4155
 1080TIP3    H224656   0.308   4.486  11.382 -1.3949 -1.2116 -1.0737
 1081TIP3   OH224657   0.260   7.063  12.212 -0.5081 -0.9190  0.2848
 1081TIP3    H124658   0.218   7.125  12.271 -1.1500 -1.7498  0.7164
 1081TIP3    H224659   0.354   7.075  12.227 -0.6742 -1.4556  1.8257
 1082TIP3   OH224660   5.101   5.003  10.261  0.1560  0.4983 -0.0634
 1082TIP3    H124661   5.178   5.057  10.280  0.2514  0.3336  0.0227
 1082TIP3    H224662   5.097   5.001  10.165  0.9143 -0.4076 -0.0843
 1083TIP3   OH224663   4.312   5.506  11.992  0.8093 -0.1417 -0.2168
 1083TIP3    H124664   4.301   5.544  11.905  0.8865  0.1544 -0.1007
 1083TIP3    H224665   4.396   5.541  12.022 -0.5381  2.0687  1.1369
 1084TIP3   OH224666   5.502   3.701  12.014  0.4955  0.3423 -0.4970
 1084TIP3    H124667   5.517   3.708  11.920 -0.6307  2.8886 -0.5141
 1084TIP3    H224668   5.408   3.683  12.022  0.5125  0.5306  0.1456
 1085TIP3   OH224669   5.896   1.622  11.836  0.4316  0.4889 -0.2418
 1085TIP3    H124670   5.829   1.556  11.820 -0.0047  0.7145  0.6524
 1085TIP3    H224671   5.935   1.597  11.919  1.1514  0.6218 -0.5351
 1086TIP3   OH224672   1.698   0.216  14.578 -0.6054 -0.7833  0.3033
 1086TIP3    H124673   1.635   0.146  14.561 -0.2829 -0.7739 -0.9886
 1086TIP3    H224674   1.782   0.172  14.584 -0.4336 -0.5300 -0.2659
 1087TIP3   OH224675   1.092   1.542  12.893  0.2119  0.3350 -0.1520
 1087TIP3    H124676   1.003   1.549  12.859 -0.0075 -1.9170 -0.1361
 1087TIP3    H224677   1.139   1.492  12.826  1.5488  1.7566 -0.2992
 1088TIP3   OH224678   5.560   0.604   9.738  0.4787  0.8494 -0.3886
 1088TIP3    H124679   5.469   0.630   9.721  0.2161 -0.1549 -0.5741
 1088TIP3    H224680   5.586   0.555   9.660  0.0758 -1.7134  1.0234
 1089TIP3   OH224681   1.656   4.446  10.251 -0.5297 -0.5229  0.0933
 1089TIP3    H124682   1.728   4.472  10.308 -0.2277  0.1759 -0.6070
 1089TIP3    H224683   1.624   4.527  10.213 -1.9259 -0.7902  0.6616
 1090TIP3   OH224684   2.398   6.936  13.279 -0.1151  0.6454  0.1477
 1090TIP3    H124685   2.492   6.958  13.285  0.3196 -1.0914 -0.1411
 1090TIP3    H224686   2.396   6.854  13.231 -1.8753  1.1594 -0.6876
 1091TIP3   OH224687   7.136   5.577  10.958 -0.6533  0.4001 -0.1480
 1091TIP3    H124688   7.136   5.668  10.988  1.8434  0.8054 -1.2660
 1091TIP3    H224689   7.130   5.525  11.038  0.0257  1.5177  0.6397
 1092TIP3   OH224690   1.226   4.475  13.120  0.0965  0.6207  1.3577
 1092TIP3    H124691   1.176   4.425  13.055  2.0298  0.9374 -0.4594
 1092TIP3    H224692   1.292   4.414  13.152 -1.0804  0.3637  3.3260
 1093TIP3   OH224693   6.970   3.775  11.824  0.0829  0.1357  0.3120
 1093TIP3    H124694   6.883   3.754  11.858  0.0206  0.7749  0.5526
 1093TIP3    H224695   6.962   3.767  11.729  0.0654 -0.9338  0.3921
 1094TIP3   OH224696   0.601   4.484   0.404 -0.2111 -0.6921  0.1498
 1094TIP3    H124697   0.686   4.516   0.433  1.2960 -3.0035 -1.5545
 1094TIP3    H224698   0.570   4.550   0.341  1.2655 -0.8143 -0.7260
 1095TIP3   OH224699   4.534   4.772   1.574  0.3744  0.5761 -0.2251
 1095TIP3    H124700   4.442   4.785   1.548 -0.0447 -1.8020 -0.0829
 1095TIP3    H224701   4.554   4.682   1.547  3.6180  2.0122 -2.9247
 1096TIP3   OH224702   6.198   4.083   9.917  0.0839 -0.3040  0.3594
 1096TIP3    H124703   6.187   4.178   9.914  0.4829 -0.2762 -1.2331
 1096TIP3    H224704   6.172   4.058  10.005  1.6435  1.5056  1.3889
 1097TIP3   OH224705   4.506   0.303  12.985  0.2958 -0.2267 -0.2705
 1097TIP3    H124706   4.465   0.364  13.047  0.1496 -1.0578  0.4700
 1097TIP3    H224707   4.600   0.322  12.991 -0.0410  2.7557 -3.1308
 1098TIP3   OH224708   6.553   7.114  10.703 -0.3451  0.8532  0.5740
 1098TIP3    H124709   6.463   7.109  10.672 -0.0058 -0.0574 -0.3010
 1098TIP3    H224710   6.602   7.151  10.630  0.0080  1.2734  1.0161
 1099TIP3   OH224711   4.603   4.735  13.242  0.4651  0.3291 -0.1252
 1099TIP3    H124712   4.579   4.762  13.154  3.0352  2.5485 -0.2299
 1099TIP3    H224713   4.667   4.665  13.229  0.5437  0.3800 -0.0128
 1100TIP3   OH224714   0.543   0.434  15.120 -0.2796  0.1886 -0.0909
 1100TIP3    H124715   0.450   0.428  15.144 -0.4684 -0.6409 -0.9876
 1100TIP3    H224716   0.549   0.515  15.069 -0.5081  0.2379 -0.0424
 1101TIP3   OH224717   4.514   2.607   9.866  0.3181  0.3885 -0.3651
 1101TIP3    H124718   4.532   2.535   9.804  1.2613  0.4458 -0.1701
 1101TIP3    H224719   4.521   2.686   9.812  0.5054  0.4029 -0.3197
 1102TIP3   OH224720   2.211   4.093  12.267 -0.5933 -0.0778  0.2921
 1102TIP3    H124721   2.224   4.184  12.293 -1.7881 -0.5565  2.6867
 1102TIP3    H224722   2.217   4.043  12.349  0.0544 -2.1620 -0.9844
 1103TIP3   OH224723   4.804   5.056  10.874  0.1638  0.0998  0.0168
 1103TIP3    H124724   4.765   5.103  10.948 -0.3457  2.0472 -1.4765
 1103TIP3    H224725   4.778   5.106  10.797  1.2850 -1.5230 -1.4401
 1104TIP3   OH224726   3.877   6.986  11.587 -0.5539  1.0557  0.1454
 1104TIP3    H124727   3.950   7.042  11.611 -0.3879  0.1267  1.9102
 1104TIP3    H224728   3.818   6.989  11.663 -1.3238  0.1381 -0.3958
 1105TIP3   OH224729   1.735   2.066  12.509 -0.0897 -0.0823 -0.1192
 1105TIP3    H124730   1.644   2.081  12.483 -1.5945 -1.1437  4.1144
 1105TIP3    H224731   1.747   1.971  12.501  0.4028 -0.0346  0.0534
 1106TIP3   OH224732   5.747   3.605  12.759  0.3560  0.7357  0.0050
 1106TIP3    H124733   5.780   3.680  12.709  0.5606  0.6952  0.0762
 1106TIP3    H224734   5.758   3.531  12.700 -0.5292  0.8774 -0.3329
 1107TIP3   OH224735   4.974   0.938   9.915 -0.0916 -0.2984  0.3805
 1107TIP3    H124736   5.018   0.951   9.832 -0.7836  0.1470  0.0781
 1107TIP3    H224737   4.989   0.846   9.936  1.4801  0.0008  0.5841
 1108TIP3   OH224738   5.698   2.447  11.065  0.4052 -0.2077 -0.5320
 1108TIP3    H124739   5.656   2.379  11.013  0.2897  1.3179 -2.4732
 1108TIP3    H224740   5.786   2.412  11.083  0.0602 -1.2198 -0.7723
 1109TIP3   OH224741   6.784   0.494  11.379 -0.6605  0.3927  0.1651
 1109TIP3    H124742   6.777   0.535  11.293  0.9684  0.2609 -0.0543
 1109TIP3    H224743   6.864   0.441  11.373 -0.6156  0.2708  1.7072
 1110TIP3   OH224744   5.142   5.057  12.784  0.3100 -0.3284 -0.2143
 1110TIP3    H124745   5.139   5.152  12.774 -1.0713 -0.2951  0.5150
 1110TIP3    H224746   5.076   5.025  12.723 -0.6620 -0.7079  1.0371
 1111TIP3   OH224747   1.117   0.846   9.992  0.2827 -0.3359  0.3774
 1111TIP3    H124748   1.076   0.797   9.920  1.0829 -0.1016 -0.2547
 1111TIP3    H224749   1.068   0.821  10.070 -1.7308  0.7240 -0.5115
 1112TIP3   OH224750   3.157   0.503  13.573  0.2051  0.3132  0.0952
 1112TIP3    H124751   3.107   0.507  13.654 -1.1614  1.0926 -0.7813
 1112TIP3    H224752   3.092   0.485  13.505  1.4578 -1.3328 -0.7145
 1113TIP3   OH224753   5.630   5.845   9.934  0.5071 -0.9830 -0.7094
 1113TIP3    H124754   5.552   5.814   9.889  0.2997 -1.5842  0.0351
 1113TIP3    H224755   5.600   5.921   9.985  0.6781 -0.4782 -1.3629
 1114TIP3   OH224756   6.815   6.917   9.660 -0.6725 -0.4904 -0.4495
 1114TIP3    H124757   6.781   6.982   9.721  2.4924 -0.6311  1.6043
 1114TIP3    H224758   6.874   6.966   9.603  2.5170 -1.6034  1.7531
 1115TIP3   OH224759   0.928   2.517  11.264  0.5688  0.2865  0.0283
 1115TIP3    H124760   1.014   2.504  11.225  0.3267 -2.3678  0.2957
 1115TIP3    H224761   0.922   2.450  11.332 -1.9915 -0.0517 -0.4866
 1116TIP3   OH224762   6.783   1.469  11.906  0.1605 -0.3805 -0.6424
 1116TIP3    H124763   6.832   1.536  11.859  0.9728 -0.0634  0.6169
 1116TIP3    H224764   6.704   1.515  11.938  0.7329  0.0101  0.2497
 1117TIP3   OH224765   6.426   0.411  11.566  0.1691  0.9755 -0.5120
 1117TIP3    H124766   6.403   0.501  11.540 -0.1793  1.7841  2.3969
 1117TIP3    H224767   6.453   0.419  11.657 -0.3709 -1.9851 -0.0503
 1118TIP3   OH224768   1.554   2.084  12.845 -0.2958 -0.3445  0.7958
 1118TIP3    H124769   1.478   2.089  12.787 -0.9511  0.2058  1.6949
 1118TIP3    H224770   1.575   1.990  12.848 -0.6225 -0.4465  0.1500
 1119TIP3   OH224771   3.625   0.533  10.367 -0.5505 -0.1472 -0.0941
 1119TIP3    H124772   3.626   0.590  10.290 -0.4939  0.2289  0.1865
 1119TIP3    H224773   3.603   0.591  10.440  3.1046  0.2400  0.7681
 1120TIP3   OH224774   6.463   4.278  10.758  0.2646  0.2399  0.2080
 1120TIP3    H124775   6.436   4.366  10.731 -0.6019 -0.0236  0.2085
 1120TIP3    H224776   6.523   4.250  10.688  2.4749  1.7675  1.4280
 1121TIP3   OH224777   1.184   2.100  11.686 -0.1682  0.2351 -0.5079
 1121TIP3    H124778   1.264   2.152  11.680  1.3256 -1.9192  0.2526
 1121TIP3    H224779   1.182   2.071  11.778 -1.2008 -0.6850 -0.8130
 1122TIP3   OH224780   5.329   4.598   9.725  0.0346  0.0354  0.1033
 1122TIP3    H124781   5.272   4.536   9.680  2.1294 -0.8372 -1.4366
 1122TIP3    H224782   5.370   4.546   9.795 -1.3277  0.7690  1.4881
 1123TIP3   OH224783   6.552   3.874  10.676  0.6684  0.4517 -0.7507
 1123TIP3    H124784   6.552   3.961  10.637 -1.1645  0.5882 -0.4763
 1123TIP3    H224785   6.460   3.856  10.695  1.2198 -0.7810  0.8723
 1124TIP3   OH224786   6.759   1.885  13.333 -0.4646 -0.0771 -0.0564
 1124TIP3    H124787   6.713   1.805  13.309 -0.6755 -0.3351  1.1796
 1124TIP3    H224788   6.851   1.858  13.342  0.0090  0.4742 -2.7037
 1125TIP3   OH224789   5.585   0.892   1.144 -0.0948  0.2838  0.5581
 1125TIP3    H124790   5.676   0.894   1.115 -0.1447 -4.1105 -0.2823
 1125TIP3    H224791   5.534   0.883   1.063 -1.0491 -0.3657  1.2198
 1126TIP3   OH224792   2.104   3.001  12.339 -0.5643 -0.0657 -0.4812
 1126TIP3    H124793   2.104   3.029  12.431 -1.7959 -1.1475 -0.1514
 1126TIP3    H224794   2.122   3.082  12.290  0.7886  0.3957  0.7318
 1127TIP3   OH224795   1.156   2.987  11.759  0.7477 -0.1600 -0.1661
 1127TIP3    H124796   1.236   2.942  11.786 -0.2523 -0.4679  2.4774
 1127TIP3    H224797   1.085   2.930  11.791 -0.5474  2.3337  1.5644
 1128TIP3   OH224798   0.840   0.238  11.884 -0.2376 -0.5043  0.0810
 1128TIP3    H124799   0.885   0.307  11.835  2.3331 -1.0329  1.6171
 1128TIP3    H224800   0.892   0.159  11.867 -2.3148 -1.7775 -0.4837
 1129TIP3   OH224801   2.027   0.622  11.057  0.5818 -0.4086  0.1917
 1129TIP3    H124802   2.101   0.562  11.067  1.0087  0.2858  1.2979
 1129TIP3    H224803   1.953   0.574  11.093  0.5250 -1.0025 -0.6765
 1130TIP3   OH224804   5.335   2.907   9.604  0.1056 -0.2494 -0.1392
 1130TIP3    H124805   5.301   2.824   9.571 -1.1621  0.9191 -1.8293
 1130TIP3    H224806   5.414   2.923   9.552 -0.8848  0.6894 -1.3792
 1131TIP3   OH224807   0.268   5.821  13.587  0.4178  0.4049 -0.3207
 1131TIP3    H124808   0.274   5.833  13.493 -1.4249 -1.8178 -0.7540
 1131TIP3    H224809   0.217   5.896  13.618 -3.2680 -1.3591 -1.8011
 1132TIP3   OH224810   1.043   0.478  12.756  0.3863 -0.3751 -0.2155
 1132TIP3    H124811   1.125   0.446  12.720  0.4822 -0.1772 -0.1668
 1132TIP3    H224812   0.980   0.408  12.736  0.3027  0.0085 -1.3159
 1133TIP3   OH224813   6.243   4.739  13.838  0.8763  0.5573  0.1243
 1133TIP3    H124814   6.229   4.784  13.922  2.8089 -0.1012  0.8444
 1133TIP3    H224815   6.204   4.653  13.850 -0.5887  1.1318 -0.3696
 1134TIP3   OH224816   3.390   2.080  11.291  0.1795  0.0841 -0.5387
 1134TIP3    H124817   3.370   2.156  11.236 -1.6508 -1.6140 -2.3192
 1134TIP3    H224818   3.311   2.064  11.341  0.1538 -1.2553 -0.9625
 1135TIP3   OH224819   4.416   2.198  15.081 -0.8410 -0.0320  0.4477
 1135TIP3    H124820   4.352   2.127  15.086  0.5225 -1.1637  2.7960
 1135TIP3    H224821   4.476   2.172  15.012  0.0386 -1.5466  1.7416
 1136TIP3   OH224822   1.364   4.374  12.169 -0.0969 -0.6326 -0.3835
 1136TIP3    H124823   1.375   4.442  12.102  1.0814  0.9907  1.3846
 1136TIP3    H224824   1.271   4.378  12.192  0.0355  0.6795 -0.0130
 1137TIP3   OH224825   0.180   2.483  11.678 -0.1972 -0.6120 -0.6121
 1137TIP3    H124826   0.185   2.387  11.678 -1.6478 -0.7150  0.9827
 1137TIP3    H224827   0.250   2.510  11.738 -1.3866 -0.8111  0.8972
 1138TIP3   OH224828   1.642   4.095  14.953  0.4188 -0.1267  0.1352
 1138TIP3    H124829   1.719   4.039  14.951  1.2502  1.0159 -0.1203
 1138TIP3    H224830   1.676   4.184  14.956 -0.8799  0.3609  1.3175
 1139TIP3   OH224831   4.862   1.396   9.771  0.4525  0.0133  0.0576
 1139TIP3    H124832   4.916   1.445   9.708 -0.4302 -0.6751 -1.2663
 1139TIP3    H224833   4.830   1.321   9.721  0.6968 -1.1950  1.6884
 1140TIP3   OH224834   1.116   0.941  11.822 -0.1302  0.3511  0.0682
 1140TIP3    H124835   1.090   0.853  11.850 -0.0636  0.2211 -0.2678
 1140TIP3    H224836   1.052   1.000  11.862  2.9621  0.7090  4.8830
 1141TIP3   OH224837   0.309   3.176  13.705 -0.4773  0.8905  0.2875
 1141TIP3    H124838   0.306   3.107  13.639  1.2511  2.2138 -1.2095
 1141TIP3    H224839   0.347   3.133  13.782 -0.4275 -0.0987 -0.2731
 1142TIP3   OH224840   1.439   3.276   9.771  0.0308 -0.3334 -0.1552
 1142TIP3    H124841   1.481   3.246   9.690 -1.4375 -1.5186 -0.4975
 1142TIP3    H224842   1.346   3.278   9.750 -0.1778  1.4688  0.8492
 1143TIP3   OH224843   3.514   1.441  10.575 -0.0012 -0.3605 -0.5392
 1143TIP3    H124844   3.565   1.380  10.627 -0.1294  0.0873  0.1295
 1143TIP3    H224845   3.568   1.520  10.571 -0.8647  0.3053  0.6428
 1144TIP3   OH224846   0.670   3.855  10.583  0.2362 -0.0232  0.6997
 1144TIP3    H124847   0.695   3.819  10.498  2.6565 -0.0323  1.3725
 1144TIP3    H224848   0.619   3.786  10.625  0.2613 -0.5812 -0.1817
 1145TIP3   OH224849   0.127   1.310   9.773 -0.0863 -0.0934  0.2115
 1145TIP3    H124850   0.145   1.291   9.680 -0.6787  0.1252  0.0493
 1145TIP3    H224851   0.115   1.405   9.775  0.9560  0.0336  0.6924
 1146TIP3   OH224852   7.109   0.244  13.222  0.4316 -0.2983  0.1339
 1146TIP3    H124853   7.183   0.184  13.213  0.3910 -0.4647  0.8719
 1146TIP3    H224854   7.033   0.187  13.226  0.2892 -0.1407 -0.3172
 1147TIP3   OH224855   0.562   6.839   9.651 -0.1021  0.5113 -0.5326
 1147TIP3    H124856   0.600   6.767   9.601 -0.2973 -0.5694  0.8471
 1147TIP3    H224857   0.610   6.916   9.622  0.5160 -0.2598 -1.5966
 1148TIP3   OH224858   6.513   0.532  11.019  0.3538 -0.4922 -0.1534
 1148TIP3    H124859   6.442   0.474  10.990  0.2979 -0.4994  0.0022
 1148TIP3    H224860   6.591   0.498  10.973 -0.0734  0.6582 -1.7927
 1149TIP3   OH224861   0.449   0.314  11.273 -0.3283 -0.1714  0.1255
 1149TIP3    H124862   0.441   0.224  11.304 -2.3040 -0.3281 -0.7837
 1149TIP3    H224863   0.386   0.321  11.202  0.2014  1.7782 -0.1821
 1150TIP3   OH224864   1.753   0.438  11.576  0.0975  0.0932 -0.1934
 1150TIP3    H124865   1.718   0.426  11.488 -1.3547  1.0609  0.2447
 1150TIP3    H224866   1.823   0.503  11.566  0.0179  0.1061 -0.6503
 1151TIP3   OH224867   3.900   1.590  10.758  0.4622 -0.1972 -0.2658
 1151TIP3    H124868   3.826   1.575  10.699 -0.3394 -0.2129  0.7264
 1151TIP3    H224869   3.956   1.513  10.747  0.6514  0.1238 -1.5050
 1152TIP3   OH224870   0.740   6.108  14.263 -0.0485  0.8846  0.2676
 1152TIP3    H124871   0.675   6.150  14.319  0.4550  0.5153  1.1388
 1152TIP3    H224872   0.694   6.031  14.227 -0.7679  1.7970 -0.8385
 1153TIP3   OH224873   7.022   2.344  12.065 -0.2549 -0.6097 -0.3196
 1153TIP3    H124874   7.020   2.439  12.058  0.1537 -0.6289 -0.7085
 1153TIP3    H224875   6.938   2.321  12.105 -0.1947 -0.0597  0.1199
 1154TIP3   OH224876   1.388   1.621  10.296  0.2740  0.5836  0.1426
 1154TIP3    H124877   1.370   1.673  10.218  1.5189  0.4250 -0.2669
 1154TIP3    H224878   1.425   1.539  10.262 -0.3975 -0.0252  0.8436
 1155TIP3   OH224879   1.246   3.654  10.833  0.5204 -0.1884 -0.3461
 1155TIP3    H124880   1.283   3.711  10.765 -0.1873  2.0401  1.0551
 1155TIP3    H224881   1.280   3.690  10.915 -0.2909 -1.5536  0.6150
 1156TIP3   OH224882   2.312   6.662  10.161 -0.5788 -0.0623  0.1183
 1156TIP3    H124883   2.386   6.619  10.120 -0.9362 -1.3240  0.7790
 1156TIP3    H224884   2.245   6.594  10.169 -1.2325  0.6598  0.9486
 1157TIP3   OH224885   3.254   2.726  11.611  0.4720 -0.1767 -0.0069
 1157TIP3    H124886   3.270   2.634  11.591  1.4394  0.5463 -2.8056
 1157TIP3    H224887   3.181   2.725  11.672  0.0262 -2.7657 -0.5158
 1158TIP3   OH224888   2.251   0.286  13.149  0.7352 -0.0481 -0.1622
 1158TIP3    H124889   2.195   0.351  13.106 -0.0302 -2.3183 -2.7593
 1158TIP3    H224890   2.340   0.311  13.125  0.5244  0.6910 -0.1886
 1159TIP3   OH224891   0.921   3.351  10.315  0.2901  0.1892  0.6051
 1159TIP3    H124892   0.912   3.440  10.282  0.9077  0.1730  0.3815
 1159TIP3    H224893   1.001   3.353  10.368 -1.3229  0.5152  3.1251
 1160TIP3   OH224894   7.050   3.655  10.870  0.2885  0.0673  0.2592
 1160TIP3    H124895   6.987   3.715  10.830  0.3135 -0.3624 -0.4469
 1160TIP3    H224896   7.132   3.670  10.821  0.1830 -0.8324 -0.2136
 1161TIP3   OH224897   7.041   0.372  12.863 -0.2479 -0.0519 -0.3670
 1161TIP3    H124898   6.971   0.328  12.815  0.5019 -2.2514  0.5369
 1161TIP3    H224899   7.073   0.307  12.925 -0.3835  2.3639  2.3412
 1162TIP3   OH224900   1.984   1.929  11.810  0.0066  0.2182  0.1119
 1162TIP3    H124901   2.048   1.863  11.784  0.3866  0.5667  0.1671
 1162TIP3    H224902   1.983   1.993  11.739 -0.0775  0.3609  0.2405
 1163TIP3   OH224903   5.555   2.603  11.949 -0.0662 -0.4787 -0.6441
 1163TIP3    H124904   5.548   2.677  11.889 -0.0593 -1.2026 -1.5511
 1163TIP3    H224905   5.478   2.609  12.005  0.0405  0.3273 -0.5771
 1164TIP3   OH224906   0.215   2.652  12.695  0.0732  0.7736  0.0754
 1164TIP3    H124907   0.208   2.589  12.767  2.3883  0.5018  0.0918
 1164TIP3    H224908   0.124   2.679  12.678 -0.9686 -2.5362  0.0750
 1165TIP3   OH224909   1.959   2.845  11.952 -0.2999 -0.2253 -0.3042
 1165TIP3    H124910   1.980   2.775  11.890  0.3840  0.5993 -1.0139
 1165TIP3    H224911   2.022   2.832  12.024 -1.7805 -1.8167  0.7325
 1166TIP3   OH224912   5.193   3.085   9.733  0.1472 -0.5006  0.2654
 1166TIP3    H124913   5.156   3.043   9.811 -0.0342 -0.0209  0.4378
 1166TIP3    H224914   5.216   3.012   9.676 -2.0580 -0.7971 -0.2935
 1167TIP3   OH224915   0.003   3.708  11.522  0.1588 -0.3491  0.1034
 1167TIP3    H124916  -0.039   3.625  11.544  1.6599 -1.8463 -2.4067
 1167TIP3    H224917  -0.052   3.746  11.454 -0.3829  0.6155  1.0653
 1168TIP3   OH224918   1.179   3.695   9.696  0.3746 -0.1236  0.3027
 1168TIP3    H124919   1.099   3.745   9.677 -0.8612 -1.9313  0.6326
 1168TIP3    H224920   1.160   3.649   9.777  1.1721 -1.7832 -0.4273
 1169TIP3   OH224921   6.702   4.702  10.936 -0.0827  0.9067  0.9312
 1169TIP3    H124922   6.774   4.762  10.953  2.1499 -1.1224 -0.9306
 1169TIP3    H224923   6.659   4.737  10.858 -0.3082  1.4437  1.3013
 1170TIP3   OH224924   5.415   2.314  10.267  0.2091 -0.0767 -0.0688
 1170TIP3    H124925   5.394   2.281  10.180 -0.5058 -0.3124  0.1934
 1170TIP3    H224926   5.480   2.383  10.251 -0.4174  0.3453 -0.8410
 1171TIP3   OH224927   0.088   5.916  10.990 -0.2550 -0.1200  0.0231
 1171TIP3    H124928   0.141   5.837  10.987 -0.1485 -0.0080 -1.3771
 1171TIP3    H224929   0.128   5.970  11.058  1.2597 -0.1474 -0.8401
 1172TIP3   OH224930   4.052   2.573  10.377 -0.0542  0.1587  0.2674
 1172TIP3    H124931   4.112   2.547  10.447 -1.4893 -0.9288  1.1420
 1172TIP3    H224932   4.072   2.513  10.305  0.7599  0.6334  0.0918
 1173TIP3   OH224933   6.695   2.825  11.145 -0.1231  0.2862  0.6547
 1173TIP3    H124934   6.745   2.877  11.082 -0.4888 -0.4310 -0.2510
 1173TIP3    H224935   6.754   2.754  11.171 -0.1326  0.3213  0.7722
 1174TIP3   OH224936   2.860   4.678  11.003 -0.0475  0.3947  0.2084
 1174TIP3    H124937   2.923   4.623  11.051 -0.6129  0.5277  1.1122
 1174TIP3    H224938   2.805   4.717  11.071 -1.1521  0.2311 -0.5643
 1175TIP3   OH224939   1.453   0.284   2.193 -0.3418  0.1129  0.4023
 1175TIP3    H124940   1.442   0.341   2.269  0.2712 -0.9264  1.3024
 1175TIP3    H224941   1.430   0.197   2.226  4.8719 -1.2612  0.9160
 1176TIP3   OH224942   3.558   4.494  13.056  0.4814  0.2399 -0.0544
 1176TIP3    H124943   3.510   4.575  13.038  1.9187  0.8733 -1.1874
 1176TIP3    H224944   3.509   4.427  13.009 -1.2601  0.2511  1.6549
 1177TIP3   OH224945   1.226   2.052  10.550 -1.0948  0.0950  0.3689
 1177TIP3    H124946   1.235   1.959  10.531 -1.0931 -0.2480  1.9800
 1177TIP3    H224947   1.139   2.075  10.517 -0.5871 -0.1713 -1.1828
 1178TIP3   OH224948   6.957   3.291  12.306 -0.4413 -0.6072 -0.3638
 1178TIP3    H124949   6.966   3.340  12.225  1.0449 -0.4347 -0.1103
 1178TIP3    H224950   6.926   3.205  12.280 -1.0618 -0.1892 -1.0035
 1179TIP3   OH224951   0.097   3.967  12.114 -0.5352  0.5308 -0.2410
 1179TIP3    H124952   0.088   3.971  12.019  1.7030 -2.8391 -0.6734
 1179TIP3    H224953   0.025   3.910  12.142 -0.9679  1.2149  0.0356
 1180TIP3   OH224954   3.742   4.703  10.710  0.3377  0.3218 -0.2245
 1180TIP3    H124955   3.696   4.739  10.786  0.6211  0.9822 -0.3641
 1180TIP3    H224956   3.672   4.666  10.655  0.0443  0.6776 -0.0918
 1181TIP3   OH224957   1.899   0.210  12.159  0.5849 -0.1855 -0.0713
 1181TIP3    H124958   1.906   0.116  12.148  2.1085 -0.0413 -0.4876
 1181TIP3    H224959   1.952   0.230  12.236  2.4286  0.6290 -1.5153
 1182TIP3   OH224960   6.873   0.570  10.102 -0.4826  0.1517  0.6847
 1182TIP3    H124961   6.884   0.544  10.010 -1.5183  0.5170  0.4525
 1182TIP3    H224962   6.960   0.599  10.129  0.3008 -1.8669  0.4227
 1183TIP3   OH224963   6.889   3.124  10.276 -0.2178  0.1271  0.0052
 1183TIP3    H124964   6.973   3.082  10.296 -0.3559  0.3189  1.0260
 1183TIP3    H224965   6.904   3.168  10.193  0.3362 -0.8271 -0.4181
 1184TIP3   OH224966   2.043   0.228  10.202 -0.5386  0.0810  0.6756
 1184TIP3    H124967   2.018   0.277  10.124 -0.5571 -0.1619  0.5277
 1184TIP3    H224968   2.023   0.286  10.275 -0.8576  0.1696  0.5158
 1185TIP3   OH224969   1.435   4.213  11.076  0.2076 -0.0788  0.0807
 1185TIP3    H124970   1.421   4.131  11.124 -2.8056  0.4677  0.2483
 1185TIP3    H224971   1.507   4.194  11.016 -0.7858 -3.0350 -0.2545
 1186TIP3   OH224972   3.947   1.674  11.569 -0.2478 -0.0431  0.5829
 1186TIP3    H124973   3.951   1.579  11.575 -0.2090 -0.1570 -1.1408
 1186TIP3    H224974   4.008   1.697  11.499 -2.7127  0.9787 -1.3033
 1187TIP3   OH224975   6.864   2.436   9.412  0.7525 -0.1106  0.3809
 1187TIP3    H124976   6.794   2.373   9.424  0.3250  0.6359  1.9551
 1187TIP3    H224977   6.944   2.384   9.410  0.2926 -0.8127  0.3277
 1188TIP3   OH224978   1.356   3.813  10.649  0.0221  0.0649 -0.0527
 1188TIP3    H124979   1.356   3.904  10.619  0.4582  0.3913  0.9170
 1188TIP3    H224980   1.417   3.769  10.590 -1.1636  0.1208 -1.3363
 1189TIP3   OH224981   3.016   3.708  12.780  0.0129 -0.4514 -0.3949
 1189TIP3    H124982   2.937   3.655  12.793  0.3022 -1.0443 -1.0042
 1189TIP3    H224983   3.017   3.769  12.853 -0.3761 -1.2404  0.2692
 1190TIP3   OH224984   1.191   1.540  10.502  0.0091  0.2489  0.2735
 1190TIP3    H124985   1.259   1.543  10.569  0.9159 -0.9614 -0.5639
 1190TIP3    H224986   1.238   1.553  10.420 -0.3774 -3.0178 -0.5302
 1191TIP3   OH224987   5.257   0.066  11.051  0.3266 -0.3684  0.4763
 1191TIP3    H124988   5.334   0.021  11.017  0.8001  0.8004 -0.0588
 1191TIP3    H224989   5.294   0.138  11.103 -0.3963 -1.4882  2.5955
 1192TIP3   OH224990   3.578   2.333  11.671 -0.8571  0.1260  0.3895
 1192TIP3    H124991   3.633   2.306  11.745  0.7959  0.8491 -0.5524
 1192TIP3    H224992   3.554   2.251  11.628 -0.0475 -0.1702  0.4907
 1193TIP3   OH224993   6.962   0.803   9.694  0.0549 -0.6372  0.2159
 1193TIP3    H124994   7.022   0.742   9.737  0.9429  1.1680  1.6157
 1193TIP3    H224995   6.934   0.862   9.763 -1.0212  0.3706 -1.0499
 1194TIP3   OH224996   2.144   4.730  13.504  0.1137 -0.1319 -0.3337
 1194TIP3    H124997   2.188   4.777  13.575 -2.7538  0.1551  1.3158
 1194TIP3    H224998   2.175   4.774  13.424  1.4006  1.2164  0.8690
 1195TIP3   OH224999   4.050   2.356  10.084  0.4199  0.0864 -0.3071
 1195TIP3    H125000   4.110   2.374  10.011 -1.4607 -0.4568 -2.0211
 1195TIP3    H225001   4.101   2.304  10.145  2.0954  0.7325 -1.1311
 1196TIP3   OH225002   4.799   0.600  11.901 -0.4958  0.0403 -0.0658
 1196TIP3    H125003   4.818   0.635  11.814  1.4732  0.4728  0.5301
 1196TIP3    H225004   4.703   0.589  11.901 -0.5793  0.4927 -2.0953
 1197TIP3   OH225005   3.536   3.267  11.075  0.2043  0.2800 -0.2482
 1197TIP3    H125006   3.554   3.357  11.102  0.7881 -0.1955  0.9714
 1197TIP3    H225007   3.540   3.216  11.156 -2.7584 -0.4563 -0.5106
 1198TIP3   OH225008   0.494   3.859  10.298  0.6991  0.2946  0.7094
 1198TIP3    H125009   0.489   3.954  10.303  0.7566  0.3526 -0.2445
 1198TIP3    H225010   0.405   3.829  10.314  0.1493  0.6370 -1.4701
 1199TIP3   OH225011   0.718   6.812  10.032  0.1030 -0.0373  0.1510
 1199TIP3    H125012   0.717   6.716  10.034  1.4282 -0.0759 -0.7533
 1199TIP3    H225013   0.641   6.838  10.083 -0.4587 -1.5871  0.1118
 1200TIP3   OH225014   0.562   3.384  12.172  0.0188 -0.3296 -0.0704
 1200TIP3    H125015   0.656   3.395  12.163  0.0656 -0.6598 -0.0054
 1200TIP3    H225016   0.533   3.348  12.088 -0.0937  0.0509 -0.1941
 1201TIP3   OH225017   6.771   1.743   9.808  0.0564  0.3949 -0.3524
 1201TIP3    H125018   6.866   1.755   9.803  0.3229 -0.0525  2.6340
 1201TIP3    H225019   6.735   1.832   9.810  0.3425  0.5671 -2.0656
 1202TIP3   OH225020   6.137   5.417  14.861 -0.9345  0.8687  0.1061
 1202TIP3    H125021   6.051   5.425  14.903 -1.8099  0.4159 -1.5696
 1202TIP3    H225022   6.130   5.338  14.808  1.2158 -0.3154  1.5453
 1203TIP3   OH225023   2.352   1.672   9.585 -0.6975 -0.6382 -0.0623
 1203TIP3    H125024   2.271   1.624   9.564  0.5996 -2.9017 -0.0391
 1203TIP3    H225025   2.419   1.604   9.589  1.4976  1.3853 -1.5786
 1204TIP3   OH225026   2.999   6.168  11.320  0.2504 -0.2091  0.0133
 1204TIP3    H125027   2.927   6.163  11.382  1.8215  0.9494  2.0076
 1204TIP3    H225028   2.991   6.255  11.280  1.6223  0.7320  1.6864
 1205TIP3   OH225029   1.176   1.213   9.547 -0.3714  0.0768  0.1049
 1205TIP3    H125030   1.130   1.163   9.614 -0.9281 -0.2676 -0.5183
 1205TIP3    H225031   1.224   1.147   9.497 -0.3277  0.2762 -0.1177
 1206TIP3   OH225032   7.085   6.083  10.519 -0.2906  0.0963  0.3966
 1206TIP3    H125033   7.104   6.039  10.602 -0.4998 -0.3201  0.2243
 1206TIP3    H225034   7.005   6.042  10.488 -0.8632  1.0654  0.5664
 1207TIP3   OH225035   3.641   1.655  10.701  0.4176 -0.1160 -0.0786
 1207TIP3    H125036   3.637   1.694  10.788 -1.6219 -1.4922  0.4869
 1207TIP3    H225037   3.631   1.728  10.640 -0.9140  0.5366  0.9067
 1208TIP3   OH225038   1.843   1.906   9.886  0.6365 -0.0098 -0.1977
 1208TIP3    H125039   1.765   1.873   9.840  0.6480  0.2317 -0.3869
 1208TIP3    H225040   1.916   1.862   9.843  0.7225  1.0101 -1.0940
 1209TIP3   OH225041   4.703   5.822  12.115  0.3680 -0.0501  0.8734
 1209TIP3    H125042   4.644   5.772  12.171  1.3657 -1.6904  0.4998
 1209TIP3    H225043   4.789   5.784  12.131  0.6908 -0.4517 -1.6605
 1210TIP3   OH225044   1.149   3.430  10.475  0.4597  0.3343 -0.2030
 1210TIP3    H125045   1.123   3.519  10.500 -0.1215  0.5055 -1.3621
 1210TIP3    H225046   1.240   3.422  10.505  0.8546  1.6911 -0.9798
 1211TIP3   OH225047   1.743   2.383  11.190 -0.0181  0.3611 -0.1808
 1211TIP3    H125048   1.757   2.293  11.161  0.0984 -0.1308  1.3860
 1211TIP3    H225049   1.724   2.376  11.284  2.6926  2.1720  0.5738
 1212TIP3   OH225050   2.298   6.375  12.766  0.3097 -0.0284 -0.1185
 1212TIP3    H125051   2.330   6.349  12.680  0.6149  1.1623 -0.3734
 1212TIP3    H225052   2.304   6.470  12.767 -1.2040  0.0862  0.6235
 1213TIP3   OH225053   2.439   1.663  12.085 -0.2136 -0.1315  0.4348
 1213TIP3    H125054   2.411   1.573  12.105 -1.4774  0.1133 -0.1918
 1213TIP3    H225055   2.409   1.714  12.160  1.6570 -0.4285  1.4119
 1214TIP3   OH225056   6.568   3.676  11.609 -0.1225  0.2330 -0.3163
 1214TIP3    H125057   6.539   3.742  11.671 -0.1804 -0.8708  0.8524
 1214TIP3    H225058   6.507   3.603  11.621 -0.7160  0.3516 -2.3360
 1215TIP3   OH225059   5.063   2.498   9.876  0.1515 -0.0868 -0.0351
 1215TIP3    H125060   5.156   2.503   9.897  0.5913 -0.6954 -1.7072
 1215TIP3    H225061   5.025   2.443   9.945  1.2155 -0.6192  0.1290
 1216TIP3   OH225062   5.342   1.458  11.401  0.0746 -0.0450 -0.1569
 1216TIP3    H125063   5.400   1.512  11.454 -0.5920  1.5123 -0.9957
 1216TIP3    H225064   5.311   1.391  11.462  1.6558 -0.0804  0.6454
 1217TIP3   OH225065   1.351   6.503  13.571  0.1281  0.4260 -0.4312
 1217TIP3    H125066   1.319   6.567  13.507  0.0373 -1.4219 -2.2595
 1217TIP3    H225067   1.446   6.514  13.570  0.2548 -0.7973 -2.1667
 1218TIP3   OH225068   4.324   1.556  13.799  0.0333  0.0157  0.3649
 1218TIP3    H125069   4.322   1.487  13.866  3.6633 -1.8314 -1.2726
 1218TIP3    H225070   4.279   1.517  13.724  0.9259 -0.0909 -0.1219
 1219TIP3   OH225071   4.325   0.464  10.417  0.2280 -0.0028  0.0643
 1219TIP3    H125072   4.381   0.388  10.435  0.4219 -0.6188 -2.7809
 1219TIP3    H225073   4.335   0.479  10.322 -2.2144  1.6552  0.0109
 1220TIP3   OH225074   1.888   6.298  11.072  0.2656 -0.3969 -0.4288
 1220TIP3    H125075   1.855   6.282  11.161 -2.1571  1.1512 -1.0015
 1220TIP3    H225076   1.879   6.214  11.028 -1.6073 -0.3812 -0.1281
 1221TIP3   OH225077   0.682   1.602  11.779  0.1914 -0.4689  0.2110
 1221TIP3    H125078   0.737   1.563  11.711  0.4224  0.6395 -0.2624
 1221TIP3    H225079   0.720   1.689  11.792 -1.6762  0.4519 -0.3858
 1222TIP3   OH225080   6.192   3.173  11.897 -0.0024  0.5224  0.2747
 1222TIP3    H125081   6.214   3.183  11.805  0.9080  0.0789  0.4406
 1222TIP3    H225082   6.219   3.256  11.937  0.8577  0.1958  0.3787
 1223TIP3   OH225083   2.696   1.271  10.662 -0.1508  0.0277 -0.5833
 1223TIP3    H125084   2.695   1.289  10.568  1.3009  2.0210 -0.2650
 1223TIP3    H225085   2.616   1.222  10.678 -1.2186  1.0361 -2.6192
 1224TIP3   OH225086   1.788   6.534  10.984  0.0461 -0.2724 -0.1178
 1224TIP3    H125087   1.693   6.545  10.990 -0.2902 -1.4305 -2.6116
 1224TIP3    H225088   1.804   6.444  11.012  0.3398 -0.2681 -0.2741
 1225TIP3   OH225089   1.461   4.333  10.463 -0.7244 -0.2652  0.1226
 1225TIP3    H125090   1.427   4.386  10.535 -2.7287  1.5091 -2.0691
 1225TIP3    H225091   1.503   4.395  10.404  0.6021 -1.6559 -0.4241
 1226TIP3   OH225092   2.003   4.820  14.425 -0.0702  0.1512  0.0801
 1226TIP3    H125093   2.092   4.783  14.425 -1.0964 -2.3984 -0.7643
 1226TIP3    H225094   1.980   4.823  14.332 -1.0468  0.3539  0.3331
 1227TIP3   OH225095   2.434   5.712  10.761 -0.3687  0.1006  0.3124
 1227TIP3    H125096   2.501   5.648  10.737 -0.3715  0.1526  0.1641
 1227TIP3    H225097   2.466   5.752  10.841 -0.8950 -0.8852  1.0394
 1228TIP3   OH225098   0.464   0.524  11.469 -0.5578  0.2496 -0.7084
 1228TIP3    H125099   0.468   0.451  11.408  1.1371 -0.4785  0.2375
 1228TIP3    H225100   0.372   0.530  11.495 -0.5660 -2.0719 -0.1608
 1229TIP3   OH225101   2.452   4.997  12.559  0.6126 -0.8402  0.2864
 1229TIP3    H125102   2.459   4.942  12.481 -1.7647 -1.0459  0.1717
 1229TIP3    H225103   2.435   5.085  12.525 -1.1175 -1.0496  0.5444
 1230TIP3   OH225104   0.340   0.074  11.410 -0.1806  0.2714 -0.3397
 1230TIP3    H125105   0.411   0.079  11.474 -1.0317  0.6919  0.5910
 1230TIP3    H225106   0.341  -0.016  11.379  1.0574  0.4003 -0.6775
 1231TIP3   OH225107   1.960   2.986   9.866 -0.6562  0.0180 -0.2811
 1231TIP3    H125108   1.905   2.922   9.820 -0.3901 -0.7044  0.3873
 1231TIP3    H225109   1.984   2.942   9.947  0.7107  0.4232 -0.4608
 1232TIP3   OH225110   0.261   5.592  11.504 -0.2865  0.3669 -0.6483
 1232TIP3    H125111   0.258   5.654  11.431  0.2390  1.1349 -0.0318
 1232TIP3    H225112   0.246   5.647  11.581  1.4351 -0.0817  0.0205
 1233TIP3   OH225113   6.859   2.245   9.933  0.1012 -0.0101 -0.3619
 1233TIP3    H125114   6.883   2.155   9.911  0.2785 -0.6719  2.3050
 1233TIP3    H225115   6.942   2.292   9.938  0.3975 -0.7503  2.4395
 1234TIP3   OH225116   0.644   4.094  11.934 -0.1601 -0.3287  0.5649
 1234TIP3    H125117   0.736   4.094  11.962  1.0879  0.2777 -3.1900
 1234TIP3    H225118   0.622   4.187  11.924 -0.9071 -0.5005  0.5944
 1235TIP3   OH225119   6.020   1.430  10.140 -0.3419 -0.0856 -0.4008
 1235TIP3    H125120   6.029   1.335  10.133  0.7815  0.0473 -0.8031
 1235TIP3    H225121   5.979   1.456  10.057 -0.1432 -0.1564 -0.5206
 1236TIP3   OH225122   1.139   2.541   9.537  0.5578 -0.4461 -0.5265
 1236TIP3    H125123   1.063   2.581   9.579 -0.3695 -1.1524 -1.5055
 1236TIP3    H225124   1.164   2.470   9.596  0.5460 -0.1322 -0.1379
 1237TIP3   OH225125   3.204   1.930  10.125  0.9059 -0.2377 -0.9726
 1237TIP3    H125126   3.147   1.971  10.191  1.8897  0.9977 -0.8683
 1237TIP3    H225127   3.143   1.893  10.061 -0.1270 -2.5572  1.2475
 1238TIP3   OH225128   0.550   1.102   9.685  0.2569 -0.1666 -0.2886
 1238TIP3    H125129   0.571   1.051   9.764 -0.5489  1.9439  1.3461
 1238TIP3    H225130   0.466   1.068   9.656 -2.1866  2.7380  3.0486
 1239TIP3   OH225131   6.751   2.349  11.822  0.0192 -0.0771 -0.1484
 1239TIP3    H125132   6.836   2.314  11.795 -0.6659 -1.6460 -0.3287
 1239TIP3    H225133   6.728   2.297  11.899 -0.0780  1.3898  0.8328
 1240TIP3   OH225134   2.765   4.536  10.560 -0.6335  0.1395 -0.1177
 1240TIP3    H125135   2.713   4.460  10.535  1.5203 -2.0366  1.7298
 1240TIP3    H225136   2.730   4.563  10.645  0.4923 -0.6733  0.6271
 1241TIP3   OH225137   3.098   2.115  10.310 -0.7001 -0.1175  0.3203
 1241TIP3    H125138   3.140   2.187  10.358  2.3391 -0.5621 -1.5334
 1241TIP3    H225139   3.034   2.157  10.253  0.3300  1.0371  0.0058
 1242TIP3   OH225140   5.811   2.840  11.754 -0.2432 -0.5105  0.1350
 1242TIP3    H125141   5.866   2.916  11.770 -0.7127 -0.3066  0.7881
 1242TIP3    H225142   5.814   2.828  11.659  0.5187 -0.1997  0.1203
 1243TIP3   OH225143   4.275   3.297  11.022  0.3347 -0.1294  0.2097
 1243TIP3    H125144   4.235   3.288  10.935 -0.0273  0.6699  0.2828
 1243TIP3    H225145   4.233   3.230  11.075  0.4475 -0.5214 -0.1937
 1244TIP3   OH225146   1.675   1.440  12.618 -0.2917 -0.5794  0.1326
 1244TIP3    H125147   1.670   1.429  12.713 -0.3602 -0.9144  0.0923
 1244TIP3    H225148   1.736   1.512  12.605 -0.1910 -0.6113  0.4280
 1245TIP3   OH225149   2.831   1.458  12.398  0.4914  0.0988 -0.4410
 1245TIP3    H125150   2.908   1.414  12.361 -0.1866 -1.7421  0.3081
 1245TIP3    H225151   2.763   1.447  12.332  0.1372 -0.5270  0.0329
 1246TIP3   OH225152   0.435   2.818  11.511 -0.0392  0.3324  0.0437
 1246TIP3    H125153   0.446   2.734  11.466 -0.5859  1.5801 -2.4627
 1246TIP3    H225154   0.344   2.843  11.495  0.0457  1.3100  0.9817
 1247TIP3   OH225155   0.149   6.405  11.355 -0.4615 -0.0934  0.6515
 1247TIP3    H125156   0.082   6.453  11.405 -0.3686 -0.4597  1.1241
 1247TIP3    H225157   0.182   6.340  11.416 -0.3934 -0.5854  0.0879
 1248TIP3   OH225158   5.967   2.370  11.031  0.4672  0.4454  0.5477
 1248TIP3    H125159   5.976   2.307  11.103  1.1505  0.8051  0.7861
 1248TIP3    H225160   5.969   2.316  10.952  0.5245  0.1137  0.7729
 1249TIP3   OH225161   2.529   0.378  11.524  0.1080  0.6795  0.2456
 1249TIP3    H125162   2.576   0.457  11.551 -1.2510  1.4777  0.2927
 1249TIP3    H225163   2.593   0.308  11.534  1.5872  1.8798 -0.5692
 1250TIP3   OH225164   3.048   0.130  12.669  0.0894  0.3153 -0.2912
 1250TIP3    H125165   2.960   0.101  12.644  0.3892 -0.7372 -0.1607
 1250TIP3    H225166   3.075   0.186  12.597 -1.0982  1.4992  0.1677
 1251TIP3   OH225167   2.632   1.728  11.719 -0.4054 -0.3454  0.2138
 1251TIP3    H125168   2.629   1.777  11.637  0.8938 -0.3093  0.1719
 1251TIP3    H225169   2.541   1.716  11.744 -0.9707 -2.9880 -2.8212
 1252TIP3   OH225170   1.206   2.248  10.192 -0.0437  0.3730 -0.0798
 1252TIP3    H125171   1.195   2.178  10.128 -0.6826 -0.3509  0.8127
 1252TIP3    H225172   1.290   2.289  10.168 -0.1161 -0.0930 -1.1715
 1253TIP3   OH225173   0.556   2.671  10.338  0.0257  0.0574  0.0760
 1253TIP3    H125174   0.532   2.579  10.351 -1.1752  0.2581 -0.6007
 1253TIP3    H225175   0.473   2.718  10.344  0.3281  0.8587 -1.6676
 1254TIP3   OH225176   2.875   0.457  10.040 -0.1832 -0.6288 -0.3090
 1254TIP3    H125177   2.868   0.411   9.957  0.7627  0.0141 -0.7561
 1254TIP3    H225178   2.924   0.397  10.097  1.6909  0.0811 -1.1137
 1255TIP3   OH225179   6.544   6.136  10.323 -0.5943 -0.0482 -0.2279
 1255TIP3    H125180   6.528   6.051  10.364 -2.6495 -0.0193 -0.9246
 1255TIP3    H225181   6.478   6.142  10.254  0.1267  1.7300 -0.7868
 1256TIP3   OH225182   4.833   3.434  10.074 -0.2214  0.0227 -0.5164
 1256TIP3    H125183   4.758   3.468  10.025 -1.0476  0.0134  0.7269
 1256TIP3    H225184   4.908   3.479  10.036 -0.9968  1.0137 -0.8988
 1257TIP3   OH225185   0.348   6.887   9.831  0.8227  0.0894 -0.2949
 1257TIP3    H125186   0.415   6.873   9.765 -0.5373 -0.8972 -1.5103
 1257TIP3    H225187   0.275   6.831   9.804 -0.2496  0.6312  1.3409
 1258TIP3   OH225188   0.060   2.929  14.385 -0.6058  0.2655  0.4864
 1258TIP3    H125189   0.074   3.012  14.430  0.8332  1.0914 -1.3897
 1258TIP3    H225190  -0.021   2.942  14.336 -0.9583  0.1730  1.0426
 1259TIP3   OH225191   2.546   4.878   9.842  0.6966  0.1217 -0.2184
 1259TIP3    H125192   2.570   4.785   9.836 -0.0117 -0.3501  3.1163
 1259TIP3    H225193   2.629   4.922   9.861  1.1391  0.2965 -2.4084
 1260TIP3   OH225194   0.141   2.313   9.965 -0.0378  0.3557 -0.3199
 1260TIP3    H125195   0.179   2.230   9.993 -0.7168 -0.2905 -1.3002
 1260TIP3    H225196   0.165   2.375  10.034 -0.2207 -0.8322  0.8212
 1261TIP3   OH225197   0.918   2.883   9.795  0.6324 -0.1580  0.3786
 1261TIP3    H125198   0.928   2.940   9.718  0.1750 -3.1223 -1.9401
 1261TIP3    H225199   0.967   2.929   9.864 -0.3094  3.3972 -1.1714
 1262TIP3   OH225200   3.792   5.649  12.422  0.2287 -0.2124  0.2385
 1262TIP3    H125201   3.796   5.617  12.512  0.2885 -1.0256 -0.0495
 1262TIP3    H225202   3.707   5.693  12.416  0.0830 -0.4434  0.6048
 1263TIP3   OH225203   3.579   4.216  10.841  0.1624  0.0057 -0.1108
 1263TIP3    H125204   3.572   4.207  10.746 -1.2968  0.0090 -0.0142
 1263TIP3    H225205   3.673   4.219  10.858  0.4946 -2.7907 -1.2961
 1264TIP3   OH225206   2.546   3.948  10.215 -0.3786  0.2603 -0.0494
 1264TIP3    H125207   2.588   3.873  10.173  0.3890 -0.0080  1.1857
 1264TIP3    H225208   2.568   4.023  10.159 -0.9180 -0.3799 -1.1304
 1265TIP3   OH225209   1.268   6.273  13.652 -0.4275  0.2330  0.5403
 1265TIP3    H125210   1.270   6.364  13.623  1.2604  0.1784  0.4550
 1265TIP3    H225211   1.357   6.241  13.638 -1.0506 -1.4954  0.3798
 1266TIP3   OH225212   2.261   0.719  11.398 -0.1713  0.0678  0.1461
 1266TIP3    H125213   2.318   0.652  11.359 -0.1347 -0.4186  1.0323
 1266TIP3    H225214   2.247   0.690  11.488 -3.8384 -1.1061 -0.7219
 1267TIP3   OH225215   3.505   4.474   9.592  0.3688  0.2772  0.0046
 1267TIP3    H125216   3.562   4.533   9.544  1.9503 -0.2990  1.1499
 1267TIP3    H225217   3.535   4.479   9.682  1.5926 -3.4872 -0.1103
 1268TIP3   OH225218   2.167   0.029  12.438 -0.1140 -0.7508  0.0033
 1268TIP3    H125219   2.240  -0.032  12.431  0.3554 -0.0994 -0.9367
 1268TIP3    H225220   2.206   0.109  12.475 -0.0149  0.1144 -1.8997
 1269TIP3   OH225221   5.899   4.132   9.785  0.1292  0.3449 -0.3025
 1269TIP3    H125222   5.950   4.156   9.863  0.6680  2.1431 -1.2033
 1269TIP3    H225223   5.809   4.157   9.807  0.2457  0.6571 -0.1787
 1270TIP3   OH225224   2.680   2.481  13.890 -0.0733 -0.2872  0.0630
 1270TIP3    H125225   2.606   2.536  13.917 -1.8708 -1.7184 -1.7516
 1270TIP3    H225226   2.726   2.534  13.824 -0.3209  0.0450  0.1531
 1271TIP3   OH225227   0.704   3.734  11.679 -0.0891 -0.0538  0.3518
 1271TIP3    H125228   0.694   3.701  11.589 -0.2064 -1.0891  0.7403
 1271TIP3    H225229   0.643   3.808  11.684  0.7760  0.7471 -0.7828
 1272TIP3   OH225230   1.607   3.132  13.459 -0.1223  0.2531 -0.0196
 1272TIP3    H125231   1.618   3.109  13.551 -0.6776 -0.8947 -0.2305
 1272TIP3    H225232   1.545   3.067  13.426  0.7575  0.1151 -1.4227
 1273TIP3   OH225233   2.002   6.663  12.978 -0.9643  0.1646  0.0969
 1273TIP3    H125234   2.009   6.754  12.948  0.8558  0.3496  1.0234
 1273TIP3    H225235   1.961   6.617  12.905  0.0302  1.3231 -1.2029
 1274TIP3   OH225236   6.422   4.020  11.975 -0.2178  0.1020 -0.3610
 1274TIP3    H125237   6.405   3.991  12.065  1.0046 -0.3890 -0.2774
 1274TIP3    H225238   6.419   4.115  11.980 -0.0195  0.0819  0.2340
 1275TIP3   OH225239   1.423   1.350  10.958 -0.3370 -0.1849  0.3285
 1275TIP3    H125240   1.448   1.262  10.932  0.0424  0.0457 -0.0977
 1275TIP3    H225241   1.506   1.396  10.972 -0.5313  0.0394  0.7708
 1276TIP3   OH225242   2.608   1.524  11.382  0.0011  0.4509  0.3012
 1276TIP3    H125243   2.679   1.586  11.363  0.1647  0.5248  1.1317
 1276TIP3    H225244   2.528   1.576  11.371  0.1630  1.0258  1.7290
 1277TIP3   OH225245   3.207   6.062  13.942 -0.4632 -0.8211 -0.7796
 1277TIP3    H125246   3.200   5.985  13.999  0.1584 -0.4633 -0.2178
 1277TIP3    H225247   3.279   6.113  13.979 -3.2875  1.9634  1.1422
 1278TIP3   OH225248   4.808   6.080  12.026 -0.0238 -0.4146  0.3785
 1278TIP3    H125249   4.783   5.991  12.051 -0.0947 -0.6401 -0.4682
 1278TIP3    H225250   4.900   6.073  12.000 -0.8161 -0.8425 -2.4758
 1279TIP3   OH225251   0.303   7.123  12.812 -0.1751  0.2021 -0.5393
 1279TIP3    H125252   0.355   7.080  12.744  0.8719 -0.2563  0.5279
 1279TIP3    H225253   0.285   7.210  12.776 -1.1734 -0.6412 -2.1515
 1280TIP3   OH225254   3.646   0.432  11.899 -0.5845  0.5009  0.1018
 1280TIP3    H125255   3.654   0.474  11.814 -0.1052 -0.2056 -0.2109
 1280TIP3    H225256   3.594   0.493  11.952 -0.5402  1.1229 -0.5678
 1281TIP3   OH225257   3.345   2.187  10.851 -0.9049 -0.0328  0.3265
 1281TIP3    H125258   3.307   2.187  10.939  0.1757  1.0254  0.8159
 1281TIP3    H225259   3.324   2.274  10.816  2.3494  1.1832  1.2163
 1282TIP3   OH225260   6.488   2.201  12.159 -0.4507  0.0714  0.0598
 1282TIP3    H125261   6.419   2.171  12.218  0.4742  1.3085  1.8024
 1282TIP3    H225262   6.460   2.170  12.073 -2.8691  0.0223  0.8104
 1283TIP3   OH225263   6.519   5.038   9.794 -0.0065  0.2764 -0.1207
 1283TIP3    H125264   6.512   4.945   9.817  1.5670  0.0984 -0.3190
 1283TIP3    H225265   6.613   5.053   9.783 -0.2372  1.9366  0.0732
 1284TIP3   OH225266   4.045   3.425  10.462 -0.6961  0.1617  0.0539
 1284TIP3    H125267   4.089   3.357  10.411 -0.6025  0.0923  0.2249
 1284TIP3    H225268   4.078   3.412  10.551 -0.1937  0.8388 -0.0301
 1285TIP3   OH225269   4.446   3.562  15.262  0.4543 -0.7011  0.6571
 1285TIP3    H125270   4.451   3.467  15.278  1.2248 -0.7371  0.2336
 1285TIP3    H225271   4.357   3.575  15.229  0.5342 -1.3697  0.1545
 1286TIP3   OH225272   1.897   4.366  12.629 -0.4576  0.0627 -0.5310
 1286TIP3    H125273   1.989   4.347  12.647 -0.7246 -1.2816 -0.5316
 1286TIP3    H225274   1.875   4.310  12.554 -1.8031 -1.1408  0.7152
 1287TIP3   OH225275   1.367   2.627  10.152 -0.3105  0.7968  0.2463
 1287TIP3    H125276   1.346   2.558  10.214  0.7094  1.0961  0.9296
 1287TIP3    H225277   1.364   2.584  10.066 -1.0031  0.2205  0.5589
 1288TIP3   OH225278   2.178   1.994  14.140 -0.3135 -0.5864  0.0968
 1288TIP3    H125279   2.167   1.903  14.169  0.7432 -0.3615  1.2644
 1288TIP3    H225280   2.261   1.994  14.093  0.6634  0.1694  1.8040
 1289TIP3   OH225281   1.087   2.336  11.040  0.5579  0.5574  0.0470
 1289TIP3    H125282   1.023   2.407  11.032 -0.1182 -0.0396  0.0241
 1289TIP3    H225283   1.096   2.302  10.951 -4.1804 -3.6970  0.9576
 1290TIP3   OH225284   5.040   0.466  11.574 -0.5905  0.4767 -0.6376
 1290TIP3    H125285   5.019   0.559  11.584  0.6510  0.6064  1.0141
 1290TIP3    H225286   5.125   0.467  11.530  0.6281  0.2045  1.6459
 1291TIP3   OH225287   0.554   6.946  13.823  0.1480 -0.5326 -0.7565
 1291TIP3    H125288   0.603   6.867  13.844  0.4452 -0.0250  0.4891
 1291TIP3    H225289   0.581   7.009  13.889 -0.4756  0.4525 -1.4368
 1292TIP3   OH225290   2.108   0.958  12.018 -0.1007 -0.0208 -0.1339
 1292TIP3    H125291   2.101   0.917  11.932  0.6701 -0.0778 -0.1676
 1292TIP3    H225292   2.182   0.915  12.060 -1.6289 -1.3515  1.3031
 1293TIP3   OH225293   0.927   5.256  10.787  0.3937  0.0465  0.1868
 1293TIP3    H125294   1.010   5.210  10.769  0.2661 -0.6331  1.2681
 1293TIP3    H225295   0.953   5.340  10.825  0.5986 -0.0380  0.2329
 1294TIP3   OH225296   0.641   0.417  10.698 -0.0322  0.0858  0.6132
 1294TIP3    H125297   0.639   0.384  10.787  0.6501  0.3199  0.7222
 1294TIP3    H225298   0.661   0.510  10.707  0.6077 -0.0061  0.1911
 1295TIP3   OH225299   0.113   2.881  11.587 -0.0366 -0.9455  0.2673
 1295TIP3    H125300   0.151   2.925  11.664  0.7614 -0.8678 -0.1703
 1295TIP3    H225301   0.060   2.948  11.545  1.0809 -0.4165 -0.3292
 1296TIP3   OH225302   4.487   6.490  10.776  0.0906 -0.4816  0.3825
 1296TIP3    H125303   4.418   6.520  10.717 -0.2463 -0.5649  0.7237
 1296TIP3    H225304   4.567   6.494  10.725 -0.1784 -0.4243 -0.0346
 1297TIP3   OH225305   1.095   7.032  10.017  0.4711  0.6448  0.4857
 1297TIP3    H125306   1.139   6.994  10.094  0.0708 -1.2938 -0.2179
 1297TIP3    H225307   1.163   7.034   9.950  0.5108  1.2669  0.5426
 1298TIP3   OH225308   0.375   1.753  10.423  0.1622 -0.1568 -0.2299
 1298TIP3    H125309   0.447   1.810  10.449  0.9094 -0.6964 -1.0737
 1298TIP3    H225310   0.378   1.681  10.486 -0.6769  0.6369  0.7329
 1299TIP3   OH225311   0.277   7.034  11.905 -0.4749  0.1415  0.4161
 1299TIP3    H125312   0.230   7.098  11.958 -0.1728 -0.7363  1.7743
 1299TIP3    H225313   0.276   6.954  11.957  2.3699  0.0395  0.4184
 1300TIP3   OH225314   1.377   7.039  13.862  0.3915 -0.1348 -0.0627
 1300TIP3    H125315   1.384   6.962  13.919  1.8547  1.3109  1.7693
 1300TIP3    H225316   1.349   7.109  13.920  1.8902  1.3849 -1.1394
 1301TIP3   OH225317   4.882   2.573  12.201  0.1889 -0.4351 -0.0170
 1301TIP3    H125318   4.855   2.517  12.128 -0.2268 -1.4430  0.8842
 1301TIP3    H225319   4.800   2.610  12.234  0.3365 -0.2600  0.1521
 1302TIP3   OH225320   3.300   1.965  14.111 -0.1566  0.2356 -0.4503
 1302TIP3    H125321   3.331   2.053  14.132  0.6733  0.0898 -1.0900
 1302TIP3    H225322   3.376   1.908  14.122 -0.9460 -0.5841  1.0598
 1303TIP3   OH225323   2.811   6.978  13.797  0.2879 -0.7081 -0.4236
 1303TIP3    H125324   2.903   7.003  13.793  0.2774 -0.5682  0.1275
 1303TIP3    H225325   2.811   6.892  13.840 -0.0286  0.4910  2.0828
 1304TIP3   OH225326   6.222   0.623  14.706  0.5070 -0.4173  0.0738
 1304TIP3    H125327   6.288   0.692  14.699  1.1539 -0.9730  0.6243
 1304TIP3    H225328   6.148   0.655  14.654 -1.2567  3.0697  4.3790
 1305TIP3   OH225329   3.364   0.915  12.190  0.3076 -0.2759 -0.1990
 1305TIP3    H125330   3.378   0.931  12.097  0.5888  2.4440  0.2590
 1305TIP3    H225331   3.359   1.003  12.229 -0.1521 -1.3569  2.2920
 1306TIP3   OH225332   0.473   5.326  10.291 -0.1337 -0.3117 -0.0654
 1306TIP3    H125333   0.420   5.363  10.221  1.2718  0.3236 -0.7995
 1306TIP3    H225334   0.412   5.269  10.340 -1.1119 -0.7623 -1.7794
 1307TIP3   OH225335   2.407   1.213  12.552  0.1471  0.4333 -0.0636
 1307TIP3    H125336   2.450   1.282  12.502 -2.6240  1.7348 -0.7847
 1307TIP3    H225337   2.450   1.214  12.637  2.0240  1.1446 -1.0098
 1308TIP3   OH225338   2.864   4.734  11.997 -0.0138 -0.4300 -0.2540
 1308TIP3    H125339   2.833   4.647  12.023  2.1350 -1.4100 -0.8614
 1308TIP3    H225340   2.924   4.717  11.924 -0.7191  1.7051 -1.3583
 1309TIP3   OH225341   4.506   5.265  10.860  0.1477 -0.0317 -0.0535
 1309TIP3    H125342   4.589   5.232  10.825 -0.4737 -0.3644 -1.2271
 1309TIP3    H225343   4.439   5.228  10.803 -1.0378 -2.0062  2.4808
 1310TIP3   OH225344   2.978   6.395  10.272  0.0275  0.4052  0.6422
 1310TIP3    H125345   2.982   6.441  10.188  1.6430 -0.1041  0.4202
 1310TIP3    H225346   2.950   6.461  10.335 -0.6750  0.9208 -0.1969
 1311TIP3   OH225347   3.502   4.032  10.562 -0.6799 -0.2195  0.2876
 1311TIP3    H125348   3.452   3.990  10.491 -3.1278  1.5756  0.9026
 1311TIP3    H225349   3.511   3.964  10.628  0.6839 -1.5880 -1.2508
 1312TIP3   OH225350   2.738   1.325   9.909  0.5032 -0.0393 -0.0135
 1312TIP3    H125351   2.668   1.346   9.848  0.1154 -0.3928  0.3008
 1312TIP3    H225352   2.789   1.256   9.865  0.2027 -0.3202  0.0731
 1313TIP3   OH225353   2.106   0.655  10.091 -0.1782 -0.3220  0.0067
 1313TIP3    H125354   2.027   0.601  10.096  0.6029 -1.4111  0.6794
 1313TIP3    H225355   2.166   0.605  10.036  0.4233  0.0075  0.3566
 1314TIP3   OH225356   3.876   0.947  11.824 -0.1995 -0.2989 -0.3873
 1314TIP3    H125357   3.896   0.967  11.915 -1.3870 -0.4610 -0.0723
 1314TIP3    H225358   3.960   0.923  11.785  0.4487  0.5930  0.4446
 1315TIP3   OH225359   6.060   2.337  10.119 -0.0712 -0.1699  0.0140
 1315TIP3    H125360   6.014   2.404  10.169 -0.8989 -1.0251  0.4042
 1315TIP3    H225361   6.152   2.364  10.124 -0.3766  0.8668  0.2728
 1316TIP3   OH225362   1.533   0.255  10.676  0.3035 -0.0131  0.7644
 1316TIP3    H125363   1.626   0.233  10.673  0.1910 -0.4902  0.8201
 1316TIP3    H225364   1.500   0.232  10.589  0.3501  0.6647  0.5617
 1317TIP3   OH225365   6.769   0.612   9.779  0.2106  0.6887  0.8865
 1317TIP3    H125366   6.795   0.550   9.711  0.2681  1.1098  0.5201
 1317TIP3    H225367   6.820   0.691   9.761 -1.4545  1.6094  0.0087
 1318TIP3   OH225368   3.777   1.960  11.369  0.1581 -0.1819 -0.3505
 1318TIP3    H125369   3.777   1.939  11.462 -0.4185 -0.5604 -0.4360
 1318TIP3    H225370   3.825   1.889  11.327 -0.5060 -0.5745 -0.4630
 1319TIP3   OH225371   1.204   2.809  11.171 -0.6214 -0.0532 -0.1430
 1319TIP3    H125372   1.265   2.822  11.243 -0.4364 -1.4322 -0.0203
 1319TIP3    H225373   1.127   2.859  11.195  0.2125  1.1867  0.0112
 1320TIP3   OH225374   3.876   3.448  12.964  0.2326 -0.1967 -0.3884
 1320TIP3    H125375   3.805   3.407  12.915 -0.2923 -0.4589  0.5593
 1320TIP3    H225376   3.956   3.419  12.921 -0.2182 -0.4365 -1.0659
 1321TIP3   OH225377   1.830   1.384  11.330  0.0487 -0.6700  0.9271
 1321TIP3    H125378   1.915   1.356  11.296  0.5341  0.8356  0.8624
 1321TIP3    H225379   1.766   1.337  11.276  0.8344 -0.9693  0.2455
 1322TIP3   OH225380   2.520   4.766  11.083 -0.1923  0.1549  0.5895
 1322TIP3    H125381   2.425   4.778  11.082 -0.1398  0.4704 -0.9323
 1322TIP3    H225382   2.535   4.692  11.025  0.5624  0.5665  0.2652
 1323TIP3   OH225383   1.444   1.099  11.941 -0.3658 -0.3143  0.9039
 1323TIP3    H125384   1.386   1.024  11.950 -0.8032  0.1349  1.8279
 1323TIP3    H225385   1.528   1.062  11.914 -1.1291 -0.9481 -0.6436
 1324TIP3   OH225386   5.033   1.548   9.615  0.1013  0.3691  0.2787
 1324TIP3    H125387   5.023   1.488   9.540  2.0649  0.5861 -0.1661
 1324TIP3    H225388   4.986   1.627   9.588 -0.0526  0.0791 -0.3234
 1325TIP3   OH225389   1.026   2.452  10.569 -0.2492 -0.1440  0.2819
 1325TIP3    H125390   1.027   2.527  10.509 -1.9931  0.3895  0.8864
 1325TIP3    H225391   1.042   2.376  10.514  2.5739  0.7388 -0.2060
 1326TIP3   OH225392   6.782   1.481  11.188 -0.3857  0.3017 -0.2744
 1326TIP3    H125393   6.836   1.557  11.209  0.3031 -0.3737  0.4474
 1326TIP3    H225394   6.713   1.481  11.254 -0.9883  0.8740 -0.8903
 1327TIP3   OH225395   0.605   3.793  12.064 -0.0950 -0.4794  0.0659
 1327TIP3    H125396   0.514   3.813  12.045 -0.0381 -0.9577 -0.7316
 1327TIP3    H225397   0.653   3.873  12.041 -0.1959 -0.5658 -0.4388
 1328TIP3   OH225398   4.101   3.924   9.949 -0.2231  0.0499 -0.3461
 1328TIP3    H125399   4.062   3.840   9.923 -0.6964 -0.4624  1.9458
 1328TIP3    H225400   4.194   3.913   9.929 -0.3306 -0.9186 -0.3561
 1329TIP3   OH225401   3.591   1.933  11.153  0.4884  0.4584 -0.0253
 1329TIP3    H125402   3.510   1.950  11.200  0.3867  0.5806 -0.2442
 1329TIP3    H225403   3.660   1.952  11.217  0.3312 -0.4948  0.4356
 1330TIP3   OH225404   2.822   6.301   9.669  0.0081  0.2099  0.4665
 1330TIP3    H125405   2.910   6.311   9.634 -0.7606 -1.2006 -2.0244
 1330TIP3    H225406   2.824   6.219   9.718 -0.1874 -0.4372 -0.5842
 1331TIP3   OH225407   3.400   0.162  11.610  0.4818 -0.4567 -0.1129
 1331TIP3    H125408   3.451   0.136  11.534  3.4509 -0.5279  1.8287
 1331TIP3    H225409   3.375   0.079  11.652  1.7290 -0.3954  0.7922
 1332TIP3   OH225410   1.881   2.502  10.192 -0.8115 -0.7637 -0.3479
 1332TIP3    H125411   1.905   2.571  10.253 -0.3355  0.1218 -1.5066
 1332TIP3    H225412   1.807   2.538  10.143 -0.4529 -0.9999 -1.0750
 1333TIP3   OH225413   0.063   2.224  12.223  0.4789 -0.3304  0.1014
 1333TIP3    H125414   0.024   2.229  12.310  0.2751  1.4165 -0.0713
 1333TIP3    H225415   0.030   2.300  12.177  2.3357 -0.0132 -0.7843
 1334TIP3   OH225416   5.445   1.401  10.328 -0.0019 -0.6430 -0.1101
 1334TIP3    H125417   5.505   1.329  10.312  0.5394 -0.0174 -0.9125
 1334TIP3    H225418   5.376   1.390  10.263  0.2246 -0.2789 -0.4121
 1335TIP3   OH225419   5.348   3.309   9.557 -0.1004  0.1829  0.0433
 1335TIP3    H125420   5.289   3.265   9.618 -0.9146  0.9550 -0.1744
 1335TIP3    H225421   5.436   3.287   9.588 -0.4646 -2.0437 -0.3728
 1336TIP3   OH225422   4.706   0.823  10.984 -0.0457  0.0842 -0.5374
 1336TIP3    H125423   4.693   0.857  11.072 -0.5192  1.6635 -1.1850
 1336TIP3    H225424   4.620   0.790  10.957 -0.6738  2.3860 -1.5072
 1337TIP3   OH225425   0.307   4.043  11.052  0.1426 -0.8287 -0.1759
 1337TIP3    H125426   0.396   4.049  11.087  0.1688  0.4365 -0.4291
 1337TIP3    H225427   0.317   4.065  10.959 -0.2513 -1.9420 -0.4846
 1338TIP3   OH225428   2.836   6.443  12.526 -0.3851 -0.5071 -0.0201
 1338TIP3    H125429   2.927   6.469  12.539 -1.1371  1.3833  1.8588
 1338TIP3    H225430   2.838   6.347  12.525  1.5403 -0.4910  0.5449
 1339TIP3   OH225431   2.533   3.706  12.060  0.0682 -0.0376  0.3970
 1339TIP3    H125432   2.582   3.743  12.133 -0.6245 -1.2170  1.4749
 1339TIP3    H225433   2.461   3.658  12.101 -0.8572  0.0428 -1.0929
 1340TIP3   OH225434   2.424   1.032  14.287 -0.3807 -0.4204 -0.1069
 1340TIP3    H125435   2.413   1.099  14.354 -0.2059 -0.4015 -0.0951
 1340TIP3    H225436   2.507   1.055  14.244 -0.1380 -0.8309  0.1334
 1341TIP3   OH225437   0.798   5.630  10.375  0.1576 -0.3502 -0.3350
 1341TIP3    H125438   0.856   5.577  10.320 -0.6901 -1.7578  0.0990
 1341TIP3    H225439   0.712   5.590  10.365  0.2297 -1.4463  3.0074
 1342TIP3   OH225440   4.401   0.993  12.505  0.3776  0.4428  0.6131
 1342TIP3    H125441   4.395   1.011  12.411  0.9584 -2.5094 -0.0269
 1342TIP3    H225442   4.338   0.923  12.520  0.3493  0.8335  2.4378
 1343TIP3   OH225443   1.250   2.677  10.909 -0.0637  0.2634 -0.0414
 1343TIP3    H125444   1.273   2.770  10.903  2.4908 -0.3967 -0.9571
 1343TIP3    H225445   1.260   2.656  11.002 -0.8717  0.9368  0.2077
 1344TIP3   OH225446   1.134   2.554  13.013 -0.4118  0.2154  0.0585
 1344TIP3    H125447   1.117   2.464  12.986 -0.0095  0.1591 -0.0173
 1344TIP3    H225448   1.051   2.584  13.050 -0.6115 -0.1124 -0.1145
 1345TIP3   OH225449   5.422   6.689  12.176  0.2324 -0.0650 -0.2760
 1345TIP3    H125450   5.342   6.638  12.163  0.7604 -1.4617  1.7232
 1345TIP3    H225451   5.396   6.759  12.236  0.1735  0.3165 -0.7488
 1346TIP3   OH225452   4.020   0.564  11.508 -0.3528  0.0527 -0.4274
 1346TIP3    H125453   3.957   0.491  11.515 -0.1408 -0.0041  1.1038
 1346TIP3    H225454   4.101   0.528  11.543  0.0109  0.7402 -0.5680
 1347TIP3   OH225455   0.550   0.594  10.285 -0.0693  0.1532 -0.3582
 1347TIP3    H125456   0.496   0.616  10.361  0.4611 -0.0151  0.0722
 1347TIP3    H225457   0.625   0.547  10.322  1.0167  1.5064 -0.8043
 1348TIP3   OH225458   1.745   0.621  11.115  0.3582  0.1482  0.1885
 1348TIP3    H125459   1.734   0.714  11.096  2.4351  0.4509  0.3704
 1348TIP3    H225460   1.721   0.577  11.033  0.7593  0.9249 -0.3498
 1349TIP3   OH225461   1.111   4.999  10.012 -0.3728 -0.0538  0.3519
 1349TIP3    H125462   1.081   4.910   9.997 -2.0689  0.3471  1.2552
 1349TIP3    H225463   1.044   5.054   9.972 -0.1044  0.8431  1.1199
 1350TIP3   OH225464   4.392   2.109  11.269 -0.0935 -0.6037  0.4705
 1350TIP3    H125465   4.319   2.047  11.277  0.6311 -1.3539  1.4172
 1350TIP3    H225466   4.357   2.192  11.303 -0.1968 -1.2208  1.9163
 1351TIP3   OH225467   2.635   1.406  10.157  0.3995  0.2386 -0.5050
 1351TIP3    H125468   2.630   1.349  10.079  1.2366 -0.3261 -0.1519
 1351TIP3    H225469   2.646   1.494  10.121  0.3468  0.0320 -1.0387
 1352TIP3   OH225470   4.091   1.809  12.911  0.0391  0.4084  0.0483
 1352TIP3    H125471   4.127   1.734  12.959  0.9314  0.6332 -0.2664
 1352TIP3    H225472   4.142   1.813  12.830  0.4557  1.7550  0.3660
 1353TIP3   OH225473   5.943   0.316  12.707  0.0794 -0.2714 -0.0637
 1353TIP3    H125474   5.870   0.279  12.756  0.2335 -0.6263 -0.0996
 1353TIP3    H225475   5.988   0.373  12.769  1.3827 -2.1664  0.7914
 1354TIP3   OH225476   2.305   1.393  11.465  0.8525 -0.1378 -0.0437
 1354TIP3    H125477   2.314   1.302  11.437 -1.3281 -0.5249  0.4269
 1354TIP3    H225478   2.374   1.440  11.418  1.9720 -2.0156 -0.3129
 1355TIP3   OH225479   2.732   5.599  15.353 -0.0473 -0.5879  0.3368
 1355TIP3    H125480   2.817   5.562  15.332 -0.3833 -0.8383 -0.6377
 1355TIP3    H225481   2.670   5.530  15.331 -0.4771 -0.5551  1.4270
 1356TIP3   OH225482   4.765   1.482  11.512 -0.1419 -0.6638  0.2794
 1356TIP3    H125483   4.724   1.401  11.481  0.2260 -0.2866 -1.2503
 1356TIP3    H225484   4.692   1.541  11.529 -0.5085 -1.8593  3.0619
 1357TIP3   OH225485   3.478   6.912  15.531 -0.1026  0.0011  0.2518
 1357TIP3    H125486   3.388   6.944  15.520 -0.9017 -1.9705  0.7505
 1357TIP3    H225487   3.519   6.976  15.589 -1.3955  0.5708  0.5711
 1358TIP3   OH225488   2.155   0.851   9.413  0.3765 -0.6754  0.2892
 1358TIP3    H125489   2.083   0.827   9.470 -1.5649 -0.6406 -2.0914
 1358TIP3    H225490   2.164   0.946   9.423 -0.1423 -0.6324  0.3243
 1359TIP3   OH225491   7.013   2.805  10.216  0.1673 -0.5037  0.1671
 1359TIP3    H125492   7.066   2.881  10.240  0.8531 -1.0117  0.2800
 1359TIP3    H225493   7.060   2.766  10.143 -1.0251  0.0847 -0.9467
 1360TIP3   OH225494   3.944   4.468  12.809  0.1872  0.6996  1.1761
 1360TIP3    H125495   3.884   4.402  12.775  1.2366  1.0960 -1.5690
 1360TIP3    H225496   3.943   4.455  12.904 -1.3567 -1.7365  0.8657
 1361TIP3   OH225497   2.508   5.421  11.182 -0.0859 -0.4601 -0.1015
 1361TIP3    H125498   2.552   5.365  11.118 -1.3857 -1.4080 -0.1868
 1361TIP3    H225499   2.447   5.473  11.131  0.4397  0.3769  0.1045
 1362TIP3   OH225500   3.053   4.955  13.106 -0.5795 -0.4513 -0.1631
 1362TIP3    H125501   2.999   5.026  13.071 -0.1734  0.5618  1.2463
 1362TIP3    H225502   3.111   4.997  13.169  2.6619 -1.3181 -2.4113
 1363TIP3   OH225503   2.761   5.437  11.316  0.3595 -0.7581 -0.0226
 1363TIP3    H125504   2.805   5.515  11.282  0.3712  0.5491  2.8209
 1363TIP3    H225505   2.668   5.456  11.307  0.3361 -1.8551 -2.3895
 1364TIP3   OH225506   6.522   6.487  10.023 -0.1792  0.0962  0.9584
 1364TIP3    H125507   6.584   6.454   9.958 -1.2539 -1.2582  0.5857
 1364TIP3    H225508   6.444   6.432  10.011 -1.6090  2.0629  1.1051
 1365TIP3   OH225509   1.409   4.433  10.718 -0.2341 -0.2734  0.1802
 1365TIP3    H125510   1.426   4.527  10.711 -1.4859 -0.1331 -1.4170
 1365TIP3    H225511   1.338   4.427  10.782 -2.4310  0.1852 -2.1418
 1366TIP3   OH225512   2.556   4.384  10.358 -0.2168  0.0383  0.8807
 1366TIP3    H125513   2.566   4.479  10.350 -1.6231  0.2019  1.0150
 1366TIP3    H225514   2.526   4.356  10.271  1.5563 -0.4802  0.4148
 1367TIP3   OH225515   0.229   0.958  12.000 -0.0654  0.2215  0.4453
 1367TIP3    H125516   0.267   1.044  11.986  0.1023  0.4217  2.0632
 1367TIP3    H225517   0.258   0.933  12.087 -0.0218 -1.5240 -0.0510
 1368TIP3   OH225518   2.233   0.549  10.744  0.7104 -0.4178 -0.6881
 1368TIP3    H125519   2.277   0.614  10.798 -1.7714  1.8855 -1.2870
 1368TIP3    H225520   2.239   0.583  10.655 -3.5398  0.8987 -0.6165
 1369TIP3   OH225521   4.106   4.621  12.160  0.0850  0.2403 -0.4454
 1369TIP3    H125522   4.163   4.552  12.196 -1.2561 -0.5027  0.2924
 1369TIP3    H225523   4.035   4.629  12.223 -0.9074  0.8002 -1.6037
 1370TIP3   OH225524   3.721   3.594   9.789 -0.6046 -0.1633 -0.1913
 1370TIP3    H125525   3.787   3.661   9.769 -1.2924  0.1984 -1.2689
 1370TIP3    H225526   3.759   3.513   9.756  1.1306 -0.7137  2.9047
 1371TIP3   OH225527   4.416   3.038   9.977  0.0247  0.3949  0.4004
 1371TIP3    H125528   4.412   3.034   9.881 -1.5224  0.7949  0.4282
 1371TIP3    H225529   4.508   3.022   9.998 -0.0508 -2.1290 -1.0310
 1372TIP3   OH225530   6.959   4.883  10.934  0.5682  0.3410 -0.4251
 1372TIP3    H125531   7.014   4.953  10.899  0.2813 -0.5032 -2.6440
 1372TIP3    H225532   7.015   4.839  10.998  1.5029  1.2431 -0.6100
 1373TIP3   OH225533   6.841   5.006  11.887 -0.1454  0.2445 -0.4999
 1373TIP3    H125534   6.783   4.930  11.880 -0.3564  0.2588  1.1276
 1373TIP3    H225535   6.928   4.968  11.897 -0.4485  0.1682  2.2092
 1374TIP3   OH225536   2.838   3.398   9.505 -0.7218 -0.0544 -0.1126
 1374TIP3    H125537   2.747   3.416   9.527 -0.3315 -0.4471  1.9620
 1374TIP3    H225538   2.872   3.350   9.581  0.7105 -1.5107 -1.6405
 1375TIP3   OH225539   2.428   0.994  12.958  0.0180  0.1275 -0.3161
 1375TIP3    H125540   2.430   0.933  13.031  1.1983  0.5896  0.0352
 1375TIP3    H225541   2.425   0.938  12.880  0.0787 -0.3638  0.0348
 1376TIP3   OH225542   2.054   5.566  12.022 -0.0761  0.3826 -0.2702
 1376TIP3    H125543   2.078   5.635  12.084 -1.4262  1.1028 -0.5316
 1376TIP3    H225544   1.958   5.567  12.021 -0.1035 -1.2697 -0.5410
 1377TIP3   OH225545   6.648   5.665  10.788  0.3933 -0.5026 -0.0415
 1377TIP3    H125546   6.656   5.672  10.883 -0.8219 -1.0496  0.1087
 1377TIP3    H225547   6.701   5.738  10.754  0.1465  0.2068  1.0680
 1378TIP3   OH225548   4.328   3.258  12.102 -0.4761 -0.3466  0.1950
 1378TIP3    H125549   4.364   3.170  12.093 -1.0816 -0.4889 -0.9992
 1378TIP3    H225550   4.241   3.245  12.138  0.4259 -0.0373  2.5799
 1379TIP3   OH225551   4.145   4.501  13.320  0.1625 -0.0641  0.3465
 1379TIP3    H125552   4.218   4.538  13.369 -0.0865  1.1673 -0.2018
 1379TIP3    H225553   4.187   4.443  13.256  0.7131  1.0413 -0.3204
 1380TIP3   OH225554   2.703   4.123  11.695  0.0927 -0.3644 -0.4525
 1380TIP3    H125555   2.726   4.108  11.787 -1.4043 -0.4222 -0.0792
 1380TIP3    H225556   2.650   4.047  11.671 -1.6031  0.8582 -0.6228
 1381TIP3   OH225557   3.878   1.197  11.326 -0.1871  0.2707  0.0202
 1381TIP3    H125558   3.962   1.150  11.328 -0.1147  0.3116 -1.7127
 1381TIP3    H225559   3.903   1.287  11.305 -1.0571 -0.7960 -6.4812
 1382TIP3   OH225560   0.213   1.915  12.282 -0.9675 -0.4477  0.2367
 1382TIP3    H125561   0.287   1.855  12.285 -0.5998 -0.0547 -0.8200
 1382TIP3    H225562   0.136   1.858  12.275 -0.6252 -0.7859 -0.7279
 1383TIP3   OH225563   6.393   3.696  10.876 -0.6369  0.4025  0.6488
 1383TIP3    H125564   6.473   3.645  10.864 -0.5573  0.7185 -0.2205
 1383TIP3    H225565   6.335   3.638  10.926 -1.1190 -1.1792 -1.6532
 1384TIP3   OH225566   2.608   0.925  10.204 -0.6225 -0.5549 -0.1459
 1384TIP3    H125567   2.583   0.964  10.288  0.9403 -1.1912  0.6305
 1384TIP3    H225568   2.601   0.831  10.217 -1.9729 -0.6244 -1.2520
 1385TIP3   OH225569   2.979   4.336  12.846 -0.2155  0.6012 -0.2165
 1385TIP3    H125570   3.038   4.411  12.834 -0.0247  0.5211  0.2352
 1385TIP3    H225571   2.933   4.355  12.928  0.0984  0.0399  0.0880
 1386TIP3   OH225572   2.635   3.210  10.950 -0.3008 -0.1311 -0.0332
 1386TIP3    H125573   2.710   3.264  10.972 -1.2594  0.0516  2.9645
 1386TIP3    H225574   2.652   3.126  10.992 -0.7023 -0.8515 -1.2809
 1387TIP3   OH225575   4.252   4.869  10.408  0.1448 -0.7513  0.1340
 1387TIP3    H125576   4.197   4.797  10.439 -0.5902 -0.2809 -0.0688
 1387TIP3    H225577   4.213   4.947  10.448  1.1201 -0.4931  0.6010
 1388TIP3   OH225578   1.724   0.369  12.689  0.2240 -0.3642 -0.8200
 1388TIP3    H125579   1.741   0.408  12.604 -1.5804  0.6545 -0.7420
 1388TIP3    H225580   1.756   0.434  12.752  0.0559 -0.3884 -0.7102
 1389TIP3   OH225581   1.487   5.664  15.160 -0.2443  0.3711  0.3373
 1389TIP3    H125582   1.563   5.706  15.200 -0.6178  1.9973 -0.6051
 1389TIP3    H225583   1.430   5.641  15.234  1.0730 -0.7218  1.0320
 1390TIP3   OH225584   6.598   5.371  10.884  0.6668 -0.5994 -0.6058
 1390TIP3    H125585   6.570   5.456  10.850  0.5031 -1.0935 -1.7201
 1390TIP3    H225586   6.693   5.376  10.885  0.6749  1.5404  4.3361
 1391TIP3   OH225587   7.049   3.644   9.969  0.2984  0.3626  0.3299
 1391TIP3    H125588   7.062   3.594  10.050 -0.2367 -0.7703 -0.2613
 1391TIP3    H225589   7.028   3.577   9.903 -1.3492  1.4620 -0.2953
 1392TIP3   OH225590   1.107   1.859  10.356 -0.4151 -0.1765  0.6086
 1392TIP3    H125591   1.022   1.816  10.369  0.2547 -1.1972  1.6646
 1392TIP3    H225592   1.141   1.819  10.276 -0.1921 -0.9875  1.1009
 1393TIP3   OH225593   3.628   5.616  13.456  0.1623 -0.8530 -0.2582
 1393TIP3    H125594   3.540   5.577  13.454 -1.2728  2.1813  0.7338
 1393TIP3    H225595   3.640   5.650  13.367  1.1676 -2.9378 -0.9507
 1394TIP3   OH225596   3.764   4.403  11.229  0.2684  0.5564  0.4439
 1394TIP3    H125597   3.793   4.383  11.318  1.1396  0.7596  0.2019
 1394TIP3    H225598   3.801   4.489  11.210  0.3597  0.3693 -0.2376
 1395TIP3   OH225599   0.140   1.939  13.033  0.0642 -0.2673 -0.5931
 1395TIP3    H125600   0.182   1.914  12.951 -1.0443  1.1437 -1.6296
 1395TIP3    H225601   0.053   1.901  13.028  0.5262 -1.5206  0.6611
 1396TIP3   OH225602   3.542   1.523   9.788  0.1540 -0.3775 -0.8804
 1396TIP3    H125603   3.469   1.544   9.847  0.2149 -0.6872 -0.6919
 1396TIP3    H225604   3.530   1.431   9.767  1.1685 -0.7489  0.1170
 1397TIP3   OH225605   1.686   2.122  10.415  0.3145  0.2263 -0.2611
 1397TIP3    H125606   1.703   2.031  10.388  0.2692  0.1614 -0.0740
 1397TIP3    H225607   1.733   2.175  10.351 -0.5174  0.0940 -0.9848
 1398TIP3   OH225608   0.015   0.114   0.299 -0.1702 -0.1500 -0.6697
 1398TIP3    H125609  -0.034   0.122   0.217 -1.0561  0.7887 -0.0510
 1398TIP3    H225610   0.091   0.171   0.288 -0.6482  0.4993 -0.5631
 1399TIP3   OH225611   3.098   6.891   9.993 -0.1186 -0.6491  0.4358
 1399TIP3    H125612   3.146   6.814   9.965  0.5330  0.0684 -0.4518
 1399TIP3    H225613   3.165   6.957  10.010 -0.7028 -0.0202  0.3684
 1400TIP3   OH225614   4.146   0.413  10.797  0.0525  0.2302  0.1392
 1400TIP3    H125615   4.164   0.321  10.778  0.8718  0.0569  1.6769
 1400TIP3    H225616   4.230   0.457  10.785 -0.8013  1.2058 -2.8077
 1401TIP3   OH225617   5.272   5.649  10.162 -0.3067 -0.4237  1.4967
 1401TIP3    H125618   5.177   5.649  10.175 -0.5053 -0.0454  0.1694
 1401TIP3    H225619   5.298   5.557  10.174 -0.9880 -0.6951  0.9414
 1402TIP3   OH225620   3.371   6.723  11.367 -0.2384  0.2590  0.2796
 1402TIP3    H125621   3.371   6.629  11.385 -0.3617  0.1602 -0.2201
 1402TIP3    H225622   3.435   6.734  11.296  1.4637  0.8620  1.8665
 1403TIP3   OH225623   3.013   4.793  10.761  0.1597 -0.2109 -0.4488
 1403TIP3    H125624   2.986   4.786  10.852  1.3687 -0.0608 -0.0775
 1403TIP3    H225625   3.101   4.830  10.764 -0.0465  0.4113 -1.7036
 1404TIP3   OH225626   2.045   3.134   9.646  0.1405  0.6831  0.6195
 1404TIP3    H125627   2.043   3.065   9.579  1.0303  0.6454  0.6252
 1404TIP3    H225628   2.027   3.089   9.728 -0.9696  0.7312  0.4108
 1405TIP3   OH225629   5.305   3.150  13.767 -0.0104 -0.0163 -0.5459
 1405TIP3    H125630   5.319   3.235  13.811 -1.5489  0.1607 -0.3768
 1405TIP3    H225631   5.354   3.088  13.821 -1.1007  0.3448  0.9044
 1406TIP3   OH225632   3.307   2.769   0.524  0.0932  0.0249  0.1723
 1406TIP3    H125633   3.320   2.863   0.540 -1.7295  0.1406  1.1293
 1406TIP3    H225634   3.231   2.746   0.579  1.3178 -2.2881  0.9430
 1407TIP3   OH225635   2.975   6.590  10.838  0.2967  0.4923 -0.2816
 1407TIP3    H125636   3.018   6.602  10.923 -0.3122 -0.8866  0.2347
 1407TIP3    H225637   2.934   6.674  10.819 -0.8145  0.3803  1.5179
 1408TIP3   OH225638   2.354   0.302  10.727  0.5983  0.5689 -0.0477
 1408TIP3    H125639   2.328   0.392  10.745 -1.5940  0.0826 -0.6123
 1408TIP3    H225640   2.294   0.249  10.779 -0.7762 -0.6437 -2.7667
 1409TIP3   OH225641   4.182   2.621  14.027 -0.4479  0.0493  0.0329
 1409TIP3    H125642   4.273   2.649  14.018  0.3617 -2.2906  0.5827
 1409TIP3    H225643   4.183   2.563  14.104 -2.2597 -0.5829 -0.4067
 1410TIP3   OH225644   3.447   3.125   0.231  0.4396  0.2483  0.2906
 1410TIP3    H125645   3.400   3.139   0.314  0.4528 -0.2440  0.3871
 1410TIP3    H225646   3.535   3.100   0.258  0.2194 -0.7034  0.1438
 1411TIP3   OH225647   3.184   1.872  12.172  0.7398  0.4713 -0.3590
 1411TIP3    H125648   3.133   1.902  12.097  0.5978  0.0368 -0.4395
 1411TIP3    H225649   3.273   1.905  12.156  0.1737  2.5205  0.5284
 1412TIP3   OH225650   0.844   3.022  10.649 -0.1507  0.5351 -0.2438
 1412TIP3    H125651   0.812   2.967  10.578 -1.4695  0.2612  0.5343
 1412TIP3    H225652   0.803   3.107  10.634  0.2836  0.7343 -0.3104
 1413TIP3   OH225653   5.770   2.142  10.332 -0.5367 -0.7041  0.5653
 1413TIP3    H125654   5.738   2.052  10.341 -1.8253 -0.3235 -0.1051
 1413TIP3    H225655   5.705   2.196  10.377  1.9341 -0.3733  3.8842
 1414TIP3   OH225656   3.206   2.624   9.561 -0.2753  0.2488 -0.0020
 1414TIP3    H125657   3.119   2.630   9.601 -1.7205  1.2705 -3.1381
 1414TIP3    H225658   3.203   2.544   9.509  0.2566  0.8858 -1.0255
 1415TIP3   OH225659   2.588   3.399  11.701  0.2570  0.0762 -0.1120
 1415TIP3    H125660   2.532   3.430  11.630 -0.4501 -0.5963  0.1394
 1415TIP3    H225661   2.623   3.479  11.740 -0.8404  0.5315 -0.0296
 1416TIP3   OH225662   1.603   0.594  11.762 -0.0367 -0.2598  0.0046
 1416TIP3    H125663   1.640   0.523  11.709  0.9786 -1.4393  2.2132
 1416TIP3    H225664   1.676   0.624  11.816 -1.3775 -0.1059  1.7802
 1417TIP3   OH225665   4.327   2.422  12.892 -0.0475 -0.0414 -0.5677
 1417TIP3    H125666   4.382   2.415  12.814  0.2610  0.4719 -0.3964
 1417TIP3    H225667   4.389   2.433  12.964 -0.3823  0.9150 -0.4147
 1418TIP3   OH225668   1.592   3.924   9.374  0.7615 -0.3918 -0.1885
 1418TIP3    H125669   1.668   3.978   9.352 -1.3885  3.1234  0.4410
 1418TIP3    H225670   1.616   3.880   9.455  3.1042 -1.5163 -1.4495
 1419TIP3   OH225671   3.663   5.510  10.601  0.7048  0.3419 -0.2146
 1419TIP3    H125672   3.657   5.421  10.636 -1.3670  0.4057 -0.3241
 1419TIP3    H225673   3.677   5.498  10.507  0.4924  0.1203 -0.2200
 1420TIP3   OH225674   1.310   3.099   9.564 -0.9484  0.3259 -0.4812
 1420TIP3    H125675   1.327   3.027   9.503 -0.7280  1.7611 -2.1330
 1420TIP3    H225676   1.382   3.160   9.551 -1.4068  1.1115  0.5513
 1421TIP3   OH225677   0.421   2.242  11.706 -0.0025 -0.0648  0.0409
 1421TIP3    H125678   0.479   2.166  11.708  0.4110  0.1943 -1.1863
 1421TIP3    H225679   0.420   2.274  11.796  0.4945 -1.0222  0.3996
 1422TIP3   OH225680   3.544   6.825  11.119  0.5025 -0.4532 -0.5055
 1422TIP3    H125681   3.476   6.891  11.129  0.0834 -1.1475  1.4807
 1422TIP3    H225682   3.626   6.872  11.136  0.0524 -0.8501  3.1227
 1423TIP3   OH225683   6.449   6.588  11.936  0.2550 -0.4577  0.4325
 1423TIP3    H125684   6.514   6.567  12.003 -1.3552 -0.9595  1.8682
 1423TIP3    H225685   6.434   6.682  11.947  3.4765  0.4745 -2.4119
 1424TIP3   OH225686   3.959   6.118  13.202  0.0754  0.3075 -0.8687
 1424TIP3    H125687   3.937   6.066  13.279  1.1004  1.4914  0.2496
 1424TIP3    H225688   4.054   6.130  13.207  0.2879 -0.3591 -2.8030
 1425TIP3   OH225689   1.511   4.566  12.621  0.5507  0.0774  0.3337
 1425TIP3    H125690   1.481   4.645  12.665  0.6776  0.2309  0.1395
 1425TIP3    H225691   1.430   4.523  12.592  0.5649  0.9654 -1.0142
 1426TIP3   OH225692   5.462   2.047  11.302  0.1098 -0.1611 -0.1469
 1426TIP3    H125693   5.408   1.968  11.302 -0.9837  0.5787 -0.0363
 1426TIP3    H225694   5.449   2.084  11.389 -1.0418  1.2565 -0.9070
 1427TIP3   OH225695   3.180   4.520  12.054  0.4214  0.7546 -0.1459
 1427TIP3    H125696   3.172   4.609  12.090 -0.7594  1.2594 -1.6200
 1427TIP3    H225697   3.252   4.525  11.992  1.0016  0.4231  0.4891
 1428TIP3   OH225698   5.919   1.549  12.374 -0.2217  0.6056  0.3942
 1428TIP3    H125699   5.996   1.494  12.364 -0.0823  0.5038  1.9382
 1428TIP3    H225700   5.937   1.625  12.318  0.6911  0.2690  0.2183
 1429TIP3   OH225701   2.012   6.976  14.041  0.0154 -0.2401 -0.0481
 1429TIP3    H125702   2.083   6.914  14.023 -1.1373 -0.8968 -2.4452
 1429TIP3    H225703   1.942   6.923  14.079 -0.7742 -0.3497 -1.6157
 1430TIP3   OH225704   2.049   5.514  11.237  0.2429  0.3389  0.3864
 1430TIP3    H125705   2.065   5.607  11.255  0.3893  0.3312  0.2986
 1430TIP3    H225706   1.955   5.508  11.221  0.1346  0.3767  0.9726
 1431TIP3   OH225707   4.867   3.134  10.374  0.6593 -0.3251 -0.0752
 1431TIP3    H125708   4.861   3.228  10.358  0.4727 -0.1933  0.7452
 1431TIP3    H225709   4.903   3.126  10.462  2.3577 -1.0480 -0.8094
 1432TIP3   OH225710   4.572   0.031   9.603  0.7788  0.3693  0.2835
 1432TIP3    H125711   4.660   0.018   9.567 -0.7651 -0.9255 -3.2885
 1432TIP3    H225712   4.560  -0.041   9.664  2.5720  1.1994  1.6819
 1433TIP3   OH225713   2.110   2.389  10.924  0.1679  0.2583  0.1887
 1433TIP3    H125714   2.079   2.428  11.006 -1.4236  0.3932 -0.4569
 1433TIP3    H225715   2.174   2.452  10.890 -1.3141  1.6496 -0.1187
 1434TIP3   OH225716   3.495   2.800  10.897 -0.0356  0.0116  0.1634
 1434TIP3    H125717   3.497   2.893  10.876  1.1870  0.1856  1.0301
 1434TIP3    H225718   3.417   2.790  10.952  0.7436  0.8223  1.4283
 1435TIP3   OH225719   2.608   5.405  12.536 -0.3863 -0.1280  0.2954
 1435TIP3    H125720   2.540   5.357  12.489  1.0067 -1.9930  0.1299
 1435TIP3    H225721   2.618   5.358  12.619  1.0418 -0.1530  0.1173
 1436TIP3   OH225722   4.732   4.090  10.013 -0.5009 -0.6455 -0.4600
 1436TIP3    H125723   4.663   4.149   9.983  0.1821 -0.3582 -1.4664
 1436TIP3    H225724   4.718   4.009   9.965  0.1969 -0.4007 -1.0870
 1437TIP3   OH225725   5.607   3.628  11.193  0.3396  0.5003  0.6649
 1437TIP3    H125726   5.533   3.688  11.207 -0.0834  0.2730 -0.4939
 1437TIP3    H225727   5.582   3.548  11.240 -0.3801  0.2525 -0.1330
 1438TIP3   OH225728   3.601   3.036   9.927 -0.3935 -0.2084  0.0334
 1438TIP3    H125729   3.530   3.100   9.921  0.0442  0.2304 -0.4935
 1438TIP3    H225730   3.624   3.017   9.836 -0.2330 -0.8014  0.1919
 1439TIP3   OH225731   3.876   2.142  11.834 -0.0196  0.4324 -0.6412
 1439TIP3    H125732   3.872   2.175  11.744  0.2399 -0.9820 -1.1900
 1439TIP3    H225733   3.854   2.049  11.826  1.5595 -0.0591  0.5469
 1440TIP3   OH225734   1.101   1.664  11.692 -0.1462  0.2141  0.0393
 1440TIP3    H125735   1.197   1.667  11.695 -0.0807 -1.5618  0.2485
 1440TIP3    H225736   1.076   1.745  11.648  1.4796  0.4389 -0.5070
 1441TIP3   OH225737   4.757   2.551  12.646 -0.4284  0.0694 -0.3097
 1441TIP3    H125738   4.749   2.488  12.574  0.2232  0.8563 -1.0718
 1441TIP3    H225739   4.720   2.505  12.722  0.7339 -1.5359 -0.6886
 1442TIP3   OH225740   4.107   5.271  11.055 -0.1936  0.1342  0.3547
 1442TIP3    H125741   4.161   5.350  11.060  0.4049 -0.2901  0.7158
 1442TIP3    H225742   4.107   5.237  11.144 -0.8081 -0.0422  0.2864
 1443TIP3   OH225743   0.221   0.926  10.007  0.4134  0.0598 -0.2878
 1443TIP3    H125744   0.267   0.950  10.088  1.2773 -1.0619 -0.4290
 1443TIP3    H225745   0.273   0.853   9.971  0.4342  0.9865 -2.2051
 1444TIP3   OH225746   6.193   5.190  10.139 -0.5373  0.3133 -0.5879
 1444TIP3    H125747   6.255   5.151  10.077  0.0488 -0.5629  0.5286
 1444TIP3    H225748   6.248   5.220  10.212 -1.2894  0.7329 -0.1811
 1445TIP3   OH225749   3.421   6.582  10.722 -0.1632  0.0348 -0.1187
 1445TIP3    H125750   3.470   6.660  10.696 -3.1105  1.4586 -1.6571
 1445TIP3    H225751   3.446   6.568  10.814  3.4858  0.3157 -0.9838
 1446TIP3   OH225752   3.882   3.170  15.518 -0.2402  0.0333 -0.2850
 1446TIP3    H125753   3.896   3.233  15.588  0.0573  0.5676 -0.8216
 1446TIP3    H225754   3.798   3.195  15.479 -0.8256 -0.7866  0.4227
 1447TIP3   OH225755   2.113   4.319  11.086  0.1615 -0.4697 -0.1238
 1447TIP3    H125756   2.175   4.391  11.095 -0.9454  0.7287 -1.7050
 1447TIP3    H225757   2.038   4.345  11.140  0.1597 -0.9167  0.0955
 1448TIP3   OH225758   3.422   5.452  10.966 -0.5780 -0.7713 -0.0437
 1448TIP3    H125759   3.381   5.482  10.885  0.2155  2.6109  0.7202
 1448TIP3    H225760   3.515   5.444  10.944 -0.0351  2.1512  0.9942
 1449TIP3   OH225761   2.265   1.885   9.740 -0.2323 -0.3119  0.4259
 1449TIP3    H125762   2.319   1.833   9.679  3.1970  3.1329  0.3513
 1449TIP3    H225763   2.325   1.950   9.775 -3.6780  1.7056  2.8411
 1450TIP3   OH225764   1.207   3.321  14.987  0.1663 -0.6134  0.2898
 1450TIP3    H125765   1.185   3.399  14.935  2.1916 -1.0752 -1.3094
 1450TIP3    H225766   1.242   3.355  15.069  0.4588  0.1619 -0.1532
 1451TIP3   OH225767   2.156   6.611  10.814  0.2667  0.5080 -0.0259
 1451TIP3    H125768   2.248   6.627  10.836  0.1486 -1.5887  2.2957
 1451TIP3    H225769   2.158   6.577  10.725  1.6713  1.0782 -0.2305
 1452TIP3   OH225770   2.802   0.393  11.230  0.0654  0.3815 -0.0649
 1452TIP3    H125771   2.877   0.365  11.283 -1.5643 -1.0716  1.4905
 1452TIP3    H225772   2.800   0.488  11.241  1.3465  0.3767  0.3055
 1453TIP3   OH225773   2.694   4.645   9.741  0.3848 -0.3762 -0.2989
 1453TIP3    H125774   2.784   4.678   9.738 -0.3515  1.5626 -2.6942
 1453TIP3    H225775   2.694   4.572   9.680  0.2869 -0.2972 -0.3920
 1454TIP3   OH225776   5.667   0.754  11.566 -0.4732 -0.4104  0.1409
 1454TIP3    H125777   5.693   0.844  11.544 -0.2746 -0.1621  1.3210
 1454TIP3    H225778   5.738   0.721  11.620 -0.8805 -1.0319  0.3056
 1455TIP3   OH225779   5.511   3.224  10.669 -0.1067 -0.0153  0.2657
 1455TIP3    H125780   5.515   3.311  10.631  0.8376 -0.9143 -1.7558
 1455TIP3    H225781   5.466   3.170  10.604  0.2164 -1.2644  1.0447
 1456TIP3   OH225782   3.388   4.892   0.822 -0.3785 -0.1739  0.0881
 1456TIP3    H125783   3.358   4.965   0.875 -2.9948 -1.6375  0.6962
 1456TIP3    H225784   3.430   4.933   0.746  0.6964  1.9229  1.7824
 1457TIP3   OH225785   3.064   4.190  13.436  0.3944  0.6229 -0.4956
 1457TIP3    H125786   3.140   4.245  13.456  0.2965  0.5574  0.0706
 1457TIP3    H225787   3.097   4.100  13.440  0.4519  0.6188 -0.9832
 1458TIP3   OH225788   2.590   4.688  11.363  0.1986  0.8118  0.1879
 1458TIP3    H125789   2.586   4.744  11.285 -0.8752 -0.8287 -0.9520
 1458TIP3    H225790   2.646   4.615  11.338 -2.5931 -1.2968 -0.0992
 1459TIP3   OH225791   3.038   1.196  12.425  0.7462  0.1171  0.4464
 1459TIP3    H125792   3.059   1.260  12.357  0.7963 -2.0519 -1.6586
 1459TIP3    H225793   3.093   1.220  12.499  2.5222  1.0722 -1.1414
 1460TIP3   OH225794   6.037   0.645  11.094 -0.1370 -0.6850 -0.0404
 1460TIP3    H125795   6.018   0.553  11.079  0.7808 -0.8339 -0.3556
 1460TIP3    H225796   6.051   0.681  11.006  1.4930 -0.7058  0.1869
 1461TIP3   OH225797   2.851   1.188  11.698  0.0273  0.6000  0.0344
 1461TIP3    H125798   2.802   1.248  11.642 -0.5319 -0.1912 -0.3433
 1461TIP3    H225799   2.916   1.243  11.742 -0.5102  1.4806 -0.2634
 1462TIP3   OH225800   1.624   2.555  10.126 -0.9157 -0.6534 -0.0832
 1462TIP3    H125801   1.609   2.562  10.032 -3.3761 -0.7902  0.2766
 1462TIP3    H225802   1.552   2.604  10.166  0.9004  0.6778  1.7210
 1463TIP3   OH225803   0.155   5.036  11.990  0.4987  0.1940  0.2427
 1463TIP3    H125804   0.160   4.952  12.035 -0.1029 -0.9945 -1.8343
 1463TIP3    H225805   0.061   5.047  11.971  0.6267  1.1209  0.1535
 1464TIP3   OH225806   4.193   0.819  12.900 -0.4324 -0.2540 -0.0647
 1464TIP3    H125807   4.186   0.772  12.983  2.4863 -0.2132  0.2659
 1464TIP3    H225808   4.130   0.777  12.843 -2.5882 -0.1939  2.2063
 1465TIP3   OH225809   1.144   0.491  10.350  0.1836 -0.4895 -0.2195
 1465TIP3    H125810   1.120   0.478  10.258 -0.4877 -1.0390  0.0298
 1465TIP3    H225811   1.210   0.424  10.366  1.0284  0.2418 -0.5661
 1466TIP3   OH225812   1.782   0.094  10.035 -0.3384 -0.2787  0.6510
 1466TIP3    H125813   1.795   0.172  10.089 -0.0943  0.9131 -1.0791
 1466TIP3    H225814   1.778   0.127   9.945  1.4270 -2.4145 -0.2807
 1467TIP3   OH225815   3.192   0.781  14.159  0.3076 -0.1171 -0.4252
 1467TIP3    H125816   3.231   0.747  14.240  1.4045 -2.0449 -1.7291
 1467TIP3    H225817   3.266   0.788  14.098 -0.6447  0.5314 -1.5231
 1468TIP3   OH225818   4.623   5.497  10.983  0.1988  0.6333  0.2022
 1468TIP3    H125819   4.575   5.439  10.923  0.5581  0.1707  0.3594
 1468TIP3    H225820   4.566   5.572  10.994 -0.3143  0.2666  0.0656
 1469TIP3   OH225821   5.002   7.129  10.797 -0.0151 -0.2260 -0.1046
 1469TIP3    H125822   5.032   7.179  10.721 -2.7997 -1.3721 -2.0230
 1469TIP3    H225823   5.015   7.038  10.772  0.2125 -0.5843  1.3147
 1470TIP3   OH225824   2.947   3.848  10.855 -0.1712  0.0177  0.2007
 1470TIP3    H125825   2.975   3.939  10.852  0.1593 -0.0611  0.7658
 1470TIP3    H225826   2.871   3.844  10.796  0.0873  0.5571 -0.1710
 1471TIP3   OH225827   2.371   2.290  10.198  0.1547 -0.7212  0.4404
 1471TIP3    H125828   2.323   2.270  10.118 -0.6746  1.4001  0.3789
 1471TIP3    H225829   2.426   2.213  10.213 -2.6992 -2.9291  0.1021
 1472TIP3   OH225830   2.514   2.051  10.050 -1.2362 -0.2019 -0.4320
 1472TIP3    H125831   2.502   2.100   9.969 -0.2776 -0.9208 -1.0277
 1472TIP3    H225832   2.597   2.004  10.037 -2.1521 -1.9917  0.1101
 1473TIP3   OH225833   0.612   5.962  11.297  0.5402  0.6879  0.1789
 1473TIP3    H125834   0.702   5.994  11.304  0.8267 -0.1006  0.1823
 1473TIP3    H225835   0.593   5.926  11.384  0.2818  0.7082  0.1306
 1474TIP3   OH225836   5.376   0.737  11.703 -0.1598  0.1302 -0.2343
 1474TIP3    H125837   5.451   0.744  11.644 -1.6505  0.7962 -2.1130
 1474TIP3    H225838   5.367   0.643  11.719 -0.2128 -0.1299 -1.7220
 1475TIP3   OH225839   5.037   3.671  14.962 -0.5017  0.4444  0.3134
 1475TIP3    H125840   5.113   3.613  14.970 -1.0538 -0.0849  1.8173
 1475TIP3    H225841   4.975   3.639  15.027 -1.1113  2.2892  0.6679
 1476TIP3   OH225842   3.682   6.236  11.759  0.3082 -0.3202 -0.0405
 1476TIP3    H125843   3.681   6.140  11.758  3.1738 -0.3852  0.5356
 1476TIP3    H225844   3.714   6.258  11.847 -0.5893  1.1954 -0.0767
 1477TIP3   OH225845   2.100   6.131  12.735  0.2895 -0.5077  0.1832
 1477TIP3    H125846   2.066   6.219  12.721 -2.5521 -1.5435  0.2901
 1477TIP3    H225847   2.145   6.110  12.653  1.9877  1.4364  0.5720
 1478TIP3   OH225848   6.519   6.294  12.386  0.6149 -0.2694  0.4236
 1478TIP3    H125849   6.493   6.359  12.451  2.8124  1.0100  0.0662
 1478TIP3    H225850   6.520   6.211  12.434 -3.3271 -0.3196  0.6099
 1479TIP3   OH225851   6.305   6.193  10.726 -0.1159 -0.1069  0.5691
 1479TIP3    H125852   6.256   6.247  10.664 -0.5026 -0.1727  0.8124
 1479TIP3    H225853   6.280   6.103  10.703  0.3802 -0.1721  0.2850
 1480TIP3   OH225854   2.566   2.773  11.614 -0.0157 -0.2127  0.4911
 1480TIP3    H125855   2.654   2.740  11.594 -0.3100 -0.2235 -0.8052
 1480TIP3    H225856   2.537   2.721  11.688  0.4753 -1.2460 -0.0321
 1481TIP3   OH225857   3.563   6.630  12.418  0.4364  0.4378  0.0558
 1481TIP3    H125858   3.500   6.674  12.361  1.4745  2.2516  0.2916
 1481TIP3    H225859   3.616   6.576  12.359 -1.0396 -0.7711 -0.1963
 1482TIP3   OH225860   3.922   6.631  13.059 -0.5451  0.0415  0.1670
 1482TIP3    H125861   3.847   6.579  13.087  1.1810 -1.4660  2.1302
 1482TIP3    H225862   3.895   6.722  13.075 -1.6896 -0.5210  1.5811
 1483TIP3   OH225863   1.365   2.421  11.097 -0.4358  0.3303  0.0678
 1483TIP3    H125864   1.287   2.407  11.043 -0.9371 -1.6844  1.2269
 1483TIP3    H225865   1.332   2.420  11.187  0.9208 -0.6358  0.5738
 1484TIP3   OH225866   6.451   2.869  10.023 -0.2238  0.1409  0.0509
 1484TIP3    H125867   6.360   2.899  10.012 -0.2024  0.2097  0.0612
 1484TIP3    H225868   6.466   2.812   9.948  0.2722  1.4413 -0.8606
 1485TIP3   OH225869   5.552   0.117  10.795  0.3059 -0.2212  0.0905
 1485TIP3    H125870   5.538   0.047  10.858 -1.1487  1.1195  1.3116
 1485TIP3    H225871   5.507   0.088  10.716 -2.3566  0.3603  1.3512
 1486TIP3   OH225872   3.902   2.174  11.563 -0.0434 -0.0891 -0.1257
 1486TIP3    H125873   3.831   2.157  11.502  0.0530  1.5706 -0.7239
 1486TIP3    H225874   3.978   2.128  11.525 -0.8016 -2.0362  0.6274
 1487TIP3   OH225875   3.210   0.563  11.002  0.1827 -0.0199 -0.5682
 1487TIP3    H125876   3.122   0.578  11.037  0.2139  2.5806 -1.5374
 1487TIP3    H225877   3.223   0.468  11.011 -2.2433 -0.2766  0.6611
 1488TIP3   OH225878   6.850   3.924   9.774  0.5398  0.0791  0.1812
 1488TIP3    H125879   6.820   3.833   9.768  1.3566 -0.1972  0.1754
 1488TIP3    H225880   6.905   3.937   9.696 -2.2581  1.6311 -1.6263
 1489TIP3   OH225881   3.741   2.804  10.637 -0.1706  0.2003 -0.0382
 1489TIP3    H125882   3.671   2.808  10.702  0.5768  1.4685  0.7187
 1489TIP3    H225883   3.758   2.710  10.625 -1.4324 -0.0855  0.3686
 1490TIP3   OH225884   0.273   1.056  10.996  0.3932 -0.2814 -0.1595
 1490TIP3    H125885   0.256   1.077  11.087 -0.6993 -2.7274  0.2333
 1490TIP3    H225886   0.346   1.113  10.971  0.3598  0.7725  2.0557
 1491TIP3   OH225887   0.590   0.023  11.513  0.2837 -0.6344  0.3451
 1491TIP3    H125888   0.567  -0.034  11.586  1.9224 -1.2068  0.4148
 1491TIP3    H225889   0.580   0.112  11.547  0.3254 -0.8977  1.0346
 1492TIP3   OH225890   4.156   5.136  11.303  0.6397  0.0396  0.5614
 1492TIP3    H125891   4.207   5.078  11.246  1.2048  1.0322  0.0392
 1492TIP3    H225892   4.106   5.077  11.359 -0.9082 -0.9721 -1.8026
 1493TIP3   OH225893   5.551   2.143  10.711 -0.3262  0.0676  0.3811
 1493TIP3    H125894   5.460   2.154  10.739  0.5839  1.6023  2.7906
 1493TIP3    H225895   5.563   2.209  10.642 -1.1051 -0.3606 -0.1804
 1494TIP3   OH225896   4.575   1.090  10.025 -0.0718  0.0038 -0.3086
 1494TIP3    H125897   4.559   1.033   9.949  0.4714 -0.5095 -0.0426
 1494TIP3    H225898   4.600   1.030  10.095 -1.4735  0.4031  0.5420
 1495TIP3   OH225899   3.309   1.801   0.135 -0.1667  0.5521  0.1428
 1495TIP3    H125900   3.304   1.712   0.169 -1.8567  0.3137 -0.7133
 1495TIP3    H225901   3.306   1.791   0.040  0.6810  1.4578  0.0178
 1496TIP3   OH225902   6.635   6.990  12.433 -0.0295  0.2406 -0.2444
 1496TIP3    H125903   6.607   7.070  12.389 -0.0475 -0.6312 -1.8656
 1496TIP3    H225904   6.554   6.955  12.472  0.2126  1.6783  1.6161
 1497TIP3   OH225905   2.888   2.522  10.442  0.1390 -0.2857  0.2838
 1497TIP3    H125906   2.855   2.610  10.463 -0.1202  0.0484 -1.4766
 1497TIP3    H225907   2.983   2.531  10.449  0.2141  0.6209 -1.6597
 1498TIP3   OH225908   4.597   3.917  10.355  0.2909  0.3875 -0.3088
 1498TIP3    H125909   4.538   3.971  10.303  2.1046  2.8148  0.0625
 1498TIP3    H225910   4.659   3.881  10.292  1.9571  2.6164  0.0361
 1499TIP3   OH225911   3.199   2.360   9.423 -0.0608  0.4167 -0.1173
 1499TIP3    H125912   3.243   2.276   9.427  0.8612  0.8868 -0.2536
 1499TIP3    H225913   3.131   2.348   9.357 -1.2155 -0.7996  1.2677
 1500TIP3   OH225914   4.941   0.205  12.603 -0.2164  0.2790  0.0688
 1500TIP3    H125915   4.945   0.301  12.598 -0.9013  0.2805 -0.4939
 1500TIP3    H225916   5.022   0.176  12.562 -0.3688  0.6029 -0.4734
 1501TIP3   OH225917   1.757   7.022  11.510 -0.0086  0.2629  0.2471
 1501TIP3    H125918   1.686   7.020  11.445  1.6984 -0.4243 -1.6379
 1501TIP3    H225919   1.792   7.111  11.505 -0.6691  0.5767  1.1182
 1502TIP3   OH225920   2.454   6.091  12.862 -0.6296 -0.3306 -0.6139
 1502TIP3    H125921   2.366   6.119  12.886 -0.4730  0.4141 -0.8982
 1502TIP3    H225922   2.441   6.034  12.786 -1.0140 -1.6885  0.4490
 1503TIP3   OH225923   3.684   6.227  10.099  0.4203  0.0947 -0.0476
 1503TIP3    H125924   3.732   6.178  10.166  0.9389  2.1467  1.1475
 1503TIP3    H225925   3.750   6.284  10.059  0.0372 -0.8604 -2.0885
 1504TIP3   OH225926   6.656   7.145  10.434  0.2159 -0.0086 -0.2334
 1504TIP3    H125927   6.696   7.120  10.351 -1.0299  1.5211 -1.3333
 1504TIP3    H225928   6.636   7.238  10.424 -3.8626 -0.7405  0.1002
 1505TIP3   OH225929   2.365   5.283  13.216  0.6869  0.5618 -0.1579
 1505TIP3    H125930   2.345   5.209  13.159 -0.5254  0.5286  0.3136
 1505TIP3    H225931   2.366   5.358  13.156  1.8954  0.1904 -0.6300
 1506TIP3   OH225932   4.612   0.915   9.832  0.3513  0.6652  0.1110
 1506TIP3    H125933   4.523   0.889   9.809  0.6618  0.9143 -1.4575
 1506TIP3    H225934   4.667   0.871   9.767  1.3536  0.7503  0.8886
 1507TIP3   OH225935   4.302   4.474  11.491  0.4257 -0.0065 -0.6635
 1507TIP3    H125936   4.302   4.380  11.508 -1.1400 -0.2248 -1.7621
 1507TIP3    H225937   4.393   4.501  11.505  0.6764 -1.4856  0.6639
 1508TIP3   OH225938   4.132   3.194  10.374  0.1506 -0.1671  0.4091
 1508TIP3    H125939   4.224   3.219  10.374 -0.2616  1.4154 -0.7048
 1508TIP3    H225940   4.112   3.175  10.283 -0.3834 -1.5144  0.7881
 1509TIP3   OH225941   3.311   2.800  10.212 -0.2682  0.6629  0.4238
 1509TIP3    H125942   3.247   2.825  10.278 -1.0956 -0.2971  0.0076
 1509TIP3    H225943   3.392   2.844  10.238 -0.2616 -0.6480  2.7439
 1510TIP3   OH225944   1.908   6.665  12.596  0.1128 -0.2984 -0.1511
 1510TIP3    H125945   1.991   6.712  12.602 -0.3883  0.8947 -1.8876
 1510TIP3    H225946   1.882   6.674  12.504 -1.4274 -1.5301  0.1329
 1511TIP3   OH225947   0.119   2.635   9.789 -0.5983  0.6177 -0.0698
 1511TIP3    H125948   0.190   2.571   9.780 -1.9846 -0.8353 -0.9295
 1511TIP3    H225949   0.160   2.719   9.764  1.4265  0.2335  1.7953
 1512TIP3   OH225950   3.607   1.786   9.600  0.2475  0.6851  0.0948
 1512TIP3    H125951   3.682   1.747   9.644 -0.5444 -1.2869 -0.2227
 1512TIP3    H225952   3.644   1.852   9.543  1.5509  1.1584  1.4647
 1513TIP3   OH225953   3.544   2.729   9.526 -0.3046  0.9549  0.2345
 1513TIP3    H125954   3.477   2.748   9.461  2.1397  2.1241 -2.0441
 1513TIP3    H225955   3.625   2.718   9.476  1.6459  1.7274  3.0269
 1514TIP3   OH225956   4.332   3.867  12.694 -0.2326  0.4810  0.1844
 1514TIP3    H125957   4.362   3.860  12.784 -0.9284  0.5729  0.4249
 1514TIP3    H225958   4.272   3.793  12.683 -3.8692  3.1480  1.2666
 1515TIP3   OH225959   3.748   3.922   9.924  0.2931  0.1391  0.1165
 1515TIP3    H125960   3.754   3.849   9.986  0.8449  0.8939  0.9848
 1515TIP3    H225961   3.816   3.904   9.859 -1.1414 -1.3161 -1.0150
 1516TIP3   OH225962   0.952   0.037  12.097  0.3877  0.0987  0.1823
 1516TIP3    H125963   0.878   0.075  12.050  0.4958  1.9270  1.4085
 1516TIP3    H225964   1.030   0.069  12.051  0.4502 -0.9969 -0.4958
 1517TIP3   OH225965   6.103   3.103  10.491  0.2463  0.5314  0.0240
 1517TIP3    H125966   6.072   3.161  10.422  1.5912  0.0872 -0.9807
 1517TIP3    H225967   6.150   3.034  10.444  1.6082  0.5046  1.4176
 1518TIP3   OH225968   4.531   6.697  10.061  0.2183 -0.6001 -0.0687
 1518TIP3    H125969   4.538   6.793  10.068 -0.0026 -0.3878 -2.2781
 1518TIP3    H225970   4.600   6.673   9.999  0.3556 -1.9083  0.5717
 1519TIP3   OH225971   5.683   3.730  13.883 -0.2048 -0.3126 -0.0094
 1519TIP3    H125972   5.691   3.810  13.934 -0.9286  0.7144 -1.4528
 1519TIP3    H225973   5.676   3.761  13.792 -1.5030 -1.9588 -0.4819
 1520TIP3   OH225974   2.918   2.829  12.355 -0.0501 -0.1887  0.0995
 1520TIP3    H125975   2.915   2.735  12.372  1.8462 -0.0912  1.0130
 1520TIP3    H225976   2.944   2.868  12.438  1.2866  0.9638 -0.8403
 1521TIP3   OH225977   4.734   3.793  10.131  0.0426  0.7491  0.3995
 1521TIP3    H125978   4.729   3.843  10.050  1.6075  1.7147  0.8668
 1521TIP3    H225979   4.676   3.718  10.117 -1.0999  1.8399 -0.9212
 1522TIP3   OH225980   6.772   5.748  14.534  0.5050  0.4559 -0.6522
 1522TIP3    H125981   6.856   5.778  14.566  0.7070 -0.0450 -0.7083
 1522TIP3    H225982   6.790   5.663  14.494  0.1231  0.7305 -1.4196
 1523TIP3   OH225983   0.561   7.034  12.724 -0.6777 -0.2354 -0.4187
 1523TIP3    H125984   0.583   6.980  12.800 -1.1095 -1.5514 -1.2249
 1523TIP3    H225985   0.532   6.972  12.658 -0.9777  0.9704 -1.4317
 1524TIP3   OH225986   3.889   1.981  12.974  0.2049 -0.2768 -0.5230
 1524TIP3    H125987   3.802   1.949  12.948  0.4695 -0.7790 -0.7997
 1524TIP3    H225988   3.949   1.913  12.945  0.5246 -0.8238  1.3745
 1525TIP3   OH225989   4.705   5.062  12.672 -0.6431  0.3436  0.0994
 1525TIP3    H125990   4.642   4.990  12.680 -0.6523  0.2172 -1.0671
 1525TIP3    H225991   4.758   5.056  12.752 -2.4076  0.7524  1.3296
 1526TIP3   OH225992   4.757   4.202  10.258 -0.5885  0.6865 -0.0580
 1526TIP3    H125993   4.734   4.160  10.175 -1.2674  0.9707 -0.0226
 1526TIP3    H225994   4.694   4.274  10.266 -0.2758  0.8986  0.5149
 1527TIP3   OH225995   3.903   6.849  10.716  0.0058  0.0661 -0.1448
 1527TIP3    H125996   3.957   6.915  10.673 -0.1019  1.0490  1.2420
 1527TIP3    H225997   3.853   6.897  10.782 -1.9154 -0.9755 -0.8089
 1528TIP3   OH225998   0.658   5.620   9.975  0.0505 -0.2429  0.0987
 1528TIP3    H125999   0.694   5.701   9.939 -0.3929 -1.3664 -3.0248
 1528TIP3    H226000   0.569   5.644  10.003  0.3391  0.6176  0.3017
 1529TIP3   OH226001   3.880   0.764  13.547 -0.3142 -0.6526 -0.5726
 1529TIP3    H126002   3.921   0.845  13.515  0.3333 -1.5071 -1.9302
 1529TIP3    H226003   3.810   0.794  13.605  1.4182  0.8745  0.8234
 1530TIP3   OH226004   0.320   3.567  10.442  0.3562 -0.6192  0.2476
 1530TIP3    H126005   0.342   3.610  10.525  1.7235 -0.4611 -0.1780
 1530TIP3    H226006   0.238   3.608  10.414  1.3406  1.3198  0.1346
 1531TIP3   OH226007   3.483   5.529  12.111  0.4496  0.3223  0.7981
 1531TIP3    H126008   3.421   5.544  12.039 -1.5593 -0.7182  2.2364
 1531TIP3    H226009   3.535   5.609  12.116 -1.1458  1.4459 -0.1393
 1532TIP3   OH226010   3.487   2.360  12.681 -0.2666 -0.4262  0.3508
 1532TIP3    H126011   3.417   2.347  12.745  1.2552  0.1989  2.1920
 1532TIP3    H226012   3.498   2.454  12.676 -2.4946 -0.2744 -3.2653
 1533TIP3   OH226013   3.531   3.107  11.299  0.1834 -0.4129  0.0432
 1533TIP3    H126014   3.522   3.143  11.386 -0.9347 -1.4059  0.3582
 1533TIP3    H226015   3.543   3.013  11.313 -0.8595 -0.7023 -0.8846
 1534TIP3   OH226016   1.676   0.881  11.055  0.0962  0.0444 -0.5392
 1534TIP3    H126017   1.707   0.966  11.025  0.6892 -0.0194 -0.1055
 1534TIP3    H226018   1.580   0.888  11.051  0.1524  0.1908 -1.9829
 1535TIP3   OH226019   3.542   3.411  12.589 -0.0623  0.3075 -1.0339
 1535TIP3    H126020   3.563   3.392  12.681 -0.2853 -0.8947 -1.2278
 1535TIP3    H226021   3.514   3.503  12.590  1.1850  0.6992 -0.1056
 1536TIP3   OH226022   1.086   0.982  10.968 -0.0204  0.5515 -0.2880
 1536TIP3    H126023   1.117   0.961  10.879  0.4969 -2.6722  0.6038
 1536TIP3    H226024   0.997   0.948  10.971 -0.2048  1.0792  0.3006
 1537TIP3   OH226025   6.617   0.736  10.134 -0.3709  0.2967 -0.3208
 1537TIP3    H126026   6.698   0.703  10.095 -0.2707  0.6307 -0.4000
 1537TIP3    H226027   6.581   0.796  10.068 -0.8258 -0.0639 -0.3998
 1538TIP3   OH226028   5.383   2.959  15.053 -0.1341 -0.2598 -0.1902
 1538TIP3    H126029   5.445   2.897  15.093 -0.0984  1.9249  3.4580
 1538TIP3    H226030   5.431   3.042  15.052 -1.3256  0.4263 -1.8904
 1539TIP3   OH226031   5.570   1.268  10.894 -0.3613  0.0323  0.4087
 1539TIP3    H126032   5.601   1.239  10.808 -0.8451 -0.6739  0.4679
 1539TIP3    H226033   5.639   1.243  10.955  0.1016  0.7702  0.1943
 1540TIP3   OH226034   4.224   3.922  14.462  0.0855  0.0904 -0.0151
 1540TIP3    H126035   4.144   3.924  14.409  1.0071  0.9785 -1.4080
 1540TIP3    H226036   4.289   3.967  14.409  1.1855  0.5466  1.6732
 1541TIP3   OH226037   2.462   4.999  11.335 -0.7172 -0.0623 -0.0426
 1541TIP3    H126038   2.413   5.066  11.289  0.8961  1.0279 -0.2253
 1541TIP3    H226039   2.537   5.046  11.374  0.0845 -1.6281  0.3636
 1542TIP3   OH226040   2.758   1.139  12.399 -0.2155 -0.1813  0.1511
 1542TIP3    H126041   2.714   1.221  12.420 -0.2439  0.1414 -1.1489
 1542TIP3    H226042   2.850   1.155  12.422 -0.4527 -0.2581  1.1866
 1543TIP3   OH226043   5.033   2.868  10.662  0.0388 -0.2333  0.1102
 1543TIP3    H126044   5.025   2.829  10.575 -0.5749 -0.7916  0.4091
 1543TIP3    H226045   4.957   2.835  10.710  1.4763 -1.6420  1.5010
 1544TIP3   OH226046   3.792   3.065  10.111 -0.0551  0.8342  0.2758
 1544TIP3    H126047   3.729   3.034  10.046  1.4643 -1.4325 -0.1631
 1544TIP3    H226048   3.852   3.120  10.062 -0.2582  1.0022  0.2140
 1545TIP3   OH226049   5.978   0.592  13.679 -0.1753 -0.4333  0.0500
 1545TIP3    H126050   6.009   0.657  13.616 -0.1085  0.1112  0.6384
 1545TIP3    H226051   6.052   0.580  13.739 -1.1851  1.1319  1.6710
 1546TIP3   OH226052   1.438   1.066  12.853 -0.7539  0.1384 -0.0241
 1546TIP3    H126053   1.456   0.973  12.842  0.2483  0.2352  0.7796
 1546TIP3    H226054   1.342   1.072  12.847 -0.8017 -0.8755 -0.4957
 1547TIP3   OH226055   2.706   6.527   9.598  0.3692  0.3931  0.3707
 1547TIP3    H126056   2.662   6.550   9.516  0.1688 -0.0761  0.3448
 1547TIP3    H226057   2.719   6.432   9.592  1.1984  0.4972  0.4645
 1548TIP3   OH226058   3.494   0.836   9.526 -0.3922 -0.0682 -0.2037
 1548TIP3    H126059   3.552   0.760   9.535  0.8134  0.6424 -1.7265
 1548TIP3    H226060   3.508   0.885   9.607 -0.7204 -1.1380  0.5205
 1549TIP3   OH226061   5.700   5.642  11.133 -0.1273  0.4088 -0.0470
 1549TIP3    H126062   5.633   5.674  11.072 -0.6381  0.6826  0.6488
 1549TIP3    H226063   5.766   5.712  11.135 -0.7864  1.0122  0.7606
 1550TIP3   OH226064   5.744   0.814  10.976  0.2711  0.5583 -0.8364
 1550TIP3    H126065   5.750   0.850  11.065 -1.0091  1.1420 -0.9858
 1550TIP3    H226066   5.826   0.840  10.935  2.0002 -1.8139  0.9346
 1551TIP3   OH226067   0.605   4.660  11.192  0.6704 -0.4302 -0.5074
 1551TIP3    H126068   0.684   4.711  11.179 -0.4418  1.0581 -1.5353
 1551TIP3    H226069   0.617   4.618  11.277  1.4656  1.7946  0.4912
 1552TIP3   OH226070   5.204   3.429  11.732  0.5720  1.1445  0.2970
 1552TIP3    H126071   5.281   3.438  11.788 -0.0650  1.0190  1.2156
 1552TIP3    H226072   5.130   3.449  11.790 -0.1985 -0.3844 -0.1210
 1553TIP3   OH226073   5.783   1.019  13.075  0.4556  0.6961 -0.0674
 1553TIP3    H126074   5.795   1.111  13.101 -0.9699  0.4982  1.3810
 1553TIP3    H226075   5.691   1.014  13.051  0.0889 -0.7379  1.5351
 1554TIP3   OH226076   4.343   7.087  11.279  0.1098  0.2525  0.2857
 1554TIP3    H126077   4.248   7.079  11.289  0.1306  1.2660  1.5066
 1554TIP3    H226078   4.376   7.084  11.369  1.2389 -0.1072 -0.1376
 1555TIP3   OH226079   1.872   1.514  11.564  0.4529  0.4820  0.3292
 1555TIP3    H126080   1.864   1.487  11.472 -0.1166  0.9626  0.2392
 1555TIP3    H226081   1.966   1.530  11.576  0.7188 -0.9267  0.2117
 1556TIP3   OH226082   3.007   1.775  10.820  0.1612  0.2875  0.8425
 1556TIP3    H126083   2.982   1.687  10.791  0.6647  0.2785  0.4266
 1556TIP3    H226084   2.995   1.830  10.743  0.7182  0.4134  0.8420
 1557TIP3   OH226085   3.398   3.147  15.355  0.2139 -0.9140 -0.5700
 1557TIP3    H126086   3.322   3.183  15.311  0.1990  0.9461  0.9010
 1557TIP3    H226087   3.395   3.184  15.444  2.7210 -0.9126 -0.4237
 1558TIP3   OH226088   2.891   1.443  11.461 -0.1233 -0.8316  0.1537
 1558TIP3    H126089   2.891   1.461  11.555  1.6709 -0.1697  0.0435
 1558TIP3    H226090   2.831   1.508  11.424  1.1839  0.6373  0.5520
 1559TIP3   OH226091   1.861   0.599  13.537 -0.1060 -0.1549 -0.3541
 1559TIP3    H126092   1.926   0.568  13.600 -0.2269  1.2305  0.4574
 1559TIP3    H226093   1.779   0.558  13.566 -0.0800  0.1291  0.1258
 1560TIP3   OH226094   3.473   2.962  12.024  0.2672 -0.2083 -0.4469
 1560TIP3    H126095   3.474   2.866  12.024  3.4049 -0.2351 -0.3458
 1560TIP3    H226096   3.509   2.987  11.939 -0.1306  0.8737 -0.3078
 1561TIP3   OH226097   5.181   1.318   9.673  0.5826  0.3158 -0.0812
 1561TIP3    H126098   5.254   1.324   9.734  1.0034  1.5415 -0.6796
 1561TIP3    H226099   5.125   1.392   9.695  0.5327  0.5286 -0.9136
 1562TIP3   OH226100   3.720   1.701  13.674 -0.3236  0.5271  0.2147
 1562TIP3    H126101   3.646   1.648  13.703 -0.7856  1.5692  0.9843
 1562TIP3    H226102   3.697   1.790  13.700  1.2919  0.8369  0.6129
 1563TIP3   OH226103   4.528   3.242  10.572  0.1654  0.0875 -0.0562
 1563TIP3    H126104   4.526   3.160  10.621 -0.9531  0.8608  1.2401
 1563TIP3    H226105   4.498   3.219  10.484  0.6079 -1.0250  0.0821
 1564TIP3   OH226106   5.861   5.623  11.633  0.6822 -0.4109 -0.6438
 1564TIP3    H126107   5.941   5.655  11.591  0.6227 -1.1403 -1.3191
 1564TIP3    H226108   5.863   5.528  11.619 -0.3430 -0.4221 -0.7331
 1565TIP3   OH226109   0.873   3.000  12.744  0.3438 -0.1570 -0.5389
 1565TIP3    H126110   0.808   2.932  12.724  1.2370 -1.1290 -0.1768
 1565TIP3    H226111   0.934   2.958  12.804 -0.1639  1.5596  1.2457
 1566TIP3   OH226112   3.855   1.839   9.961 -0.4065 -0.5310 -0.0292
 1566TIP3    H126113   3.816   1.757   9.930 -1.6634 -0.2892  0.8487
 1566TIP3    H226114   3.855   1.897   9.886  0.8689 -1.4522 -0.7701
 1567TIP3   OH226115   5.132   3.460   9.951 -0.2159  0.1681  0.5752
 1567TIP3    H126116   5.207   3.483  10.004 -1.1333  0.8899  1.5757
 1567TIP3    H226117   5.110   3.370   9.977 -0.2703  0.2912  0.9519
 1568TIP3   OH226118   4.700   4.495  10.742  0.0119 -0.7436  0.4354
 1568TIP3    H126119   4.642   4.453  10.678 -0.0412  2.6264 -1.8350
 1568TIP3    H226120   4.646   4.501  10.822 -1.1639 -1.7482 -0.2537
 1569TIP3   OH226121   2.253   0.372  12.861  0.3998  0.1238 -0.3655
 1569TIP3    H126122   2.231   0.297  12.805  0.1107  1.3228 -1.9102
 1569TIP3    H226123   2.332   0.409  12.821  0.5973  0.5801  0.4464
 1570TIP3   OH226124   5.308   1.802  10.277 -0.4199  0.3059 -0.4900
 1570TIP3    H126125   5.225   1.777  10.317 -0.1628  0.3977  0.1176
 1570TIP3    H226126   5.322   1.893  10.305 -0.2850  0.4000 -0.8690
 1571TIP3   OH226127   6.119   2.929  10.211 -0.2118  0.1583  0.4346
 1571TIP3    H126128   6.165   3.004  10.247  0.2672 -0.5206  1.2582
 1571TIP3    H226129   6.136   2.933  10.117  1.5832 -0.1055  0.7290
 1572TIP3   OH226130   1.071   3.004  12.162  0.3905  0.1221  0.2455
 1572TIP3    H126131   1.112   3.088  12.143 -1.0381  0.0865 -3.4908
 1572TIP3    H226132   0.981   3.026  12.186  0.4572 -0.2585  0.8608
 1573TIP3   OH226133   4.101   5.505  10.659  0.0435  0.0716 -0.1110
 1573TIP3    H126134   4.017   5.513  10.705  0.9189 -0.3949  1.6197
 1573TIP3    H226135   4.126   5.595  10.639  0.0396  0.3443  1.0643
 1574TIP3   OH226136   1.706   6.496  10.514  0.1655  0.4445  0.8325
 1574TIP3    H126137   1.772   6.432  10.485 -3.0138 -2.1026 -1.1220
 1574TIP3    H226138   1.750   6.546  10.582  3.4741 -2.5166  1.0267
 1575TIP3   OH226139   3.132   0.859  11.283  0.1636 -0.0238 -0.7414
 1575TIP3    H126140   3.115   0.950  11.305 -1.1278 -0.6023  0.8357
 1575TIP3    H226141   3.208   0.835  11.336 -0.0205 -0.0909 -0.5056
 1576TIP3   OH226142   4.440   3.728  11.074 -0.4980  0.0827 -0.3794
 1576TIP3    H126143   4.427   3.772  11.158 -2.0702 -0.1424 -0.4793
 1576TIP3    H226144   4.405   3.790  11.009  2.1623  0.9455 -1.0481
 1577TIP3   OH226145   5.120   3.416  10.881 -0.3985  0.2906 -0.6424
 1577TIP3    H126146   5.086   3.504  10.864 -1.6843 -0.6028 -2.9184
 1577TIP3    H226147   5.046   3.370  10.920  0.2802  0.2061  0.5600
 1578TIP3   OH226148   3.752   6.375   9.858 -0.4967 -0.7578  0.0676
 1578TIP3    H126149   3.778   6.436   9.789 -0.1908  0.4942  1.2686
 1578TIP3    H226150   3.820   6.383   9.925 -2.1700  0.0685  1.7277
 1579TIP3   OH226151   6.670   3.706   9.739  0.1987  0.7227  0.9467
 1579TIP3    H126152   6.668   3.612   9.755  1.7865  0.5208  0.1038
 1579TIP3    H226153   6.602   3.721   9.674 -0.7426  0.3232  1.8260
 1580TIP3   OH226154   4.915   6.486  10.853  0.4007  0.8131 -0.1716
 1580TIP3    H126155   4.923   6.391  10.849 -1.3271  0.6117  0.8188
 1580TIP3    H226156   4.881   6.510  10.767 -1.8234  0.2324  0.5190
 1581TIP3   OH226157   2.832   2.322  11.182  0.1455  0.2117 -0.4610
 1581TIP3    H126158   2.869   2.338  11.269 -1.1888 -0.5407  0.2711
 1581TIP3    H226159   2.860   2.233  11.159 -2.0653 -0.8031  0.5928
 1582TIP3   OH226160   5.546   3.653  10.922 -0.6720  0.1810 -0.0029
 1582TIP3    H126161   5.552   3.668  11.016 -1.8352 -0.9018  0.2552
 1582TIP3    H226162   5.585   3.567  10.908 -0.1624  0.4940 -0.5711
 1583TIP3   OH226163   5.424   3.179  10.254  0.1051  0.2262 -0.0413
 1583TIP3    H126164   5.435   3.084  10.248 -0.5071  0.2042 -0.9350
 1583TIP3    H226165   5.400   3.206  10.165 -0.1777  1.1562  0.3139
 1584TIP3   OH226166   3.140   4.338  10.419  0.5273  0.1278 -0.4382
 1584TIP3    H126167   3.076   4.359  10.487  0.5287 -0.7263 -0.1674
 1584TIP3    H226168   3.108   4.257  10.380  1.2490 -0.1099 -0.5490
 1585TIP3   OH226169   5.244   6.569  10.251  0.4823 -0.6981 -0.2705
 1585TIP3    H126170   5.259   6.512  10.327  4.3209 -0.3198 -0.6615
 1585TIP3    H226171   5.165   6.534  10.210  0.9046 -3.7032  1.3473
 1586TIP3   OH226172   3.686   3.032   9.483 -0.2035  0.3372  0.3975
 1586TIP3    H126173   3.717   2.961   9.427 -1.3392 -1.6222  2.1793
 1586TIP3    H226174   3.731   3.019   9.566 -0.9128  1.3192  0.9476
 1587TIP3   OH226175   1.660   3.704  10.858 -0.5622 -0.0483  0.1097
 1587TIP3    H126176   1.718   3.775  10.833 -0.9799  0.0274 -0.6612
 1587TIP3    H226177   1.573   3.732  10.830 -0.5214 -1.4930 -1.5794
 1588TIP3   OH226178   4.560   1.327  13.834 -0.3645  0.1946  0.7889
 1588TIP3    H126179   4.620   1.281  13.775 -0.5808  1.1686 -0.2203
 1588TIP3    H226180   4.505   1.259  13.871 -1.2873 -0.2822 -1.3720
 1589TIP3   OH226181   2.829   4.495  11.795  0.2028 -0.2402 -0.3645
 1589TIP3    H126182   2.844   4.441  11.873  0.8211 -1.0008 -1.0101
 1589TIP3    H226183   2.909   4.485  11.743 -0.4985 -0.3062 -1.4417
 1590TIP3   OH226184   0.164   1.643  10.280 -0.4769  0.0340  0.0734
 1590TIP3    H126185   0.240   1.666  10.333 -1.3337 -0.9350  1.7467
 1590TIP3    H226186   0.129   1.727  10.250 -0.4188  0.6248  1.6580
 1591TIP3   OH226187   5.162   4.425   9.613  0.1401  0.1948  0.1456
 1591TIP3    H126188   5.153   4.342   9.660 -1.0076  0.9837  1.3222
 1591TIP3    H226189   5.106   4.414   9.536  1.2483 -0.7165 -0.5581
 1592TIP3   OH226190   5.498   1.885  12.183  0.1741 -0.5687 -0.1737
 1592TIP3    H126191   5.429   1.856  12.242  0.0246 -0.2729 -0.2067
 1592TIP3    H226192   5.548   1.805  12.165 -0.3816 -0.8620 -0.4476
 1593TIP3   OH226193   6.570   0.495  11.794 -0.1437  0.3711 -0.1872
 1593TIP3    H126194   6.571   0.438  11.871  1.5898  0.1571 -0.3523
 1593TIP3    H226195   6.627   0.451  11.731 -2.4401 -0.0576 -2.0665
 1594TIP3   OH226196   6.884   3.242  13.566  0.4821  0.1291 -0.1782
 1594TIP3    H126197   6.909   3.227  13.475 -0.6391  0.0729 -0.4927
 1594TIP3    H226198   6.788   3.235  13.565  0.5360 -0.9426  1.2051
 1595TIP3   OH226199   2.159   2.051  10.385 -0.2259 -0.0994  0.9707
 1595TIP3    H126200   2.223   2.094  10.441  1.2141  0.0616 -0.7678
 1595TIP3    H226201   2.210   1.989  10.333 -1.7103 -1.0958  0.6850
 1596TIP3   OH226202   5.524   4.202  10.457 -0.1708 -0.1261  0.0370
 1596TIP3    H126203   5.616   4.186  10.481 -0.0825  1.9117  1.1949
 1596TIP3    H226204   5.474   4.159  10.525 -0.0352 -0.1894  0.0976
 1597TIP3   OH226205   3.574   2.182  14.603 -0.1230 -0.6920 -0.3624
 1597TIP3    H126206   3.545   2.143  14.521 -0.6097 -1.4585  0.1638
 1597TIP3    H226207   3.560   2.113  14.669 -0.0828  0.0332  0.4199
 1598TIP3   OH226208   1.724   3.495  12.856 -0.2031 -0.2869 -0.7583
 1598TIP3    H126209   1.728   3.569  12.796 -1.3823  0.4442  0.0304
 1598TIP3    H226210   1.813   3.485  12.889 -0.1409  1.1227 -0.4758
 1599TIP3   OH226211   1.504   5.427   1.741  0.3554 -0.8368  0.2707
 1599TIP3    H126212   1.590   5.463   1.720 -0.6102  1.4472  0.0997
 1599TIP3    H226213   1.453   5.502   1.773 -1.7397 -2.0414 -0.1209
 1600TIP3   OH226214   2.767   0.761  13.215  0.0286  0.5416 -0.2414
 1600TIP3    H126215   2.766   0.666  13.207 -1.1754  0.5752 -0.6522
 1600TIP3    H226216   2.856   0.782  13.244  0.2672 -0.7092 -0.0385
 1601TIP3   OH226217   3.146   0.850  11.611  0.1541 -0.3507  0.0406
 1601TIP3    H126218   3.115   0.872  11.699  0.2984 -0.9639  0.2435
 1601TIP3    H226219   3.238   0.876  11.611  0.3406 -1.0209  0.2994
 1602TIP3   OH226220   5.967   4.542   9.854 -0.3884  0.0943  0.0330
 1602TIP3    H126221   5.980   4.622   9.904  0.3021  0.2745 -0.4224
 1602TIP3    H226222   5.881   4.510   9.881 -0.8143  1.1681 -0.0289
 1603TIP3   OH226223   0.908   1.575  11.502 -0.3636 -0.0334  0.1737
 1603TIP3    H126224   0.968   1.574  11.427 -2.1508  2.8990 -1.4252
 1603TIP3    H226225   0.958   1.617  11.571  0.5133 -0.5693 -0.1269
 1604TIP3   OH226226   6.253   6.143  13.495 -0.1825 -0.1482  0.1085
 1604TIP3    H126227   6.165   6.144  13.531 -1.0658  0.7091 -2.0529
 1604TIP3    H226228   6.279   6.235  13.489 -0.0639 -0.2823 -1.4978
 1605TIP3   OH226229   4.567   2.229  12.174 -0.6931  0.5218  0.1536
 1605TIP3    H126230   4.509   2.217  12.249 -0.9940  1.4696  0.0775
 1605TIP3    H226231   4.655   2.214  12.209 -0.8836  0.3046  0.5418
 1606TIP3   OH226232   5.068   1.802  10.410 -0.1121  0.6619  0.1056
 1606TIP3    H126233   5.021   1.884  10.426 -0.4620  0.6238 -0.7366
 1606TIP3    H226234   5.043   1.745  10.483  1.7905  2.0263  1.8972
 1607TIP3   OH226235   4.645   2.213  11.271  0.2136  0.3761  0.0507
 1607TIP3    H126236   4.567   2.157  11.265  0.5564  0.0815 -2.1513
 1607TIP3    H226237   4.668   2.231  11.180  1.6502  1.9746  0.7168
 1608TIP3   OH226238   3.209   2.494   0.385  0.0233  0.1244 -0.4238
 1608TIP3    H126239   3.118   2.522   0.370  0.4440  2.9640  1.9642
 1608TIP3    H226240   3.209   2.461   0.475  0.9944 -1.5420 -1.0235
 1609TIP3   OH226241   3.335   6.226  11.207  0.3956 -0.4521  0.0858
 1609TIP3    H126242   3.322   6.291  11.276 -0.4770 -0.0532 -0.4345
 1609TIP3    H226243   3.311   6.143  11.247  0.3014 -0.2755  0.3988
 1610TIP3   OH226244   3.387   2.325  11.168  0.4395 -0.0236  0.1151
 1610TIP3    H126245   3.386   2.419  11.154  0.1384 -0.4201 -2.7613
 1610TIP3    H226246   3.461   2.310  11.227  2.3054  1.7258 -1.7141
 1611TIP3   OH226247   0.463   0.295  10.281  0.4734  0.2388  0.3195
 1611TIP3    H126248   0.546   0.335  10.306  0.1263  0.2792  1.4225
 1611TIP3    H226249   0.409   0.301  10.359 -0.8754  0.9815 -0.6438
 1612TIP3   OH226250   6.392   7.063  11.716 -0.4454 -0.1614  0.3042
 1612TIP3    H126251   6.383   6.991  11.652 -1.7679 -1.5850  2.0284
 1612TIP3    H226252   6.380   7.142  11.664 -1.7945 -1.2980 -1.1906
 1613TIP3   OH226253   6.714   2.371  10.741 -0.2510  0.4486 -0.2491
 1613TIP3    H126254   6.620   2.351  10.743 -0.1942 -0.0231 -1.8665
 1613TIP3    H226255   6.718   2.466  10.752 -0.7374  0.1860  2.9287
 1614TIP3   OH226256   2.708   3.866   9.627 -0.1886 -0.1272 -0.3162
 1614TIP3    H126257   2.762   3.900   9.555 -1.6748  1.1682 -0.8656
 1614TIP3    H226258   2.626   3.841   9.585 -0.7839 -0.0925  0.8187
 1615TIP3   OH226259   4.365   5.483  12.542 -0.1444  0.0229  0.2023
 1615TIP3    H126260   4.443   5.513  12.496  1.0107 -1.7033  0.9677
 1615TIP3    H226261   4.350   5.549  12.610  0.8387  0.2142  0.2414
 1616TIP3   OH226262   3.994   0.939  12.532 -0.2876  0.1868 -0.5052
 1616TIP3    H126263   3.915   0.907  12.488 -0.5580  0.5804 -0.3096
 1616TIP3    H226264   3.963   0.974  12.615  0.1299  0.1107 -0.3132
 1617TIP3   OH226265   4.791   2.148  10.121  0.5095  0.5208 -0.1201
 1617TIP3    H126266   4.853   2.220  10.137 -0.1404  1.1333 -0.3606
 1617TIP3    H226267   4.846   2.074  10.096  1.3411  0.4244  1.8549
 1618TIP3   OH226268   5.011   0.575   1.269 -0.3256  1.0254  0.0303
 1618TIP3    H126269   4.922   0.599   1.242 -0.4481 -0.9653 -1.4592
 1618TIP3    H226270   4.998   0.509   1.337 -0.0081 -0.6198 -1.4811
 1619TIP3   OH226271   0.879   2.426  12.578 -0.7807  0.1239 -0.4246
 1619TIP3    H126272   0.894   2.510  12.534  0.0789 -0.3974 -1.1636
 1619TIP3    H226273   0.802   2.389  12.535 -1.8574  1.0570  0.6973
 1620TIP3   OH226274   5.117   1.624  10.906  0.2502  0.4722 -0.5304
 1620TIP3    H126275   5.117   1.663  10.819  0.1825 -0.3217 -0.8926
 1620TIP3    H226276   5.047   1.559  10.903  1.5028 -0.9059 -0.4941
 1621TIP3   OH226277   5.288   3.626  12.969 -0.5762  0.3688 -0.0359
 1621TIP3    H126278   5.360   3.681  12.935  0.3725 -0.4199  0.6705
 1621TIP3    H226279   5.289   3.641  13.063 -0.6359 -0.4807  0.1044
 1622TIP3   OH226280   4.941   1.815  10.722 -0.4925  0.6951 -0.2792
 1622TIP3    H126281   4.868   1.756  10.739  0.1245  0.6399  2.3684
 1622TIP3    H226282   4.900   1.899  10.701 -1.3380 -0.0375 -1.5897
 1623TIP3   OH226283   0.614   0.035  10.590  0.1032  0.2458 -0.1922
 1623TIP3    H126284   0.577  -0.054  10.597  0.7817  0.0270  0.6878
 1623TIP3    H226285   0.670   0.031  10.512 -0.8411  0.2610 -0.8821
 1624TIP3   OH226286   5.819   2.153   9.344 -0.6760 -0.2817 -0.1653
 1624TIP3    H126287   5.876   2.201   9.404  0.3055 -2.1534  0.4651
 1624TIP3    H226288   5.757   2.218   9.312  1.2815  1.6349 -0.2096
 1625TIP3   OH226289   2.765   3.082  12.662 -0.2979 -0.4482  0.0063
 1625TIP3    H126290   2.696   3.077  12.596  0.8482 -0.4918 -1.2168
 1625TIP3    H226291   2.745   3.162  12.710 -0.5705  0.1547 -1.0721
 1626TIP3   OH226292   3.012   2.958  14.503  0.0585 -0.2159  0.4011
 1626TIP3    H126293   3.043   2.936  14.591  0.2625 -2.0784 -0.1353
 1626TIP3    H226294   3.013   2.876  14.455 -0.6658  0.6707 -1.1773
 1627TIP3   OH226295   5.168   2.313  11.686 -0.2724 -0.6277 -0.0491
 1627TIP3    H126296   5.126   2.236  11.650  1.3081 -1.6835  0.3048
 1627TIP3    H226297   5.185   2.369  11.611 -1.7888 -0.4396 -0.2541
 1628TIP3   OH226298   0.526   6.134  10.472 -0.1601  0.4894  0.3573
 1628TIP3    H126299   0.547   6.054  10.423  0.6767 -0.0125  1.5193
 1628TIP3    H226300   0.603   6.191  10.460 -1.0412  1.4203 -1.0423
 1629TIP3   OH226301   6.808   3.833  10.203  0.0808 -0.2424 -0.4345
 1629TIP3    H126302   6.851   3.851  10.287  0.3560  1.7007 -0.9674
 1629TIP3    H226303   6.877   3.840  10.138 -0.7289  1.5017 -1.1511
 1630TIP3   OH226304   2.386   5.855  12.716 -0.2569  0.4448 -0.0586
 1630TIP3    H126305   2.307   5.903  12.693 -0.3082  1.3683  1.9223
 1630TIP3    H226306   2.415   5.816  12.634 -2.0448  1.1536 -1.0619
 1631TIP3   OH226307   5.254   4.967  11.391 -0.5361 -0.0218  0.2859
 1631TIP3    H126308   5.339   4.993  11.427 -0.1722 -0.4631 -0.2603
 1631TIP3    H226309   5.275   4.905  11.321 -1.2757  0.4394 -0.3447
 1632TIP3   OH226310   3.742   2.494  11.226 -0.2882 -0.2210 -0.8007
 1632TIP3    H126311   3.672   2.467  11.285 -0.9268  0.2183 -1.3569
 1632TIP3    H226312   3.822   2.462  11.268 -0.8343 -0.9225 -0.2749
 1633TIP3   OH226313   6.578   2.889  10.813 -0.0257 -0.3028 -0.0046
 1633TIP3    H126314   6.628   2.963  10.778 -1.2348  0.5493  0.0229
 1633TIP3    H226315   6.488   2.920  10.814 -0.1148 -0.4947  3.3806
 1634TIP3   OH226316   4.401   1.469   9.704 -0.5712  0.6416  0.0861
 1634TIP3    H126317   4.464   1.414   9.658 -0.0813  0.3409  1.0889
 1634TIP3    H226318   4.315   1.433   9.679 -0.2788 -0.1174  0.1539
 1635TIP3   OH226319   3.360   3.625  12.086  0.6036 -0.8306  0.0876
 1635TIP3    H126320   3.436   3.640  12.141  1.0569 -1.8783 -0.2421
 1635TIP3    H226321   3.343   3.531  12.093 -0.8569 -0.5593  0.4228
 1636TIP3   OH226322   3.577   2.099  14.174  0.0714  0.1625 -0.1469
 1636TIP3    H126323   3.540   2.041  14.241  1.2090 -0.7280 -0.2674
 1636TIP3    H226324   3.512   2.168  14.164  0.0516  0.5211  2.1515
 1637TIP3   OH226325   5.794   5.374  15.384  0.2998 -0.8441  0.0575
 1637TIP3    H126326   5.717   5.359  15.328  1.0896 -0.4051 -1.1686
 1637TIP3    H226327   5.757   5.406  15.466 -0.9271 -2.0664  0.0139
 1638TIP3   OH226328   3.778   1.372   9.844 -0.4403 -0.2005 -0.1638
 1638TIP3    H126329   3.705   1.328   9.801 -0.7646 -1.0478  1.2070
 1638TIP3    H226330   3.748   1.385   9.934  1.3591 -1.1945  0.5964
 1639TIP3   OH226331   4.310   2.318   9.966  0.1727 -0.1455 -0.0838
 1639TIP3    H126332   4.343   2.368  10.041  0.5048 -1.2562  0.5281
 1639TIP3    H226333   4.388   2.274   9.931 -0.2450 -0.8825 -0.1039
 1640TIP3   OH226334   2.730   0.778   9.597  0.2363  0.2153 -0.1139
 1640TIP3    H126335   2.708   0.868   9.573 -0.6446  0.1231  0.3567
 1640TIP3    H226336   2.776   0.786   9.681 -1.9441  0.0346  1.1210
 1641TIP3   OH226337   4.106   2.432  10.752 -0.6363  0.0531  0.2732
 1641TIP3    H126338   4.134   2.360  10.808 -0.9656 -1.1753 -1.0924
 1641TIP3    H226339   4.175   2.498  10.761  1.4393 -1.8588 -1.0829
 1642TIP3   OH226340   0.838   6.548  12.439  0.8078 -0.2759 -0.1230
 1642TIP3    H126341   0.841   6.458  12.469  2.7186 -0.6081 -1.2264
 1642TIP3    H226342   0.745   6.567  12.428  0.3283 -1.6705  1.3635
 1643TIP3   OH226343   6.647   6.105  15.005  0.0546  0.9464 -0.2814
 1643TIP3    H126344   6.588   6.132  15.076  0.4489  0.1809  0.3578
 1643TIP3    H226345   6.619   6.156  14.929 -1.2244  0.8347  0.0939
 1644TIP3   OH226346   6.443   5.745  12.000 -0.0568 -0.1344 -0.0682
 1644TIP3    H126347   6.373   5.805  12.027  0.2363 -0.1216  0.6762
 1644TIP3    H226348   6.423   5.725  11.909 -2.3532 -1.9434  0.7611
 1645TIP3   OH226349   5.117   1.601  12.173 -0.4515  0.3719  0.2593
 1645TIP3    H126350   5.063   1.583  12.096  2.2716  0.0698 -1.6312
 1645TIP3    H226351   5.065   1.663  12.225 -3.2857 -1.1291 -0.6839
 1646TIP3   OH226352   3.368   1.186  12.268 -0.3768  0.4358  0.1643
 1646TIP3    H126353   3.306   1.184  12.341 -1.4202 -0.6568 -0.7170
 1646TIP3    H226354   3.437   1.246  12.296  0.1605 -1.3251  2.7689
 1647TIP3   OH226355   2.928   2.794  11.949  0.2788 -0.3834 -0.2256
 1647TIP3    H126356   2.891   2.873  11.987  0.4093  0.8848 -2.6728
 1647TIP3    H226357   3.022   2.803  11.961  0.2086 -0.9703  0.9327
 1648TIP3   OH226358   6.827   1.906  12.206  0.4209  0.3657 -0.0318
 1648TIP3    H126359   6.834   1.917  12.300  1.9275  0.7657 -0.1749
 1648TIP3    H226360   6.825   1.811  12.192 -3.7227  0.3081  0.6362
 1649TIP3   OH226361   4.114   2.028  11.485 -0.2586  0.3083 -0.1636
 1649TIP3    H126362   4.133   2.002  11.395 -2.5361  0.1845 -0.6246
 1649TIP3    H226363   4.132   1.950  11.537 -2.2429 -0.6795 -0.9352
 1650TIP3   OH226364   0.341   1.826  11.383 -0.4272  0.2386  0.1855
 1650TIP3    H126365   0.315   1.905  11.335  0.3436 -0.3896 -1.3133
 1650TIP3    H226366   0.354   1.760  11.315  2.2869 -0.2406  1.1130
 1651TIP3   OH226367   0.989   1.697  10.579 -0.3081 -0.2731  0.5480
 1651TIP3    H126368   1.066   1.658  10.538 -0.8558 -0.5945 -0.1779
 1651TIP3    H226369   0.973   1.642  10.656  0.9856  0.6004  1.4637
 1652TIP3   OH226370   3.001   7.008  10.625  0.4800  0.6721  0.4267
 1652TIP3    H126371   3.034   7.031  10.712 -0.2791  0.1956  0.8487
 1652TIP3    H226372   2.994   7.091  10.578  1.2134  0.8934  0.7054
 1653TIP3   OH226373   3.377   0.356  10.699 -0.2378  0.3739  0.6369
 1653TIP3    H126374   3.326   0.319  10.771 -2.5076  2.4445  0.1591
 1653TIP3    H226375   3.405   0.280  10.647 -0.7100 -0.9523  2.2956
 1654TIP3   OH226376   4.387   2.127   9.793  0.3933 -0.0197 -0.0245
 1654TIP3    H126377   4.300   2.093   9.812  0.3012 -0.5942 -1.3998
 1654TIP3    H226378   4.446   2.068   9.840 -0.0163  1.4460  2.3810
 1655TIP3   OH226379   6.592   0.741  10.425 -0.0023  0.3327 -0.3528
 1655TIP3    H126380   6.629   0.731  10.337 -1.3599 -1.1060 -0.7873
 1655TIP3    H226381   6.662   0.711  10.483  1.3813  2.4895 -0.8305
 1656TIP3   OH226382   5.090   0.487   9.544  0.3199  0.2717  0.3375
 1656TIP3    H126383   5.115   0.397   9.520  1.9077  0.9409 -0.6333
 1656TIP3    H226384   5.056   0.479   9.633 -4.0387 -2.0021 -1.3989
 1657TIP3   OH226385   3.491   1.081   9.408  0.0991  0.1551 -1.0240
 1657TIP3    H126386   3.429   1.130   9.463  1.5215  1.5082 -0.5982
 1657TIP3    H226387   3.481   0.990   9.437 -0.1370  0.6664  0.5675
 1658TIP3   OH226388   3.434   4.092  10.092 -0.5693  0.2649  0.0354
 1658TIP3    H126389   3.462   4.183  10.082 -1.2491  0.5513  0.7081
 1658TIP3    H226390   3.345   4.090  10.058 -0.9745  0.1049  1.0934
 1659TIP3   OH226391   4.321   4.805  11.610  0.2086 -0.2711 -0.7248
 1659TIP3    H126392   4.301   4.897  11.595  0.5267 -0.2114 -0.7921
 1659TIP3    H226393   4.415   4.798  11.595  0.2506 -0.5348 -0.3523
 1660TIP3   OH226394   4.987   6.486  13.996 -0.1835  0.0369 -0.4015
 1660TIP3    H126395   4.974   6.439  14.079  0.4744 -1.6775 -1.2411
 1660TIP3    H226396   4.926   6.444  13.935 -0.4835  1.1215 -0.8592
 1661TIP3   OH226397   6.169   2.927  11.151  0.3575 -0.5289  0.0069
 1661TIP3    H126398   6.155   3.021  11.158  2.1510 -0.1344 -1.2812
 1661TIP3    H226399   6.154   2.907  11.058  0.4218 -1.4173  0.1836
 1662TIP3   OH226400   2.845   7.009  11.706  0.5602  0.4062 -0.6126
 1662TIP3    H126401   2.863   7.029  11.615  1.2905 -0.7331 -0.7251
 1662TIP3    H226402   2.749   7.000  11.710  0.4718  1.0601 -1.1232
 1663TIP3   OH226403   2.186   4.920  10.354 -0.1174  0.4952 -0.0478
 1663TIP3    H126404   2.274   4.939  10.321 -0.8183  4.5095  0.1495
 1663TIP3    H226405   2.136   4.896  10.276  1.0712 -1.6198 -0.1906
 1664TIP3   OH226406   5.401   5.935   9.826 -0.3006 -0.0820  0.2688
 1664TIP3    H126407   5.337   5.883   9.777  1.0924 -0.8692 -0.7684
 1664TIP3    H226408   5.421   6.009   9.768 -1.2149  0.8611  1.1364
 1665TIP3   OH226409   3.554   0.887  10.638  0.0862 -0.0455  0.0134
 1665TIP3    H126410   3.496   0.936  10.580  0.5506 -0.2116 -0.5947
 1665TIP3    H226411   3.516   0.800  10.643  0.4975 -0.2706 -0.7035
 1666TIP3   OH226412   1.500   3.928  12.873  1.0656  0.9171  0.7921
 1666TIP3    H126413   1.497   3.835  12.897 -2.3565  0.5347 -0.7312
 1666TIP3    H226414   1.412   3.960  12.895  1.1599  2.9808 -1.6328
 1667TIP3   OH226415   4.662   0.361  10.891  0.0651 -0.2525  0.0693
 1667TIP3    H126416   4.605   0.323  10.825  0.2699  0.5362 -0.5705
 1667TIP3    H226417   4.707   0.432  10.846  1.4164 -0.7452  0.6079
 1668TIP3   OH226418   6.992   4.374  13.355  0.0475 -0.0292 -0.0034
 1668TIP3    H126419   7.085   4.392  13.365 -0.0875  0.9940 -0.4788
 1668TIP3    H226420   6.963   4.348  13.443  0.7563 -0.2369  0.1686
 1669TIP3   OH226421   3.503   3.167  10.210 -0.1258 -0.3241 -0.0347
 1669TIP3    H126422   3.593   3.194  10.194  0.0734 -1.6602 -1.3229
 1669TIP3    H226423   3.509   3.074  10.231 -1.1140 -0.1873  0.8809
 1670TIP3   OH226424   6.529   5.850  11.069  0.1388 -0.1968 -0.8555
 1670TIP3    H126425   6.575   5.907  11.007  2.7553 -1.2681  0.0228
 1670TIP3    H226426   6.489   5.909  11.132  1.2726  0.7232 -0.9945
 1671TIP3   OH226427   3.725   1.181  10.657  0.1309 -0.3544 -0.7816
 1671TIP3    H126428   3.754   1.107  10.711 -3.4182 -0.8098  0.6027
 1671TIP3    H226429   3.762   1.163  10.571  1.4390 -2.4183  0.1636
 1672TIP3   OH226430   6.594   2.430   9.487  0.3631  0.0600 -0.3017
 1672TIP3    H126431   6.540   2.500   9.522  0.6191  0.0535  0.1167
 1672TIP3    H226432   6.564   2.419   9.396 -1.9912 -1.5735  0.6204
 1673TIP3   OH226433   5.760   5.877  10.374  0.0431  0.6981  0.3150
 1673TIP3    H126434   5.678   5.923  10.390  0.2422  1.3864 -0.6047
 1673TIP3    H226435   5.795   5.917  10.294  1.6609  0.9780  1.1302
 1674TIP3   OH226436   1.388   0.090  12.025 -0.1606  0.1451  0.2558
 1674TIP3    H126437   1.402   0.014  11.968 -2.8837 -1.1029  1.2007
 1674TIP3    H226438   1.469   0.141  12.016 -0.2837 -0.2502 -4.3156
 1675TIP3   OH226439   4.491   2.618  11.000 -0.1977 -0.2304  0.4863
 1675TIP3    H126440   4.463   2.708  11.013  1.4840 -0.0075  2.7306
 1675TIP3    H226441   4.451   2.569  11.072  1.2424 -0.7585  0.9451
 1676TIP3   OH226442   4.516   3.775  12.166  0.3852  0.1617  0.2224
 1676TIP3    H126443   4.471   3.692  12.176  0.5472 -0.1604 -1.5238
 1676TIP3    H226444   4.486   3.828  12.240 -2.1616 -0.3487 -0.4043
 1677TIP3   OH226445   6.484   2.432   9.240 -0.7571  0.2416  0.0064
 1677TIP3    H126446   6.424   2.379   9.187  0.8403 -2.2947  0.6755
 1677TIP3    H226447   6.531   2.486   9.177 -1.9332  0.4409 -0.7319
 1678TIP3   OH226448   4.580   1.190  10.353  0.2089 -0.3860 -0.4668
 1678TIP3    H126449   4.550   1.257  10.292 -2.2591  0.2465  1.3550
 1678TIP3    H226450   4.640   1.237  10.411 -0.6059  0.0065  0.0785
 1679TIP3   OH226451   1.288   1.457  14.236  0.1621 -0.5664  0.0482
 1679TIP3    H126452   1.197   1.433  14.216 -0.0306 -1.1926  1.5741
 1679TIP3    H226453   1.281   1.520  14.308  0.9357 -0.6349  0.1887
 1680TIP3   OH226454   3.278   2.390  10.683 -0.1147  0.4646  0.9245
 1680TIP3    H126455   3.214   2.410  10.614 -0.9364 -1.3247  1.1245
 1680TIP3    H226456   3.362   2.414  10.646 -0.6574  0.5082 -0.3141
 1681TIP3   OH226457   3.663   1.799  14.422  0.1624  0.8920  0.2854
 1681TIP3    H126458   3.747   1.820  14.462  0.0119 -0.2247  1.2147
 1681TIP3    H226459   3.679   1.803  14.328  1.5046 -0.2187  0.4491
 1682TIP3   OH226460   6.406   1.147  10.602  0.4109  0.6514 -0.2302
 1682TIP3    H126461   6.386   1.236  10.629 -1.3407  0.0790  0.4689
 1682TIP3    H226462   6.324   1.099  10.615  0.8801 -0.7160 -2.0867
 1683TIP3   OH226463   7.106   3.533  11.293  0.1784 -0.5651  0.0558
 1683TIP3    H126464   7.143   3.542  11.205 -1.5821  2.5473 -0.4125
 1683TIP3    H226465   7.177   3.495  11.344  1.9046 -0.5490 -2.2300
 1684TIP3   OH226466   6.136   4.749  10.716  0.0125  0.6103  0.3335
 1684TIP3    H126467   6.203   4.771  10.781  0.5522 -2.1835  0.8103
 1684TIP3    H226468   6.181   4.754  10.632  0.4214  0.2495  0.5285
 1685TIP3   OH226469   5.298   4.869  13.614 -0.0515  0.4606 -0.3099
 1685TIP3    H126470   5.299   4.915  13.698  0.7085 -0.4996  0.2167
 1685TIP3    H226471   5.315   4.938  13.550 -0.3769  1.1616  0.3409
 1686TIP3   OH226472   5.814   1.698  10.277  0.4684  0.3699  0.4745
 1686TIP3    H126473   5.903   1.724  10.252  0.9187  0.7821  2.4327
 1686TIP3    H226474   5.826   1.646  10.357 -0.7904 -2.2890 -0.9971
 1687TIP3   OH226475   5.708   3.019  10.649 -0.3604 -0.6430  0.2185
 1687TIP3    H126476   5.696   3.107  10.613 -2.2811 -1.2838 -0.7748
 1687TIP3    H226477   5.646   3.014  10.722 -1.2780 -1.6345 -0.6122
 1688TIP3   OH226478   4.415   2.166  13.037 -0.0668 -0.0677  0.1066
 1688TIP3    H126479   4.367   2.242  13.070  2.6288  2.0526 -0.6452
 1688TIP3    H226480   4.372   2.144  12.954 -0.2376  1.2806 -0.1642
 1689TIP3   OH226481   6.500   4.268  13.757  0.8641  0.7024 -0.0457
 1689TIP3    H126482   6.494   4.173  13.765 -1.4914  0.9244  1.3818
 1689TIP3    H226483   6.456   4.289  13.675 -1.5374  0.7710  1.2040
 1690TIP3   OH226484   4.847   3.382  11.680  0.1837 -0.0377  0.1740
 1690TIP3    H126485   4.807   3.381  11.594  1.5245 -0.1580 -0.4624
 1690TIP3    H226486   4.845   3.291  11.709  1.8350 -0.3809 -0.7395
 1691TIP3   OH226487   5.502   4.306  12.269 -1.1088  0.4425  0.3065
 1691TIP3    H126488   5.515   4.288  12.176 -3.4119  1.7355 -0.3263
 1691TIP3    H226489   5.414   4.345  12.273 -0.7941  0.9631  2.9401
 1692TIP3   OH226490   3.686   1.914  11.929  0.6140 -0.2289 -0.0375
 1692TIP3    H126491   3.604   1.912  11.978  1.1761 -1.1802  0.8642
 1692TIP3    H226492   3.749   1.867  11.984  0.8331 -2.8427 -2.4232
 1693TIP3   OH226493   3.177   2.300  12.479  0.0954  0.3127 -0.4019
 1693TIP3    H126494   3.243   2.363  12.510 -0.5520  0.3378  0.9456
 1693TIP3    H226495   3.227   2.220  12.462  0.4782  0.2715  0.8059
 1694TIP3   OH226496   6.049   3.502  10.809  0.3235 -0.2843  0.1190
 1694TIP3    H126497   5.963   3.541  10.792  1.3145  1.3409 -1.3384
 1694TIP3    H226498   6.053   3.427  10.750 -1.2513 -2.1876  2.3269
 1695TIP3   OH226499   5.677   3.139  11.942  0.4064 -0.0241 -0.1225
 1695TIP3    H126500   5.679   3.172  12.032 -0.9464 -1.5310  0.4789
 1695TIP3    H226501   5.654   3.215  11.889 -1.8531  0.2114  1.1505
 1696TIP3   OH226502   5.571   4.519  15.088 -0.4700 -0.3094  0.4471
 1696TIP3    H126503   5.574   4.595  15.029  0.3023 -0.8230 -0.1805
 1696TIP3    H226504   5.632   4.542  15.158  1.5266 -1.3028 -0.9174
 1697TIP3   OH226505   4.360   0.228   9.659  0.2140  1.0033 -0.0881
 1697TIP3    H126506   4.432   0.174   9.625 -0.1503  0.6533 -0.3016
 1697TIP3    H226507   4.388   0.318   9.642  0.6448  0.8731 -0.0850
 1698TIP3   OH226508   0.027   2.967   9.873  0.9488  0.1967  0.0975
 1698TIP3    H126509   0.099   2.914   9.836  1.8036  3.0156 -2.4924
 1698TIP3    H226510   0.057   2.989   9.961  2.5817  0.0088 -0.3827
 1699TIP3   OH226511   2.460   0.690  10.278 -0.6553  0.5405  0.1211
 1699TIP3    H126512   2.500   0.664  10.195  0.1893  2.2337 -0.0242
 1699TIP3    H226513   2.524   0.667  10.345 -0.3097  1.3497  0.0762
 1700TIP3   OH226514   3.060   1.785  11.546  0.0092  0.5102 -0.3122
 1700TIP3    H126515   3.087   1.863  11.498  0.8757  0.9920  0.9234
 1700TIP3    H226516   3.023   1.727  11.479  0.4090  1.5055 -1.4152
 1701TIP3   OH226517   6.349   5.930  11.308 -0.5200 -0.2597 -0.2862
 1701TIP3    H126518   6.312   6.008  11.350  0.0311  0.2874 -0.7904
 1701TIP3    H226519   6.295   5.917  11.230  0.0613  0.2758 -0.7850
 1702TIP3   OH226520   0.192   6.483  12.683 -0.0406 -0.4571 -0.4781
 1702TIP3    H126521   0.142   6.507  12.605  0.1577 -0.3453 -0.5724
 1702TIP3    H226522   0.260   6.551  12.689  0.2259 -0.7255 -0.4694
 1703TIP3   OH226523   7.078   0.339  11.865  0.0550 -0.2019  0.8315
 1703TIP3    H126524   7.165   0.338  11.824  0.2879 -1.0758  1.3210
 1703TIP3    H226525   7.044   0.427  11.847  0.2884 -0.4441 -0.9339
 1704TIP3   OH226526   4.792   2.199  13.782 -1.3871  0.3304  1.1088
 1704TIP3    H126527   4.731   2.171  13.713 -2.6914  0.1836  2.3039
 1704TIP3    H226528   4.822   2.286  13.754 -1.2433 -0.0939 -0.0719
 1705TIP3   OH226529   3.575   1.272  11.708  0.3637  0.3796  0.2180
 1705TIP3    H126530   3.644   1.291  11.770 -0.0141  2.5566  0.0007
 1705TIP3    H226531   3.606   1.308  11.625  0.0571 -0.8559 -0.4545
 1706TIP3   OH226532   1.625   3.522  11.484  0.0274  0.7821 -0.2149
 1706TIP3    H126533   1.561   3.586  11.513  1.4082  1.9756  0.2847
 1706TIP3    H226534   1.710   3.563  11.503  0.9329 -0.7284 -0.9040
 1707TIP3   OH226535   6.175   3.729   9.615 -0.0743  0.0101  0.0972
 1707TIP3    H126536   6.171   3.753   9.522 -0.6209  0.4155  0.2220
 1707TIP3    H226537   6.133   3.643   9.620 -1.4891  0.6934  0.2025
 1708TIP3   OH226538   6.667   4.282   9.597  0.2379 -0.1968 -0.2647
 1708TIP3    H126539   6.597   4.341   9.567 -0.2649 -0.8661 -0.4129
 1708TIP3    H226540   6.623   4.221   9.655  0.9460  0.1845  0.6798
 1709TIP3   OH226541   6.317   3.926  11.056  0.0305  0.0609 -0.3638
 1709TIP3    H126542   6.249   3.985  11.026  0.0103  0.1223 -0.1948
 1709TIP3    H226543   6.348   3.882  10.976 -1.0506 -0.8600 -0.2818
 1710TIP3   OH226544   4.901   0.529  11.275  0.0473 -0.3313  0.0333
 1710TIP3    H126545   4.972   0.590  11.295 -2.0316  2.5926 -1.1037
 1710TIP3    H226546   4.899   0.524  11.179 -1.2446 -0.4063  0.0508
 1711TIP3   OH226547   7.108   2.439  13.869 -0.4767 -0.2049  0.2327
 1711TIP3    H126548   7.098   2.358  13.918 -0.1035  0.1430  0.8955
 1711TIP3    H226549   7.184   2.482  13.910 -1.1880  0.8642  0.4345
 1712TIP3   OH226550   5.192   6.150  12.138  0.1971 -0.0608  0.0598
 1712TIP3    H126551   5.140   6.223  12.171 -0.8876 -0.6312 -0.3710
 1712TIP3    H226552   5.209   6.096  12.215  0.8264  0.5274  0.3424
 1713TIP3   OH226553   6.414   2.540  10.469 -0.2545 -1.0054  0.0721
 1713TIP3    H126554   6.331   2.495  10.485 -0.6824 -0.1063  0.4135
 1713TIP3    H226555   6.447   2.503  10.387 -2.7076  1.0900 -1.9502
 1714TIP3   OH226556   5.145   0.752  12.994 -0.0807  0.6499 -0.3562
 1714TIP3    H126557   5.123   0.820  12.931  0.4756 -0.0287 -1.2990
 1714TIP3    H226558   5.227   0.780  13.034 -0.3594  1.0063 -0.0256
 1715TIP3   OH226559   1.618   1.306  12.871  0.1682  0.2423 -0.4563
 1715TIP3    H126560   1.670   1.289  12.949  1.7945  0.3891 -1.4898
 1715TIP3    H226561   1.581   1.220  12.848 -1.2314  0.4064  1.0880
 1716TIP3   OH226562   6.212   2.663   9.998 -0.4880  1.2370  0.7326
 1716TIP3    H126563   6.203   2.753   9.966 -1.5873  1.4887  1.7105
 1716TIP3    H226564   6.284   2.666  10.060  1.3894  0.8320 -1.3863
 1717TIP3   OH226565   0.031   1.447  10.396  0.5913 -0.3714  0.5157
 1717TIP3    H126566   0.090   1.500  10.342  1.2714 -1.3873  0.2405
 1717TIP3    H226567  -0.056   1.478  10.374  0.9912  0.7375  0.4713
 1718TIP3   OH226568   4.644   2.613   1.464  0.1952 -0.5308  0.4225
 1718TIP3    H126569   4.675   2.673   1.396  0.8287 -0.2941  0.9142
 1718TIP3    H226570   4.671   2.653   1.546 -0.6900 -0.7455  0.8287
 1719TIP3   OH226571   7.116   1.196  10.072 -0.5292  0.1074 -0.6749
 1719TIP3    H126572   7.153   1.181  10.159 -1.0554 -0.1306 -0.4884
 1719TIP3    H226573   7.024   1.172  10.081 -0.8615  1.2468 -0.9919
 1720TIP3   OH226574   4.821   4.322  12.548  0.2941 -0.5685 -0.3394
 1720TIP3    H126575   4.753   4.257  12.536 -0.9902  0.2232  2.2175
 1720TIP3    H226576   4.885   4.280  12.606  0.6939 -0.4044 -0.6510
 1721TIP3   OH226577   5.876   3.505  11.509 -0.6095 -0.1220 -0.6699
 1721TIP3    H126578   5.875   3.420  11.466  1.3824 -0.6964  0.3549
 1721TIP3    H226579   5.825   3.492  11.589  1.2653 -0.9210  0.4385
 1722TIP3   OH226580   5.806   3.363   9.945 -0.4856 -0.0567  0.1828
 1722TIP3    H126581   5.831   3.361   9.852  0.8206  1.0952  0.4835
 1722TIP3    H226582   5.711   3.356   9.945 -0.4585 -0.5690 -1.2213
 1723TIP3   OH226583   1.650   4.926  11.621  0.4275  0.6558  0.5530
 1723TIP3    H126584   1.741   4.905  11.642  0.5718  1.0640  0.3302
 1723TIP3    H226585   1.652   4.961  11.533 -0.2702 -1.6404 -0.4240
 1724TIP3   OH226586   5.628   3.245   9.556  0.3864 -0.0399 -0.0510
 1724TIP3    H126587   5.720   3.227   9.574  0.4143  0.8818  0.7887
 1724TIP3    H226588   5.630   3.326   9.504  0.0206  0.4896  0.7384
 1725TIP3   OH226589   2.525   1.114   0.935  0.2839 -0.3266  0.4803
 1725TIP3    H126590   2.486   1.201   0.936 -1.7068 -1.1673 -1.1216
 1725TIP3    H226591   2.565   1.105   1.021 -3.4920  0.4049  2.4100
 1726TIP3   OH226592   2.674   4.857  12.676  0.2273  0.0147 -0.0110
 1726TIP3    H126593   2.628   4.773  12.686 -0.2620  0.1491 -1.0424
 1726TIP3    H226594   2.605   4.919  12.653  0.4670  0.8768  1.5167
 1727TIP3   OH226595   6.232   5.349  13.351  0.2142 -0.3556  0.0267
 1727TIP3    H126596   6.150   5.299  13.354 -0.1538  0.3026  1.4058
 1727TIP3    H226597   6.272   5.335  13.437  2.5398 -2.2649 -1.3109
 1728TIP3   OH226598   2.851   0.882  11.179  0.5178 -0.2204 -0.6068
 1728TIP3    H126599   2.899   0.943  11.124 -0.1507  0.1398 -0.7850
 1728TIP3    H226600   2.919   0.832  11.225  1.0631  0.9807 -0.0926
 1729TIP3   OH226601   3.716   4.295  12.764 -0.2179  0.4425  0.3582
 1729TIP3    H126602   3.685   4.265  12.850 -2.2557  1.3220 -0.0486
 1729TIP3    H226603   3.732   4.214  12.715  1.2929 -0.0760  1.6504
 1730TIP3   OH226604   0.338   4.235  11.671 -0.3194  0.3048 -0.0997
 1730TIP3    H126605   0.260   4.289  11.655 -0.9223 -0.4298  0.3544
 1730TIP3    H226606   0.317   4.150  11.632  0.7290  0.4589 -1.0281
 1731TIP3   OH226607   5.018   6.461  10.122  0.3730  0.5595  0.3655
 1731TIP3    H126608   4.952   6.530  10.125 -0.1969 -0.0234  1.5404
 1731TIP3    H226609   4.974   6.387  10.080  1.0809  0.9953 -1.1866
 1732TIP3   OH226610   5.202   1.166   9.447 -0.3321  0.4716  0.2280
 1732TIP3    H126611   5.203   1.218   9.527  2.2517  1.3379 -0.3245
 1732TIP3    H226612   5.294   1.144   9.432 -1.2833 -3.7759  0.1202
 1733TIP3   OH226613   6.454   1.544   9.465  0.4213  0.4383  0.4425
 1733TIP3    H126614   6.441   1.631   9.500  0.0335  0.3707  0.4617
 1733TIP3    H226615   6.547   1.525   9.481  1.0228  1.6648 -1.3947
 1734TIP3   OH226616   4.159   3.435  10.726 -0.4647 -0.0405  0.0621
 1734TIP3    H126617   4.159   3.339  10.727  0.9934 -0.0596 -0.8499
 1734TIP3    H226618   4.247   3.460  10.751 -0.5621  1.0530 -0.6103
 1735TIP3   OH226619   7.044   6.122  13.217  0.5734  0.5937  0.1763
 1735TIP3    H126620   7.076   6.099  13.130  2.7520 -0.8081  1.3230
 1735TIP3    H226621   6.952   6.145  13.203  0.9451  0.6002 -2.5162
 1736TIP3   OH226622   2.068   1.163  10.115 -0.3393 -0.2916 -0.2200
 1736TIP3    H126623   2.059   1.093  10.051 -1.8439 -0.6793  0.3908
 1736TIP3    H226624   1.979   1.178  10.147  0.3822 -0.1324  1.7958
 1737TIP3   OH226625   6.232   3.189  12.504  0.2028  0.4935 -0.1327
 1737TIP3    H126626   6.292   3.232  12.442 -0.9722  0.6965 -1.1400
 1737TIP3    H226627   6.281   3.112  12.534  0.7838  0.3782 -1.3258
 1738TIP3   OH226628   3.092   5.364  14.823 -0.4400  0.5833  0.0098
 1738TIP3    H126629   3.135   5.283  14.851 -2.0317  0.0842  1.0382
 1738TIP3    H226630   3.126   5.431  14.883 -1.1978  0.1518  0.9451
 1739TIP3   OH226631   1.412   3.176  11.045  0.3249  0.8081  0.0120
 1739TIP3    H126632   1.398   3.238  11.116  2.8317  1.3795  0.0572
 1739TIP3    H226633   1.380   3.221  10.967 -3.3609 -0.2050  0.8431
 1740TIP3   OH226634   6.179   4.340  12.618 -0.0237  0.0029  0.5235
 1740TIP3    H126635   6.102   4.364  12.565  0.2536 -0.9602 -0.3214
 1740TIP3    H226636   6.253   4.379  12.570 -0.0702  1.9284  1.9469
 1741TIP3   OH226637   4.832   1.540  13.729  0.3790 -0.2683 -0.8457
 1741TIP3    H126638   4.835   1.607  13.661 -0.0664 -0.0259 -0.6323
 1741TIP3    H226639   4.888   1.573  13.799  2.9128 -1.7092 -2.1434
 1742TIP3   OH226640   6.907   1.521  12.940  0.4357  0.1097  0.1873
 1742TIP3    H126641   6.902   1.616  12.941  2.3487  0.2794 -2.2068
 1742TIP3    H226642   6.880   1.494  13.028 -3.0581  2.6689 -0.0057
 1743TIP3   OH226643   1.858   3.421  12.462 -0.4875 -0.2964 -0.2161
 1743TIP3    H126644   1.870   3.398  12.370  0.1203 -2.9897  0.4981
 1743TIP3    H226645   1.775   3.469  12.464 -1.2209 -1.4492 -1.9815
 1744TIP3   OH226646   0.496   1.707  13.773 -0.0278  0.9836 -0.2644
 1744TIP3    H126647   0.492   1.650  13.696  0.1146  2.1000 -1.1164
 1744TIP3    H226648   0.412   1.695  13.816 -0.2425  0.5962 -0.7864
 1745TIP3   OH226649   5.260   3.086  12.050 -0.7313  0.0923 -0.5617
 1745TIP3    H126650   5.290   3.102  11.960 -0.5819 -0.8257 -0.6832
 1745TIP3    H226651   5.337   3.103  12.104 -0.9103  0.9553 -0.5854
 1746TIP3   OH226652   3.121   4.191  11.843  0.0670 -0.2661  0.6119
 1746TIP3    H126653   3.097   4.107  11.804 -1.0345  0.0629  0.5725
 1746TIP3    H226654   3.209   4.209  11.808 -0.7288 -0.1776 -1.3861
 1747TIP3   OH226655   6.974   5.948  13.736 -0.0284 -0.8056 -0.2339
 1747TIP3    H126656   7.056   5.959  13.688  0.5516 -0.9518  0.7098
 1747TIP3    H226657   6.930   5.874  13.693  0.0447 -0.3340 -1.1289
 1748TIP3   OH226658   5.531   2.120  12.570  0.2831  0.2416 -0.1821
 1748TIP3    H126659   5.608   2.128  12.626 -0.5974  1.7050  0.8493
 1748TIP3    H226660   5.502   2.030  12.584  0.7245  0.2473  0.8776
 1749TIP3   OH226661   4.600   2.922  10.542 -0.6968 -0.6584  0.4836
 1749TIP3    H126662   4.605   2.951  10.451 -0.6230 -0.8638  0.4218
 1749TIP3    H226663   4.599   2.826  10.537  1.4919 -0.7387  0.7967
 1750TIP3   OH226664   3.660   4.160  11.606  0.1284 -0.0566  0.1971
 1750TIP3    H126665   3.652   4.068  11.630  0.4788 -0.2762 -0.5242
 1750TIP3    H226666   3.753   4.173  11.589 -0.1217  0.0627 -1.1507
 1751TIP3   OH226667   6.205   1.389  10.339  0.4963 -0.4657  0.4430
 1751TIP3    H126668   6.154   1.414  10.262  1.6366  0.9917  0.1481
 1751TIP3    H226669   6.206   1.467  10.394 -0.0746 -1.4101  1.8175
 1752TIP3   OH226670   3.460   3.236  13.167 -0.2961 -0.0981  0.2055
 1752TIP3    H126671   3.531   3.200  13.221  0.2170 -0.0008 -0.3918
 1752TIP3    H226672   3.405   3.160  13.146  0.3581 -0.4121 -0.4114
 1753TIP3   OH226673   0.703   0.500  11.616  0.8343 -0.5651 -0.3058
 1753TIP3    H126674   0.618   0.492  11.573  1.5324 -0.1409 -1.8215
 1753TIP3    H226675   0.722   0.594  11.615  1.7992 -0.7559 -0.9652
 1754TIP3   OH226676   4.871   0.301  11.443  0.2950  0.7952  0.1156
 1754TIP3    H126677   4.958   0.319  11.480  0.3545 -0.3477  0.5651
 1754TIP3    H226678   4.854   0.375  11.385  1.5023  1.1092  0.1397
 1755TIP3   OH226679   0.422   4.307   9.875 -0.2504  0.3445  0.5266
 1755TIP3    H126680   0.344   4.356   9.902 -0.5838 -0.1200  0.4142
 1755TIP3    H226681   0.458   4.357   9.802 -0.3952  0.6051  0.6342
 1756TIP3   OH226682   5.572   0.833  12.208 -0.0936  0.3405 -0.3149
 1756TIP3    H126683   5.481   0.860  12.219 -0.0350  0.3946  0.0306
 1756TIP3    H226684   5.579   0.811  12.115 -0.7173 -0.5971 -0.1482
 1757TIP3   OH226685   2.405   3.129  15.170 -0.0349 -0.0129 -0.0051
 1757TIP3    H126686   2.432   3.047  15.210  2.9717  0.1161 -1.5934
 1757TIP3    H226687   2.388   3.106  15.079 -1.0900  0.7579  0.0000
 1758TIP3   OH226688   4.813   4.418   9.744  0.7004  0.3033  0.5147
 1758TIP3    H126689   4.832   4.448   9.655  1.0066  1.8576  1.0927
 1758TIP3    H226690   4.719   4.434   9.755  0.1343 -2.1014 -0.3326
 1759TIP3   OH226691   0.605   4.741  10.883 -0.5450 -0.4935 -0.2805
 1759TIP3    H126692   0.561   4.771  10.963  0.9074  0.8117  0.0504
 1759TIP3    H226693   0.568   4.795  10.814 -0.0652  0.0403 -0.1233
 1760TIP3   OH226694   6.759   4.758  10.398 -0.1778  0.4889 -0.3794
 1760TIP3    H126695   6.749   4.687  10.462  1.0351  0.8169  0.1970
 1760TIP3    H226696   6.835   4.732  10.346 -0.8570  0.4699 -1.3731
 1761TIP3   OH226697   4.245   1.969  11.933 -0.0227  0.3651 -0.7675
 1761TIP3    H126698   4.303   1.894  11.941  0.5622  0.7337 -1.4652
 1761TIP3    H226699   4.159   1.936  11.960  0.0996 -0.7185 -1.6644
 1762TIP3   OH226700   0.706   7.020  12.058 -0.2248  0.5387  0.2628
 1762TIP3    H126701   0.660   7.088  12.108 -1.0501 -1.0755  1.7810
 1762TIP3    H226702   0.797   7.026  12.087 -0.7893 -0.7072  2.4069
 1763TIP3   OH226703   4.536   4.231   9.892  0.8568  0.1857 -0.4797
 1763TIP3    H126704   4.442   4.217   9.901  0.5839  1.4902 -1.0987
 1763TIP3    H226705   4.543   4.320   9.857  2.4297  1.2447  2.4214
 1764TIP3   OH226706   4.560   1.339  10.849  0.2915  0.0317 -0.1255
 1764TIP3    H126707   4.652   1.330  10.874  0.4416 -0.8472 -0.9859
 1764TIP3    H226708   4.534   1.253  10.817 -0.1335  0.8816 -2.1991
 1765TIP3   OH226709   6.202   2.936   9.394  0.6153 -0.2508  0.0605
 1765TIP3    H126710   6.252   2.894   9.465  0.1684 -3.4641 -1.4303
 1765TIP3    H226711   6.262   2.937   9.320 -0.1793 -0.4372 -0.5897
 1766TIP3   OH226712   1.847   4.294  14.663 -0.3427 -1.0308 -0.2525
 1766TIP3    H126713   1.906   4.271  14.591  0.8573  0.2758  0.2906
 1766TIP3    H226714   1.806   4.212  14.688  0.0604 -1.6835 -1.6911
 1767TIP3   OH226715   0.773   3.053  12.198 -0.2960  0.1437 -0.0261
 1767TIP3    H126716   0.711   3.060  12.271 -1.3589  1.0338 -0.9965
 1767TIP3    H226717   0.771   3.140  12.157  2.6185  0.6282  0.7360
 1768TIP3   OH226718   1.547   3.862  12.199  0.3180 -0.3857 -0.4305
 1768TIP3    H126719   1.507   3.944  12.171  0.0535 -1.0726 -2.1127
 1768TIP3    H226720   1.489   3.829  12.268  0.2632  0.6726  0.0468
 1769TIP3   OH226721   6.142   2.105  12.041  0.6316  0.5107 -0.0888
 1769TIP3    H126722   6.226   2.110  11.995  1.7942 -0.6985  1.8213
 1769TIP3    H226723   6.164   2.122  12.132 -1.1142 -0.4050  0.5213
 1770TIP3   OH226724   6.566   1.907  10.012 -0.6832 -0.4465  0.3083
 1770TIP3    H126725   6.473   1.919   9.993 -0.7686 -0.0301  0.9807
 1770TIP3    H226726   6.609   1.920   9.927 -1.3309 -1.8292 -0.2420
 1771TIP3   OH226727   0.400   4.688   0.505  0.1390  0.2992  0.0350
 1771TIP3    H126728   0.332   4.624   0.487  0.1135  0.3920 -0.2010
 1771TIP3    H226729   0.439   4.707   0.419  0.2355  0.4968  0.1219
 1772TIP3   OH226730   2.312   3.916  10.595  0.2088  0.9633 -0.3754
 1772TIP3    H126731   2.401   3.939  10.569  0.1952  0.5285 -0.8151
 1772TIP3    H226732   2.315   3.822  10.610 -0.0343  1.0447  0.1986
 1773TIP3   OH226733   6.820   4.310  12.531 -0.1267 -0.2441  0.0305
 1773TIP3    H126734   6.891   4.298  12.468  0.4472 -1.3803  0.8859
 1773TIP3    H226735   6.861   4.356  12.604 -0.4771 -0.1632  0.1778
 1774TIP3   OH226736   5.655   0.881  13.566  0.0449 -0.5608 -0.4304
 1774TIP3    H126737   5.602   0.803  13.577  1.8816 -1.9069 -0.8725
 1774TIP3    H226738   5.599   0.942  13.518 -1.7364 -1.2408  0.7564
 1775TIP3   OH226739   2.091   6.368  14.931 -0.3234 -0.1521  0.2073
 1775TIP3    H126740   2.093   6.419  15.012 -0.0828 -0.2988  0.2941
 1775TIP3    H226741   2.121   6.281  14.957 -0.3196 -0.2197 -0.0261
 1776TIP3   OH226742   5.933   3.041  11.500  0.4123  0.0254 -0.8346
 1776TIP3    H126743   5.883   2.968  11.463 -0.1988  0.8674 -1.6728
 1776TIP3    H226744   5.914   3.038  11.594  0.4010 -0.9040 -0.8639
 1777TIP3   OH226745   0.404   3.588  12.293  0.0146 -0.2835 -0.1992
 1777TIP3    H126746   0.439   3.639  12.367 -0.4493 -0.3110  0.0418
 1777TIP3    H226747   0.476   3.529  12.269  0.1012 -0.4127  0.3625
 1778TIP3   OH226748   2.279   4.089  12.718 -0.6255  0.2889 -0.0691
 1778TIP3    H126749   2.194   4.045  12.719 -0.6443  0.2169 -1.7915
 1778TIP3    H226750   2.310   4.085  12.808 -2.6342  0.6815  0.6618
 1779TIP3   OH226751   0.637   3.238  10.115  0.6466  0.1509 -0.2442
 1779TIP3    H126752   0.611   3.301  10.183  0.0088  2.1260 -2.2779
 1779TIP3    H226753   0.702   3.284  10.063 -0.9727 -0.2730 -2.7210
 1780TIP3   OH226754   1.842   5.431  11.714 -0.2690 -0.3942  0.7847
 1780TIP3    H126755   1.923   5.408  11.670  0.7423 -1.1120  2.9242
 1780TIP3    H226756   1.784   5.356  11.700  1.1788 -2.0602  3.3267
 1781TIP3   OH226757   4.266   1.850  11.644  0.3844  0.0645  0.1032
 1781TIP3    H126758   4.234   1.811  11.725 -0.5917  2.2638  0.8350
 1781TIP3    H226759   4.355   1.879  11.666  0.3062  0.2046  0.2374
 1782TIP3   OH226760   6.395   3.669  10.097 -0.2065  0.4114 -0.1696
 1782TIP3    H126761   6.338   3.609  10.145 -1.1955  1.1306 -0.4256
 1782TIP3    H226762   6.425   3.618  10.021 -0.4649  0.0091 -0.0049
 1783TIP3   OH226763   5.838   3.412  10.406  0.4727  0.4620  0.6621
 1783TIP3    H126764   5.789   3.488  10.376  2.2513  1.4004  0.0514
 1783TIP3    H226765   5.781   3.337  10.388  0.5286  1.2061 -2.9005
 1784TIP3   OH226766   5.653   2.602  11.319  0.5421  0.6389 -0.1395
 1784TIP3    H126767   5.679   2.510  11.324 -0.5604  0.4422  2.3626
 1784TIP3    H226768   5.681   2.630  11.231  0.0760 -2.3054 -1.2572
 1785TIP3   OH226769   2.063   4.735  11.450  0.1229 -0.5335  0.2218
 1785TIP3    H126770   2.098   4.646  11.459  1.0747 -0.1790  0.0728
 1785TIP3    H226771   2.133   4.784  11.408 -0.4568  0.2606  0.1764
 1786TIP3   OH226772   2.174   6.354   9.926  0.2589  0.2465 -0.1174
 1786TIP3    H126773   2.103   6.397   9.878  0.8335  0.2739 -0.9479
 1786TIP3    H226774   2.133   6.276   9.963 -0.0707 -0.0566 -1.0957
 1787TIP3   OH226775   7.097   4.109  10.641 -0.2083 -0.0842  0.1202
 1787TIP3    H126776   7.011   4.088  10.606  0.8086 -0.8115 -2.0321
 1787TIP3    H226777   7.080   4.141  10.730 -2.9190  2.3412 -1.2008
 1788TIP3   OH226778   1.953   0.334  11.105 -0.0223 -0.2546  0.3698
 1788TIP3    H126779   1.952   0.319  11.011  1.2026 -1.0259  0.4702
 1788TIP3    H226780   1.937   0.248  11.144 -0.0982 -0.0161  0.8702
 1789TIP3   OH226781   6.085   5.841  11.450  0.2009  0.0519  0.2705
 1789TIP3    H126782   6.079   5.836  11.354 -0.3394  0.2871  0.2920
 1789TIP3    H226783   6.141   5.768  11.474  0.6100  0.1878 -0.2556
 1790TIP3   OH226784   0.743   5.402  11.336  0.7981  0.2140 -0.6085
 1790TIP3    H126785   0.757   5.451  11.255  0.5809 -0.0148 -0.7846
 1790TIP3    H226786   0.679   5.453  11.385  0.9348  0.3562 -0.5781
 1791TIP3   OH226787   2.688   0.608  10.458 -0.4210 -0.2741  0.4972
 1791TIP3    H126788   2.682   0.535  10.520 -0.3635 -0.1348  0.6659
 1791TIP3    H226789   2.774   0.647  10.475  0.2809 -1.2163 -0.7479
 1792TIP3   OH226790   6.830   6.856  12.279  0.7242 -0.1252  0.2593
 1792TIP3    H126791   6.794   6.922  12.339  2.3791  0.3496  0.7614
 1792TIP3    H226792   6.807   6.888  12.192 -0.5563 -0.1358  0.5795
 1793TIP3   OH226793   3.121   3.079  11.041 -0.2493  0.7025  0.5990
 1793TIP3    H126794   3.152   3.096  11.130 -0.5655  1.1751  0.6213
 1793TIP3    H226795   3.035   3.039  11.052  0.0952 -0.0675  0.5219
 1794TIP3   OH226796   6.659   2.595  14.314  0.2032  0.0858 -0.3931
 1794TIP3    H126797   6.589   2.532  14.333 -0.8077  1.2294 -0.3275
 1794TIP3    H226798   6.739   2.548  14.337 -0.3614 -2.0178 -2.4837
 1795TIP3   OH226799   0.817   0.731  10.426  0.1951  0.1760 -0.3210
 1795TIP3    H126800   0.903   0.723  10.468  0.0279  1.3263  0.2756
 1795TIP3    H226801   0.756   0.694  10.489  0.3291 -1.4336 -1.1080
 1796TIP3   OH226802   2.611   5.055  14.622  0.1176 -0.1606  0.0878
 1796TIP3    H126803   2.641   4.967  14.646  0.3961 -0.3431 -0.8966
 1796TIP3    H226804   2.572   5.044  14.536 -0.9611  0.4688  0.4869
 1797TIP3   OH226805   6.905   0.758  11.439  0.3653 -0.4246  0.0820
 1797TIP3    H126806   6.956   0.751  11.520  0.2848  1.7882  0.3419
 1797TIP3    H226807   6.814   0.750  11.468  0.2650  1.5977  0.4035
 1798TIP3   OH226808   7.004   2.635  10.552 -0.2957  0.3331 -0.1526
 1798TIP3    H126809   6.916   2.609  10.525 -1.2023  2.1569  0.9027
 1798TIP3    H226810   7.017   2.592  10.636 -0.1937  0.1111 -0.2811
 1799TIP3   OH226811   4.463   4.636  10.943  0.2135  0.1231  0.0422
 1799TIP3    H126812   4.521   4.561  10.957  0.8921  0.1639 -2.3289
 1799TIP3    H226813   4.420   4.618  10.859 -1.5939  1.1310  0.7304
 1800TIP3   OH226814   7.033   5.333  13.691 -0.1023 -0.0232  0.9635
 1800TIP3    H126815   7.053   5.418  13.729 -1.5279  0.4718  0.6495
 1800TIP3    H226816   7.097   5.322  13.621 -0.9319  1.5172 -0.0557
 1801TIP3   OH226817   5.574   2.557  10.700  0.6758  0.0412  0.4166
 1801TIP3    H126818   5.486   2.590  10.714  0.1462 -1.1287 -0.0730
 1801TIP3    H226819   5.621   2.629  10.657  0.0915  0.8165  1.0821
 1802TIP3   OH226820   6.833   3.733  11.580  0.0242  0.3136 -0.3015
 1802TIP3    H126821   6.867   3.714  11.493  0.9997 -0.4505  0.2439
 1802TIP3    H226822   6.741   3.707  11.576 -0.3466  1.7380 -1.5736
 1803TIP3   OH226823   5.927   7.123  13.387  0.1693  0.5782  0.0744
 1803TIP3    H126824   5.936   7.211  13.351  1.2614  0.6492  0.5247
 1803TIP3    H226825   5.930   7.066  13.310  0.4824  0.8610 -0.1234
 1804TIP3   OH226826   0.790   1.671  12.914  0.8107 -0.6271 -0.2629
 1804TIP3    H126827   0.831   1.599  12.866  2.7325 -0.5312  1.1745
 1804TIP3    H226828   0.750   1.630  12.991 -0.1754 -0.4701 -0.6876
 1805TIP3   OH226829   0.255   2.880  12.166 -0.1145 -0.4120 -0.0482
 1805TIP3    H126830   0.268   2.876  12.261 -0.3846 -0.7651 -0.0256
 1805TIP3    H226831   0.165   2.909  12.155 -0.1255 -0.5065 -0.1982
 1806TIP3   OH226832   3.594   2.724  15.354 -0.2593  0.3503 -0.0289
 1806TIP3    H126833   3.587   2.718  15.259 -0.1446 -0.6376  0.0206
 1806TIP3    H226834   3.672   2.672  15.376 -0.5376  0.2022  0.6378
 1807TIP3   OH226835   5.844   4.493  10.324 -0.4666 -0.4187 -0.3826
 1807TIP3    H126836   5.929   4.519  10.288 -0.3949 -2.4898 -1.8544
 1807TIP3    H226837   5.783   4.503  10.250 -1.4004  0.4846  0.4970
 1808TIP3   OH226838   6.994   3.897  10.001 -0.5500 -0.6114  0.0332
 1808TIP3    H126839   6.953   3.931   9.922  0.3933 -1.0066 -0.6288
 1808TIP3    H226840   7.022   3.809   9.979  0.4688 -0.4294  0.5385
 1809TIP3   OH226841   0.239   2.414  10.202 -0.4150 -0.3343  0.4478
 1809TIP3    H126842   0.199   2.430  10.288  1.2137  0.3745  1.1013
 1809TIP3    H226843   0.317   2.362  10.222  0.9084  1.2734 -0.3955
 1810TIP3   OH226844   2.507   2.183  11.961 -0.3915  0.6831 -0.2542
 1810TIP3    H126845   2.587   2.229  11.985 -0.3363  1.0459 -1.0919
 1810TIP3    H226846   2.500   2.111  12.023  1.2111 -0.0469 -0.9043
 1811TIP3   OH226847   1.507   6.824  12.518  1.0602 -1.0290 -0.9716
 1811TIP3    H126848   1.436   6.843  12.457  1.5556 -0.1520 -1.2785
 1811TIP3    H226849   1.463   6.785  12.594  0.3268 -1.1021 -1.4253
 1812TIP3   OH226850   4.796   0.834  10.492  0.2222 -0.4612 -0.6877
 1812TIP3    H126851   4.715   0.783  10.498 -0.7237  1.0090 -0.6160
 1812TIP3    H226852   4.853   0.783  10.435  0.0017 -2.4953  0.8638
 1813TIP3   OH226853   4.572   4.908  11.180 -0.2195 -0.0612  0.0500
 1813TIP3    H126854   4.533   4.925  11.093 -1.1607 -0.7809  0.3231
 1813TIP3    H226855   4.531   4.973  11.237 -0.9699 -0.7578  0.3187
 1814TIP3   OH226856   3.837   3.225  10.579  0.0637  0.5502 -0.3562
 1814TIP3    H126857   3.920   3.272  10.584  0.2623  0.2596 -0.8322
 1814TIP3    H226858   3.835   3.189  10.490 -0.2193 -0.0895 -0.0955
 1815TIP3   OH226859   3.591   3.081  10.632  0.3752 -0.2572  0.1310
 1815TIP3    H126860   3.674   3.058  10.591  0.7116  1.7772 -0.4090
 1815TIP3    H226861   3.613   3.106  10.721  0.8160  2.9503 -0.7851
 1816TIP3   OH226862   0.162   1.861  10.848 -0.0116  0.5099 -0.2725
 1816TIP3    H126863   0.149   1.931  10.911  0.0052  0.2597  0.0098
 1816TIP3    H226864   0.207   1.903  10.774 -0.1905  0.8382 -0.1926
 1817TIP3   OH226865   6.872   2.641  11.297 -0.2495  0.0208 -0.6663
 1817TIP3    H126866   6.899   2.680  11.380 -1.1564 -0.3925 -0.1635
 1817TIP3    H226867   6.835   2.556  11.321  2.3151 -1.4786 -1.8038
 1818TIP3   OH226868   1.794   6.052   9.697 -0.0397 -0.2588  0.3628
 1818TIP3    H126869   1.854   6.041   9.624 -2.4907  0.0649 -1.7843
 1818TIP3    H226870   1.800   5.971   9.747  1.3796 -0.6299 -0.4105
 1819TIP3   OH226871   0.676   2.835  12.672  0.3092 -0.5009 -0.6953
 1819TIP3    H126872   0.611   2.900  12.646 -0.1641 -0.7865 -0.2283
 1819TIP3    H226873   0.625   2.764  12.713  0.9915 -0.2575  0.6197
 1820TIP3   OH226874   0.907   1.219  10.327 -0.1522  0.8252 -0.3502
 1820TIP3    H126875   0.829   1.165  10.316 -0.3435  0.9712  0.2975
 1820TIP3    H226876   0.917   1.229  10.422  0.4256  1.1335 -0.4387
 1821TIP3   OH226877   1.886   2.599  12.113  0.1100  0.4001  0.0916
 1821TIP3    H126878   1.976   2.608  12.081 -0.2460  1.9997 -0.4736
 1821TIP3    H226879   1.873   2.672  12.173 -0.8417  0.2433  0.0956
 1822TIP3   OH226880   6.262   3.912  11.340  0.3138  0.1827 -1.0178
 1822TIP3    H126881   6.186   3.968  11.320  1.2166  1.2212 -1.5940
 1822TIP3    H226882   6.319   3.921  11.264  0.3196 -1.8127 -1.2585
 1823TIP3   OH226883   1.060   4.729  10.018 -0.0854 -0.2300  0.0392
 1823TIP3    H126884   0.991   4.667   9.997 -0.9524 -0.3236  2.8780
 1823TIP3    H226885   1.137   4.695   9.973 -0.6455 -3.1610  1.1237
 1824TIP3   OH226886   1.437   0.677  11.311 -0.2047 -0.3011 -0.3412
 1824TIP3    H126887   1.477   0.759  11.342 -0.9140 -0.4524  1.0138
 1824TIP3    H226888   1.385   0.647  11.385 -0.9726 -1.3180 -1.2864
 1825TIP3   OH226889   0.116   6.581  13.868  0.8710 -0.0221 -0.3632
 1825TIP3    H126890   0.026   6.594  13.837  0.3993 -1.0334  0.5444
 1825TIP3    H226891   0.171   6.607  13.794 -0.1610  0.7702 -0.8677
 1826TIP3   OH226892   2.467   4.920  10.273  0.1993 -0.0880 -0.1551
 1826TIP3    H126893   2.473   4.943  10.181 -0.7299 -0.6453 -0.3575
 1826TIP3    H226894   2.558   4.911  10.302  0.5303  1.4702 -0.6639
 1827TIP3   OH226895   6.682   2.611  12.384  0.0063 -0.2830  0.3049
 1827TIP3    H126896   6.647   2.550  12.449  2.7951  0.1717  2.3492
 1827TIP3    H226897   6.696   2.556  12.306 -0.8873 -1.4547  0.9504
 1828TIP3   OH226898   5.448   3.993  11.928  0.7560 -0.1754  0.4027
 1828TIP3    H126899   5.398   3.919  11.963  0.4942  0.8856  2.3608
 1828TIP3    H226900   5.408   4.011  11.843 -0.5654 -0.9117  0.8560
 1829TIP3   OH226901   2.406   5.209  10.440  0.0588 -0.4227  0.1412
 1829TIP3    H126902   2.367   5.233  10.356  0.9037 -1.5353 -0.5804
 1829TIP3    H226903   2.477   5.271  10.453 -0.0110 -0.3123 -0.0084
 1830TIP3   OH226904   3.108   5.300  11.213 -0.7655 -0.2131 -0.4013
 1830TIP3    H126905   3.136   5.366  11.277  0.0642 -0.0337 -0.9360
 1830TIP3    H226906   3.166   5.225  11.230  0.7886  0.5238 -2.1918
 1831TIP3   OH226907   0.089   6.314   9.943 -0.3276  0.3826  0.4369
 1831TIP3    H126908   0.037   6.293  10.021 -0.9344  2.2961  0.5714
 1831TIP3    H226909   0.041   6.273   9.871  0.0580 -1.1115  1.0143
 1832TIP3   OH226910   1.418   0.376  12.170  0.0420  0.0536 -0.0313
 1832TIP3    H126911   1.334   0.347  12.134 -0.8195  1.9336  0.3661
 1832TIP3    H226912   1.483   0.324  12.124 -1.3275 -1.3883 -0.4103
 1833TIP3   OH226913   2.944   3.446  12.565  0.7975  0.4523  0.6842
 1833TIP3    H126914   2.889   3.459  12.642 -1.2546  0.7194 -0.8000
 1833TIP3    H226915   2.892   3.392  12.506  1.4538  2.0095 -1.4011
 1834TIP3   OH226916   2.100   3.401  10.641  0.3385 -0.3587 -0.1224
 1834TIP3    H126917   2.060   3.469  10.696 -0.4369 -1.6901  0.9720
 1834TIP3    H226918   2.042   3.326  10.649  1.1692 -1.1515 -1.3756
 1835TIP3   OH226919   1.208   3.100   9.824  0.1836  0.6658  0.0164
 1835TIP3    H126920   1.212   3.008   9.851 -1.4382  0.6009  0.0989
 1835TIP3    H226921   1.240   3.099   9.734 -0.0577 -0.0247 -0.0665
 1836TIP3   OH226922   5.929   2.735   9.770 -0.0116  0.0574 -0.2230
 1836TIP3    H126923   5.902   2.671   9.705 -0.1078 -0.1113 -0.0181
 1836TIP3    H226924   5.946   2.683   9.849  1.7790  0.0323 -0.6009
 1837TIP3   OH226925   4.602   6.148  11.681  0.1599 -0.3523 -0.6660
 1837TIP3    H126926   4.510   6.130  11.665  0.0306 -0.2752 -0.0232
 1837TIP3    H226927   4.638   6.066  11.716 -0.0084  0.0634  0.4975
 1838TIP3   OH226928   1.834   1.962  12.042 -0.3092  0.2553 -0.0847
 1838TIP3    H126929   1.799   1.874  12.053  1.2015  0.0702  4.6523
 1838TIP3    H226930   1.890   1.957  11.965 -2.5391 -2.0994 -1.6287
 1839TIP3   OH226931   7.074   3.246  10.101  0.1890  0.6381  0.2769
 1839TIP3    H126932   7.147   3.186  10.088 -0.1806 -0.0734  1.4036
 1839TIP3    H226933   7.114   3.330  10.122  0.6813  0.4117  0.2392
 1840TIP3   OH226934   2.799   2.008  11.449  0.6772 -0.1438  0.6350
 1840TIP3    H126935   2.781   2.083  11.393  0.4446  0.0893  1.0200
 1840TIP3    H226936   2.892   2.015  11.470  0.3022  0.9464  1.9941
 1841TIP3   OH226937   1.445   3.774   9.711 -0.5933  0.1650 -0.2545
 1841TIP3    H126938   1.483   3.687   9.720 -0.3052 -0.0678 -3.2134
 1841TIP3    H226939   1.357   3.759   9.676 -0.9961  1.0063  0.3777
 1842TIP3   OH226940   1.919   4.065  10.103 -0.2067 -0.3120  0.2588
 1842TIP3    H126941   1.981   4.136  10.086  0.8569 -1.3302 -0.2069
 1842TIP3    H226942   1.946   4.030  10.188 -0.3252 -0.5796  0.1857
 1843TIP3   OH226943   1.353   6.951  11.329 -0.2743 -0.1065 -0.3455
 1843TIP3    H126944   1.412   6.948  11.405  0.4753 -2.1345 -0.9695
 1843TIP3    H226945   1.267   6.972  11.366  0.2866 -0.0446  0.9435
 1844TIP3   OH226946   1.805   6.748  14.154  0.3364  0.8005 -0.1018
 1844TIP3    H126947   1.794   6.803  14.232 -1.3859  0.8497 -0.3514
 1844TIP3    H226948   1.765   6.665  14.179  1.3401  0.2413 -0.3462
 1845TIP3   OH226949   2.791   2.967  10.022 -0.5350  0.1468 -0.1774
 1845TIP3    H126950   2.704   3.003  10.008 -0.9831 -1.0208 -0.4668
 1845TIP3    H226951   2.846   3.011   9.956 -1.5165 -1.2382 -1.9910
 1846TIP3   OH226952   6.352   2.656  12.320 -0.1110 -0.5963 -0.4289
 1846TIP3    H126953   6.362   2.602  12.242  1.1732 -0.6493 -0.2339
 1846TIP3    H226954   6.439   2.692  12.336 -0.7359  0.7815 -0.0071
 1847TIP3   OH226955   4.840   5.668  12.646  0.7322  0.4787  0.1617
 1847TIP3    H126956   4.881   5.600  12.699  2.0883  2.0943  1.2034
 1847TIP3    H226957   4.833   5.744  12.704  0.0285  1.5191 -1.2435
 1848TIP3   OH226958   2.951   0.677  12.940 -0.3759  0.3133  0.3091
 1848TIP3    H126959   2.978   0.597  12.894 -1.2862  0.1412  0.0689
 1848TIP3    H226960   2.912   0.732  12.872 -0.4668  0.6402  0.6247
 1849TIP3   OH226961   4.331   4.251  13.171 -0.0338  0.2314 -0.2200
 1849TIP3    H126962   4.414   4.297  13.183  0.9309 -1.2741 -1.0358
 1849TIP3    H226963   4.285   4.302  13.104  0.4020  0.8326 -0.0655
 1850TIP3   OH226964   3.780   3.782  10.712 -0.5430 -0.5272 -0.3156
 1850TIP3    H126965   3.815   3.785  10.623  1.1014  1.1227  0.3458
 1850TIP3    H226966   3.685   3.774  10.700 -0.3922  0.1323 -2.2221
 1851TIP3   OH226967   6.311   3.428  10.350 -0.2539 -0.1592  0.3894
 1851TIP3    H126968   6.254   3.492  10.306  2.2763  1.5261 -0.5173
 1851TIP3    H226969   6.324   3.359  10.285 -0.4763 -0.0774  0.2567
 1852TIP3   OH226970   5.818   1.386  10.318 -0.0775 -0.2849  0.5005
 1852TIP3    H126971   5.886   1.392  10.251 -0.5410 -1.3461 -0.0759
 1852TIP3    H226972   5.855   1.329  10.385 -0.7635 -1.6708 -0.2782
 1853TIP3   OH226973   3.932   7.161  12.064  0.2022 -0.1223 -0.9884
 1853TIP3    H126974   4.024   7.142  12.082 -0.1785 -0.9352  0.2058
 1853TIP3    H226975   3.903   7.212  12.140 -0.2911  0.2219 -1.4083
 1854TIP3   OH226976   5.741   4.841  10.400 -0.0241 -0.1944  0.0084
 1854TIP3    H126977   5.730   4.936  10.404 -1.1052 -0.3045 -0.1922
 1854TIP3    H226978   5.786   4.819  10.482  1.1617  0.5989 -0.4113
 1855TIP3   OH226979   1.131   0.398  13.284 -0.5124  0.8993 -0.7166
 1855TIP3    H126980   1.103   0.365  13.370  2.7444  1.0113  0.4697
 1855TIP3    H226981   1.091   0.485  13.279  0.0280  1.2984  1.1565
 1856TIP3   OH226982   1.126   5.522  10.242  0.3464 -0.1997 -0.3506
 1856TIP3    H126983   1.083   5.437  10.237 -0.9782  0.2551  2.3151
 1856TIP3    H226984   1.216   5.505  10.216 -0.0944 -2.2637 -0.6016
 1857TIP3   OH226985   1.986   5.005  11.089  0.3975  0.4772  0.0212
 1857TIP3    H126986   2.017   5.017  10.999 -1.3580  0.2499 -0.6379
 1857TIP3    H226987   2.008   4.914  11.110  4.2224  1.5848  1.2293
 1858TIP3   OH226988   0.498   4.684   9.793  0.6962  0.1380  0.0923
 1858TIP3    H126989   0.494   4.628   9.715 -2.9288  0.8810 -0.3639
 1858TIP3    H226990   0.460   4.631   9.863 -2.9222  1.9624 -0.3859
 1859TIP3   OH226991   7.132   4.831  11.167 -0.6450 -0.4837 -0.3774
 1859TIP3    H126992   7.149   4.755  11.222  0.9210 -0.1686 -0.4213
 1859TIP3    H226993   7.210   4.840  11.113  1.7812  4.5571  3.5470
 1860TIP3   OH226994   5.703   2.615  13.015 -0.1219 -0.0535 -0.3618
 1860TIP3    H126995   5.678   2.702  12.984 -1.5042 -0.1366  0.4584
 1860TIP3    H226996   5.623   2.563  13.009  0.7729 -1.3710 -1.1426
 1861TIP3   OH226997   5.608   4.706  10.923 -0.6939  0.5947 -0.2373
 1861TIP3    H126998   5.604   4.622  10.967 -3.1012  0.3930 -0.7300
 1861TIP3    H226999   5.603   4.684  10.830  1.3975  1.1629 -0.5055
 1862TIP3   OH227000   1.752   5.295   9.276  0.0468 -0.0306  0.4907
 1862TIP3    H127001   1.773   5.385   9.254 -0.1266  0.1382  1.0045
 1862TIP3    H227002   1.700   5.301   9.357  0.1836 -0.5968  0.6267
 1863TIP3   OH227003   0.570   4.091  11.082 -0.0670  0.4278 -0.4551
 1863TIP3    H127004   0.641   4.154  11.089  0.8172 -0.6798  0.6086
 1863TIP3    H227005   0.612   4.011  11.052 -0.9722 -0.0648 -0.4131
 1864TIP3   OH227006   3.298   3.347  12.056  0.3131  0.0606  0.5157
 1864TIP3    H127007   3.209   3.318  12.041 -0.6670  2.0495  2.2273
 1864TIP3    H227008   3.341   3.339  11.970 -1.6799 -0.3285 -0.4603
 1865TIP3   OH227009   2.834   5.083  10.520  0.2103  0.0950 -0.0685
 1865TIP3    H127010   2.796   4.998  10.496 -0.2082  0.9936 -2.6815
 1865TIP3    H227011   2.923   5.080  10.485  0.3078  0.6211  0.1356
 1866TIP3   OH227012   6.207   5.217  10.674 -0.0035 -0.1872  0.1669
 1866TIP3    H127013   6.127   5.184  10.715  0.2739 -2.7727 -1.2453
 1866TIP3    H227014   6.176   5.270  10.600 -0.4363  0.7150  0.9960
 1867TIP3   OH227015   6.044   3.176  12.199  0.0252  0.1366 -0.0827
 1867TIP3    H127016   6.097   3.191  12.120 -1.4595  0.0550 -1.1268
 1867TIP3    H227017   6.082   3.098  12.239  1.7027  1.0134  0.0822
 1868TIP3   OH227018   6.736   6.170  11.270  0.5138  0.2762  0.3369
 1868TIP3    H127019   6.827   6.147  11.252  0.3352 -1.2348  1.2290
 1868TIP3    H227020   6.725   6.257  11.233  2.2746  0.3957  0.0560
 1869TIP3   OH227021   6.336   2.503  11.587  0.8149 -0.0061  0.0529
 1869TIP3    H127022   6.416   2.538  11.548  0.3147  1.7178  0.5009
 1869TIP3    H227023   6.283   2.581  11.605 -0.7079 -1.0859  0.3104
 1870TIP3   OH227024   1.633   4.161  10.313  0.2084  0.4065 -0.0937
 1870TIP3    H127025   1.716   4.205  10.296 -0.9540  2.3626 -0.7768
 1870TIP3    H227026   1.586   4.219  10.373  0.2206 -1.7405  2.0632
 1871TIP3   OH227027   4.710   3.920  11.317  0.3543  0.2764 -0.2705
 1871TIP3    H127028   4.772   3.904  11.245  0.1355 -1.1979 -0.1583
 1871TIP3    H227029   4.701   3.834  11.359 -0.3789  0.8894  0.8258
 1872TIP3   OH227030   4.109   6.102  12.056  0.3337 -0.0374  0.5589
 1872TIP3    H127031   4.166   6.028  12.078 -1.6982 -1.8560 -0.0714
 1872TIP3    H227032   4.048   6.107  12.130  0.4444  1.0069  0.5848
 1873TIP3   OH227033   1.335   3.392  10.916 -0.7886 -0.6160  0.1011
 1873TIP3    H127034   1.310   3.479  10.883 -0.4945 -0.4520  0.3109
 1873TIP3    H227035   1.385   3.353  10.844 -0.0857 -0.2296  0.3782
 1874TIP3   OH227036   7.103   5.324   9.856 -0.3670  0.0441  0.0765
 1874TIP3    H127037   7.121   5.400   9.800 -0.4773  0.6522  0.8628
 1874TIP3    H227038   7.073   5.256   9.795 -0.0076  0.5402 -0.6632
 1875TIP3   OH227039   1.078   0.326  11.469  0.3178 -0.0947 -0.2679
 1875TIP3    H127040   1.157   0.304  11.420  0.7092  0.3484  0.1650
 1875TIP3    H227041   1.061   0.417  11.447  1.0021  0.3807  1.1095
 1876TIP3   OH227042   6.954   5.386  11.699  0.0295  0.0652 -0.0267
 1876TIP3    H127043   7.046   5.379  11.725  0.2065 -0.3945 -0.7396
 1876TIP3    H227044   6.944   5.477  11.672  0.3237  0.0707 -0.1167
 1877TIP3   OH227045   0.738   3.034  11.746  0.1877 -0.5747 -0.0246
 1877TIP3    H127046   0.826   3.067  11.763  0.6449 -2.1282  0.7470
 1877TIP3    H227047   0.706   3.087  11.673  2.2041 -0.7681 -1.0749
 1878TIP3   OH227048   6.114   3.235  13.810  0.5358 -0.6726  0.3117
 1878TIP3    H127049   6.131   3.140  13.811  0.3124 -0.7294 -0.6555
 1878TIP3    H227050   6.048   3.246  13.740  0.0315  0.1057  0.9093
 1879TIP3   OH227051   3.640   6.767   9.816 -0.1501  0.1809  0.2950
 1879TIP3    H127052   3.667   6.835   9.879 -0.1786 -0.7669  1.3372
 1879TIP3    H227053   3.722   6.729   9.785 -0.1689 -0.0762  0.5600
 1880TIP3   OH227054   4.140   3.866  10.691  0.5661  0.2146  0.2666
 1880TIP3    H127055   4.108   3.861  10.601  1.8431  1.6101 -0.2983
 1880TIP3    H227056   4.106   3.788  10.733 -1.3512  0.3271 -1.0016
 1881TIP3   OH227057   6.904   3.821  10.709  0.2662 -0.1812  0.5186
 1881TIP3    H127058   6.950   3.844  10.628 -0.7134  0.0635  0.0190
 1881TIP3    H227059   6.831   3.766  10.680 -1.1929  1.4352  1.0245
 1882TIP3   OH227060   7.146   5.241   9.214  0.1144 -0.9173  0.3131
 1882TIP3    H127061   7.170   5.266   9.303  1.7356  3.3053 -1.2106
 1882TIP3    H227062   7.226   5.204   9.177  0.6321  1.0757 -0.6228
 1883TIP3   OH227063   0.688   1.191  10.017  0.0461  0.1051  0.7100
 1883TIP3    H127064   0.735   1.123   9.970 -1.3623  0.4953 -1.3103
 1883TIP3    H227065   0.628   1.144  10.075 -0.4744 -0.3718 -0.2161
 1884TIP3   OH227066   6.492   4.006  13.803 -0.0626  0.5014  0.6557
 1884TIP3    H127067   6.407   4.024  13.842 -0.9552  0.9280 -1.4344
 1884TIP3    H227068   6.513   3.917  13.831 -0.5584  0.8833  2.2870
 1885TIP3   OH227069   2.261   3.578  14.108 -0.1327  0.2934 -0.0671
 1885TIP3    H127070   2.240   3.500  14.160  0.6627  0.1055 -0.0271
 1885TIP3    H227071   2.228   3.558  14.020 -0.9727  0.3856  0.2197
 1886TIP3   OH227072   4.453   3.390  11.673 -0.2330  0.6978 -0.3954
 1886TIP3    H127073   4.468   3.394  11.579 -1.1948 -4.3921 -0.8890
 1886TIP3    H227074   4.362   3.419  11.684  0.2169  2.3465 -0.8348
 1887TIP3   OH227075   0.600   6.606  10.293  0.0753  0.1409  0.4987
 1887TIP3    H127076   0.526   6.637  10.346 -0.0645 -0.2085  0.5067
 1887TIP3    H227077   0.669   6.671  10.309  0.1598 -0.1520  1.3925
 1888TIP3   OH227078   5.303   3.591   9.577 -0.8723 -0.3113 -0.1096
 1888TIP3    H127079   5.383   3.622   9.533 -2.1439 -0.7284 -2.8407
 1888TIP3    H227080   5.314   3.496   9.581 -1.3628 -0.3998 -0.7887
 1889TIP3   OH227081   2.049   1.994  13.394 -0.4178 -0.5756 -0.3917
 1889TIP3    H127082   1.998   2.075  13.399 -1.1431 -1.0360 -0.1817
 1889TIP3    H227083   2.075   1.978  13.485 -0.9996 -1.0370 -0.3098
 1890TIP3   OH227084   0.733   1.887  11.548  0.3167  0.0614 -0.0761
 1890TIP3    H127085   0.806   1.923  11.499  0.9179  0.0592  0.8113
 1890TIP3    H227086   0.770   1.864  11.633 -1.2876  2.6357  1.3774
 1891TIP3   OH227087   0.620   2.099  11.892 -0.1752  0.1658  0.4136
 1891TIP3    H127088   0.583   2.136  11.972 -1.1489  1.8644 -0.7741
 1891TIP3    H227089   0.677   2.167  11.858 -0.3552 -0.2364 -0.7236
 1892TIP3   OH227090   1.836   3.709  10.435 -0.0762 -0.6228  0.1188
 1892TIP3    H127091   1.930   3.695  10.442 -0.2478 -1.3317  1.2274
 1892TIP3    H227092   1.808   3.648  10.367 -0.2250 -2.9831  2.2005
 1893TIP3   OH227093   2.329   3.767  10.308 -0.5628 -0.1451  0.2170
 1893TIP3    H127094   2.377   3.686  10.295 -1.0351 -0.4964  0.6474
 1893TIP3    H227095   2.392   3.836  10.285 -0.1575 -0.6286 -0.1283
 1894TIP3   OH227096   0.321   3.043  11.192  0.1123  0.2619 -0.0193
 1894TIP3    H127097   0.262   3.116  11.172  0.4117  1.0733  1.9162
 1894TIP3    H227098   0.270   2.985  11.248  1.2962  1.3228  2.2604
 1895TIP3   OH227099   5.270   2.568  12.001  0.0720 -0.2508  0.1757
 1895TIP3    H127100   5.237   2.632  12.064  1.5406 -0.6288  1.3533
 1895TIP3    H227101   5.232   2.485  12.028 -3.4393  0.3597 -2.5283
 1896TIP3   OH227102   0.293   1.635  11.164 -0.2126 -0.5402 -0.7277
 1896TIP3    H127103   0.292   1.549  11.122 -0.3279 -0.8007 -0.1977
 1896TIP3    H227104   0.209   1.675  11.139  0.0619 -0.3695 -1.3957
 1897TIP3   OH227105   4.936   4.394  10.244  0.2922 -0.1113 -0.3166
 1897TIP3    H127106   4.851   4.352  10.262 -0.5458  1.2031 -1.1329
 1897TIP3    H227107   4.916   4.488  10.242  1.8544  0.2318 -0.1181
 1898TIP3   OH227108   4.968   4.113  11.444  0.1288  0.5151  0.2954
 1898TIP3    H127109   4.879   4.122  11.476  0.3342  1.2140  0.6751
 1898TIP3    H227110   4.982   4.018  11.439 -0.2490  0.4008  1.3083
 1899TIP3   OH227111   0.872   5.011   9.798 -0.0920 -0.4192 -0.5762
 1899TIP3    H127112   0.833   4.932   9.836 -2.4613  0.4120 -1.1518
 1899TIP3    H227113   0.829   5.021   9.713 -0.3943  1.8498 -0.2102
 1900TIP3   OH227114   2.554   3.418  11.250 -0.2512  0.0542 -0.1699
 1900TIP3    H127115   2.512   3.489  11.201  0.6058  0.2125 -0.6749
 1900TIP3    H227116   2.481   3.360  11.275 -0.6831 -0.0960 -1.7398
 1901TIP3   OH227117   0.471   1.795  12.303 -0.2559 -0.7931  0.1240
 1901TIP3    H127118   0.471   1.707  12.265  1.1064 -0.1740 -1.3728
 1901TIP3    H227119   0.550   1.836  12.267 -0.3893  0.7342  1.5366
 1902TIP3   OH227120   1.733   5.845  10.033  0.3418 -1.1823  0.3428
 1902TIP3    H127121   1.712   5.834  10.126 -3.4214  0.4252 -0.2419
 1902TIP3    H227122   1.689   5.771   9.990  0.0217 -0.5641 -0.3997
 1903TIP3   OH227123   4.957   2.868   9.904  0.2979  0.2155  0.1742
 1903TIP3    H127124   5.028   2.869   9.968  0.2348  1.4923  0.2434
 1903TIP3    H227125   4.924   2.778   9.906 -0.8485  0.6489  3.2467
 1904TIP3   OH227126   1.951   4.601   9.919 -0.1791  0.1922  0.4598
 1904TIP3    H127127   1.927   4.576   9.830  0.4551 -0.1224  0.3740
 1904TIP3    H227128   1.889   4.671   9.942 -0.6900 -0.1001 -0.0247
 1905TIP3   OH227129   6.873   5.975  10.412 -0.0751 -0.3333 -0.2007
 1905TIP3    H127130   6.778   5.985  10.406 -0.1634 -0.7944  0.4035
 1905TIP3    H227131   6.905   6.002  10.326 -0.8985 -1.8075 -0.9829
 1906TIP3   OH227132   1.412   3.332  11.950  0.4199  0.5050 -0.3685
 1906TIP3    H127133   1.424   3.390  11.875 -0.3727 -1.6006 -2.1809
 1906TIP3    H227134   1.457   3.251  11.925 -1.2545 -0.7925  0.7371
 1907TIP3   OH227135   1.654   0.206  12.015 -0.3756 -0.2489  0.2102
 1907TIP3    H127136   1.734   0.252  12.039 -0.4001  0.1158 -0.3935
 1907TIP3    H227137   1.637   0.233  11.925 -0.9720 -0.6170  0.2101
 1908TIP3   OH227138   5.231   5.220  11.160  0.8150 -0.2156 -0.5675
 1908TIP3    H127139   5.200   5.259  11.079  0.9106 -1.6162 -1.2841
 1908TIP3    H227140   5.303   5.163  11.134  1.8332  0.4670  0.6795
 1909TIP3   OH227141   6.783   5.075  10.790  0.5300 -0.1441  0.3870
 1909TIP3    H127142   6.714   5.062  10.855  0.3420 -2.1433 -0.1767
 1909TIP3    H227143   6.850   5.010  10.812  1.9356  1.2784  0.4855
 1910TIP3   OH227144   6.451   4.111  12.697  0.0385 -0.6074  0.3633
 1910TIP3    H127145   6.513   4.042  12.675  0.5673  0.0829 -0.3199
 1910TIP3    H227146   6.505   4.184  12.726 -0.5322 -0.5959  1.4656
 1911TIP3   OH227147   5.678   3.871  10.272 -0.6440  0.1557  0.5253
 1911TIP3    H127148   5.675   3.903  10.182  0.8356 -4.7378 -1.4163
 1911TIP3    H227149   5.759   3.909  10.308 -1.9957  3.3086  0.3666
 1912TIP3   OH227150   1.173   1.703  12.270  0.1343  0.0021 -0.1899
 1912TIP3    H127151   1.137   1.620  12.301 -1.4939  0.2459 -1.3760
 1912TIP3    H227152   1.170   1.696  12.175  1.8516  0.6446 -0.3093
 1913TIP3   OH227153   6.571   3.780  10.302  0.0371 -0.5646 -0.3204
 1913TIP3    H127154   6.652   3.811  10.262  0.0546 -1.1211 -0.7185
 1913TIP3    H227155   6.512   3.765  10.228  0.0530 -1.5402 -0.1340
 1914TIP3   OH227156   1.091   1.090  10.496  0.3197 -0.0272  0.1594
 1914TIP3    H127157   1.074   1.125  10.583  1.4499 -0.7676  0.6970
 1914TIP3    H227158   1.028   1.018  10.486 -1.2151  1.3768 -0.4857
 1915TIP3   OH227159   3.740   3.627  15.154 -0.2150  0.1761  0.4037
 1915TIP3    H127160   3.785   3.645  15.071  1.0946 -1.5872  0.7069
 1915TIP3    H227161   3.741   3.711  15.200 -0.2324  0.9771 -1.0151
 1916TIP3   OH227162   1.670   1.289  11.904  0.2979  0.2491 -0.1889
 1916TIP3    H127163   1.591   1.300  11.850 -0.2166 -0.8228  0.3251
 1916TIP3    H227164   1.740   1.273  11.841 -0.0625  0.3129 -0.6076
 1917TIP3   OH227165   0.058   4.634  10.071 -0.5207  0.2264  0.3769
 1917TIP3    H127166   0.053   4.729  10.071 -0.1423  0.2485  0.8946
 1917TIP3    H227167   0.004   4.607   9.997  0.5806  0.9018 -0.6949
 1918TIP3   OH227168   1.286   1.424   0.626  0.2595 -0.1238  0.5629
 1918TIP3    H127169   1.356   1.487   0.608 -0.4938  0.5946  0.1207
 1918TIP3    H227170   1.328   1.339   0.615  0.5633  0.2928 -1.6892
 1919TIP3   OH227171   4.798   5.109   9.939 -0.3326  0.0484 -0.3248
 1919TIP3    H127172   4.873   5.167   9.925  0.3583 -1.0197 -1.0993
 1919TIP3    H227173   4.790   5.103  10.034  0.2850  0.5332 -0.2426
 1920TIP3   OH227174   5.962   3.509  12.041 -0.0616  0.1895 -0.3766
 1920TIP3    H127175   6.000   3.465  12.116 -0.5927 -0.9507 -0.7681
 1920TIP3    H227176   5.915   3.584  12.078  0.1569 -0.0362  0.3646
 1921TIP3   OH227177   5.237   3.419  12.801  0.1717  0.1297 -0.5678
 1921TIP3    H127178   5.312   3.370  12.767  2.3611  1.7573  1.7797
 1921TIP3    H227179   5.273   3.472  12.872 -3.0641  1.5659  0.0721
 1922TIP3   OH227180   5.356   5.847  10.528  0.2548 -0.8187  0.1742
 1922TIP3    H127181   5.299   5.847  10.605 -1.3326 -3.5171 -0.9112
 1922TIP3    H227182   5.414   5.772  10.542 -0.2173 -1.4851 -1.3573
 1923TIP3   OH227183   2.176   7.001  11.712 -0.5014 -0.2663  0.1500
 1923TIP3    H127184   2.271   6.991  11.703 -0.5765 -1.2918  0.3287
 1923TIP3    H227185   2.156   7.085  11.673  0.5175  0.0574  0.3110
 1924TIP3   OH227186   7.020   2.250  11.335 -0.8471 -0.3294 -0.3191
 1924TIP3    H127187   6.994   2.163  11.365 -0.4720 -0.2026  0.3846
 1924TIP3    H227188   6.971   2.310  11.391 -0.3017 -0.0928 -0.0930
 1925TIP3   OH227189   2.054   6.935  12.872  0.1845  0.8563  0.1806
 1925TIP3    H127190   1.971   6.965  12.833  0.0983  1.4086  0.7864
 1925TIP3    H227191   2.106   7.015  12.882 -0.1654  0.8583  2.0954
 1926TIP3   OH227192   0.372   4.258  10.813 -0.0433 -0.0588 -0.2689
 1926TIP3    H127193   0.456   4.304  10.822  1.2240 -2.5438  1.0888
 1926TIP3    H227194   0.393   4.181  10.759 -1.1233 -1.4210  1.2114
 1927TIP3   OH227195   1.734   6.236   0.224 -0.2524 -0.3750  0.4608
 1927TIP3    H127196   1.695   6.313   0.182 -1.0646 -0.5837  0.8269
 1927TIP3    H227197   1.753   6.264   0.314 -1.7414 -0.9807  0.9818
 1928TIP3   OH227198   5.960   1.000  10.585  0.2506 -0.0207  0.1830
 1928TIP3    H127199   5.994   1.068  10.527 -0.6227 -0.8730 -1.3520
 1928TIP3    H227200   6.039   0.961  10.624  0.8205  0.9471  0.0309
 1929TIP3   OH227201   6.315   6.301   9.925 -0.1463 -0.1244 -0.2538
 1929TIP3    H127202   6.283   6.368   9.865  2.6636  0.2773 -1.4020
 1929TIP3    H227203   6.350   6.232   9.867 -0.8433 -1.4740  0.9131
 1930TIP3   OH227204   0.906   6.030  11.264 -0.2289  0.2032 -0.0581
 1930TIP3    H127205   0.939   5.958  11.318  0.4454  0.4419 -0.1359
 1930TIP3    H227206   0.980   6.051  11.206 -0.4511  0.8987 -0.0915
 1931TIP3   OH227207   0.404   5.168  10.844  0.1016  0.2335  0.1353
 1931TIP3    H127208   0.346   5.136  10.914  0.1711 -0.4087 -0.0904
 1931TIP3    H227209   0.441   5.088  10.807 -0.6000  0.5162 -1.2003
 1932TIP3   OH227210   4.152   1.750  13.699  0.2935 -0.0890 -0.1706
 1932TIP3    H127211   4.214   1.702  13.754 -0.1036 -0.2032  0.1771
 1932TIP3    H227212   4.107   1.683  13.648  0.8623  0.0382 -0.8449
 1933TIP3   OH227213   2.549   3.113  13.160  0.4947  0.0237 -0.1542
 1933TIP3    H127214   2.630   3.162  13.144 -1.0101  1.6770 -3.1255
 1933TIP3    H227215   2.544   3.052  13.086  1.1179 -3.0510  2.2471
 1934TIP3   OH227216   2.341   4.668  12.137 -0.6926 -0.1611 -0.2687
 1934TIP3    H127217   2.305   4.596  12.085 -1.3908  1.5630 -2.1916
 1934TIP3    H227218   2.283   4.742  12.121  0.8377  1.2624  0.5530
 1935TIP3   OH227219   1.084   4.543  11.856 -0.0887  0.1394 -0.0614
 1935TIP3    H127220   1.092   4.625  11.904 -0.0432 -0.2484  0.6179
 1935TIP3    H227221   1.005   4.552  11.803  0.5282  1.0364 -0.8293
 1936TIP3   OH227222   1.127   3.169  10.779  0.2913 -0.3097 -0.0765
 1936TIP3    H127223   1.168   3.256  10.772  0.9070 -0.5374  0.6690
 1936TIP3    H227224   1.033   3.187  10.782  0.3093  0.2205 -1.8446
 1937TIP3   OH227225   0.829   5.118  11.323  0.7124 -0.5143 -0.5436
 1937TIP3    H127226   0.758   5.074  11.369  2.1664  0.8242  3.1258
 1937TIP3    H227227   0.796   5.205  11.303  1.2184  0.0366  0.9770
 1938TIP3   OH227228   4.010   0.745  13.860 -0.5595  0.0457 -0.2658
 1938TIP3    H127229   4.084   0.689  13.887 -1.2083  0.0850  1.6773
 1938TIP3    H227230   4.045   0.834  13.866 -0.4791  0.0149 -0.2618
 1939TIP3   OH227231   1.533   2.222  10.978 -0.5715  0.2834 -0.2833
 1939TIP3    H127232   1.487   2.276  11.042 -0.4110 -0.1131  0.1690
 1939TIP3    H227233   1.579   2.285  10.923  0.3592  0.5804  0.8175
 1940TIP3   OH227234   4.008   5.251  10.700  0.3768 -0.5251  0.1680
 1940TIP3    H127235   4.037   5.334  10.662  0.6603 -1.0774 -0.8123
 1940TIP3    H227236   3.958   5.277  10.777 -1.1886  0.6300 -1.2237
 1941TIP3   OH227237   6.824   4.240  11.362 -0.1677 -0.1725 -0.2767
 1941TIP3    H127238   6.765   4.284  11.423  0.0918 -0.4051  0.1468
 1941TIP3    H227239   6.767   4.187  11.307 -0.3802 -0.1616 -0.0661
 1942TIP3   OH227240   1.952   2.072  10.168  0.4318 -0.9720 -0.1678
 1942TIP3    H127241   2.005   2.094  10.244 -2.0274  3.8115  0.2876
 1942TIP3    H227242   2.013   2.079  10.094  1.3404  0.6628  0.7158
 1943TIP3   OH227243   4.016   5.090   0.978  0.1484 -0.0780  0.2298
 1943TIP3    H127244   4.045   5.143   1.052  2.0614 -1.0361  0.1785
 1943TIP3    H227245   4.021   5.000   1.009 -0.9637 -0.3739 -0.4197
 1944TIP3   OH227246   0.667   0.568  14.180  0.5842  0.0241 -0.1942
 1944TIP3    H127247   0.679   0.538  14.089 -1.4173  0.6302 -0.6748
 1944TIP3    H227248   0.591   0.626  14.177  0.8275  0.4877  1.7905
 1945TIP3   OH227249   1.804   3.905  12.271  0.9835 -0.0193 -0.0274
 1945TIP3    H127250   1.708   3.916  12.273  1.0221  0.3352  3.3079
 1945TIP3    H227251   1.818   3.823  12.223 -1.0286 -0.3483 -0.1013
 1946TIP3   OH227252   1.897   1.068  13.595  0.1040 -0.1383  0.6771
 1946TIP3    H127253   1.949   1.127  13.649 -1.6261  0.4437  1.7640
 1946TIP3    H227254   1.910   0.982  13.634  1.1049 -0.1755  0.2712
 1947TIP3   OH227255   5.956   3.138  11.215 -0.5588 -0.0100  0.6200
 1947TIP3    H127256   5.992   3.172  11.298 -0.9629 -0.7263  1.0891
 1947TIP3    H227257   5.881   3.086  11.241 -0.7168 -0.1995 -0.2130
 1948TIP3   OH227258   5.737   4.211  13.562 -0.6465 -0.1273  0.7360
 1948TIP3    H127259   5.721   4.134  13.508 -1.3396 -0.4694  1.4144
 1948TIP3    H227260   5.743   4.177  13.651  0.3468  0.4433  0.9060
 1949TIP3   OH227261   2.741   3.482  14.768 -0.0828  0.0542 -0.2784
 1949TIP3    H127262   2.820   3.534  14.758  0.4243 -0.9007 -1.3730
 1949TIP3    H227263   2.671   3.539  14.736  0.2852  0.5400 -0.2278
 1950TIP3   OH227264   0.413   6.438  11.955 -0.4359 -0.4587  0.2325
 1950TIP3    H127265   0.324   6.422  11.986 -0.0450  1.0966  2.1927
 1950TIP3    H227266   0.403   6.504  11.886 -0.8444 -0.6369  0.1187
 1951TIP3   OH227267   0.837   2.908  10.952  0.7278 -0.1016 -0.6872
 1951TIP3    H127268   0.816   2.838  11.013 -0.8058  0.2999 -0.7384
 1951TIP3    H227269   0.811   2.874  10.866  1.2981 -0.0079 -0.9023
 1952TIP3   OH227270   1.884   5.549  10.649  0.5319 -0.1785 -0.3034
 1952TIP3    H127271   1.970   5.547  10.607 -0.1575 -2.1630 -1.6985
 1952TIP3    H227272   1.896   5.497  10.729  1.0264  0.8840  0.3159
 1953TIP3   OH227273   2.031   2.823  10.166 -0.4539 -0.1961 -0.3734
 1953TIP3    H127274   1.968   2.779  10.223  0.5592  0.0235  0.9408
 1953TIP3    H227275   2.108   2.767  10.168  0.5952  1.2565  0.7503
 1954TIP3   OH227276   5.696   0.602  11.131 -0.3010  0.2757 -0.3594
 1954TIP3    H127277   5.778   0.586  11.083 -0.4278 -2.2047  0.1931
 1954TIP3    H227278   5.647   0.662  11.075  2.3309  2.7263 -0.1926
 1955TIP3   OH227279   2.794   3.715  11.257  0.2875 -0.0314 -0.5723
 1955TIP3    H127280   2.876   3.696  11.212  0.7703  0.5448  0.0649
 1955TIP3    H227281   2.730   3.722  11.186  0.8029 -0.3656 -1.0802
 1956TIP3   OH227282   1.396   4.603  13.462  0.0019 -0.4239 -0.1274
 1956TIP3    H127283   1.449   4.561  13.394  1.4380 -0.9550  1.3029
 1956TIP3    H227284   1.335   4.535  13.490 -0.7405 -0.1390 -1.0147
 1957TIP3   OH227285   1.607   6.910  10.752  0.5375  0.8232 -0.2276
 1957TIP3    H127286   1.554   6.918  10.831 -0.9361 -1.3011 -0.9535
 1957TIP3    H227287   1.675   6.847  10.775  0.6680  0.9170 -0.3584
 1958TIP3   OH227288   2.385   1.616  14.337  0.0580 -0.0905  0.6991
 1958TIP3    H127289   2.291   1.620  14.319 -0.0637  0.8842  1.4786
 1958TIP3    H227290   2.391   1.595  14.430  0.6549 -2.9524  0.0442
 1959TIP3   OH227291   2.581   2.841  10.406  0.2128  0.1388  0.1084
 1959TIP3    H127292   2.522   2.912  10.382  1.5793  0.7184 -1.7126
 1959TIP3    H227293   2.528   2.762  10.401 -0.7141  0.7778 -0.3056
 1960TIP3   OH227294   4.091   1.677   9.990 -0.5700 -0.8366 -0.1934
 1960TIP3    H127295   4.004   1.713  10.008 -0.5815 -1.9746  2.3247
 1960TIP3    H227296   4.087   1.646   9.900 -2.1502  0.8786 -0.7211
 1961TIP3   OH227297   4.624   3.049  11.134  0.1584 -0.3016  0.0520
 1961TIP3    H127298   4.718   3.043  11.114  0.4645  0.4789  1.2399
 1961TIP3    H227299   4.593   3.124  11.083  0.2212 -0.4259 -0.1705
 1962TIP3   OH227300   0.687   3.114  11.122  0.2612 -0.4333  0.4550
 1962TIP3    H127301   0.663   3.038  11.175  1.8055 -0.8277  0.6070
 1962TIP3    H227302   0.661   3.190  11.175  2.1021 -0.8146  1.9658
 1963TIP3   OH227303   4.984   4.769  12.922  0.2367  1.0143  0.6349
 1963TIP3    H127304   4.998   4.863  12.923  0.0641  1.0564 -0.4053
 1963TIP3    H227305   5.029   4.739  12.843  0.8966  0.1233  1.3326
 1964TIP3   OH227306   0.003   2.044  10.999  0.2148 -0.5438  0.0464
 1964TIP3    H127307  -0.081   2.015  10.962  0.6286  0.2406 -1.5177
 1964TIP3    H227308  -0.007   2.138  11.009 -0.2684 -0.8526  2.9446
 1965TIP3   OH227309   5.429   6.394  12.208 -0.0669  0.0054 -0.3401
 1965TIP3    H127310   5.421   6.446  12.128 -0.8508  0.5599  0.0960
 1965TIP3    H227311   5.342   6.357  12.222 -0.1102  0.4502  0.6232
 1966TIP3   OH227312   2.370   2.749  13.046 -0.1894 -0.2191  0.0760
 1966TIP3    H127313   2.414   2.677  13.092 -0.5636 -0.8933 -0.6113
 1966TIP3    H227314   2.304   2.706  12.991 -0.5849  0.6692 -0.1527
 1967TIP3   OH227315   6.587   2.265   9.966  0.1302  0.3520 -0.3655
 1967TIP3    H127316   6.683   2.264   9.963  0.2261 -2.0734  1.8209
 1967TIP3    H227317   6.562   2.173   9.952 -1.8007  0.7268  0.4960
 1968TIP3   OH227318   4.257   5.855  10.223 -0.3174  0.5052 -0.1147
 1968TIP3    H127319   4.206   5.838  10.144 -0.6405  0.2955  0.1370
 1968TIP3    H227320   4.244   5.778  10.278 -0.5990  0.9225  0.4095
 1969TIP3   OH227321   5.983   2.366  11.624  0.2064 -0.5039 -0.0960
 1969TIP3    H127322   6.010   2.434  11.562 -0.9058  1.2560  1.2854
 1969TIP3    H227323   5.950   2.295  11.569  2.2444 -0.3469 -1.6093
 1970TIP3   OH227324   3.174   6.901  10.993 -0.0040  0.1304  0.1406
 1970TIP3    H127325   3.154   6.827  11.050  0.0459 -0.9486 -1.2070
 1970TIP3    H227326   3.092   6.919  10.947  0.4045 -0.1357 -0.7080
 1971TIP3   OH227327   4.987   3.730  13.212  0.7372 -0.7077 -0.1099
 1971TIP3    H127328   4.932   3.751  13.288 -0.4924  0.8101 -1.3883
 1971TIP3    H227329   5.026   3.814  13.188 -2.1544 -0.2794 -3.6878
 1972TIP3   OH227330   5.380   4.540  10.075  0.5590  0.3976 -0.2931
 1972TIP3    H127331   5.417   4.548  10.163 -1.1113  0.2548  0.4381
 1972TIP3    H227332   5.328   4.619  10.063 -1.6881 -0.9961  0.0629
 1973TIP3   OH227333   1.369   3.414  10.202 -0.3789 -0.5110  0.4678
 1973TIP3    H127334   1.397   3.440  10.114 -0.3502  0.8539  0.8730
 1973TIP3    H227335   1.305   3.343  10.187 -0.7064  0.0178 -0.6681
 1974TIP3   OH227336   5.981   0.097  10.676  0.7194  0.0200  0.2609
 1974TIP3    H127337   5.922   0.160  10.717 -0.3669 -0.6730 -0.2200
 1974TIP3    H227338   5.956   0.013  10.715  1.8045 -0.1888  0.5109
 1975TIP3   OH227339   1.610   5.433  10.910  0.0751  0.0016  0.0706
 1975TIP3    H127340   1.583   5.402  10.824 -0.1824 -0.2848  0.2476
 1975TIP3    H227341   1.530   5.430  10.963  0.4209 -0.7335  0.5700
 1976TIP3   OH227342   1.605   5.101  12.389 -0.1336 -0.1764 -0.0080
 1976TIP3    H127343   1.645   5.022  12.426 -0.3379 -0.0281  0.5303
 1976TIP3    H227344   1.669   5.132  12.324  1.2428  0.7842  1.7610
 1977TIP3   OH227345   3.829   0.402   9.999  0.1777 -0.0562  0.5474
 1977TIP3    H127346   3.803   0.487   9.965  1.6507 -0.1526 -0.8900
 1977TIP3    H227347   3.850   0.418  10.091  1.1622  1.3076  0.1032
 1978TIP3   OH227348   6.757   3.775  11.063  0.4988  0.2084  0.3573
 1978TIP3    H127349   6.817   3.745  11.132 -0.7145 -0.2757  1.2253
 1978TIP3    H227350   6.675   3.794  11.109 -0.5513 -0.8002 -1.0448
 1979TIP3   OH227351   6.869   4.746  12.410  0.2946  0.1642 -0.3735
 1979TIP3    H127352   6.831   4.794  12.336  1.5850  0.6582 -0.7423
 1979TIP3    H227353   6.958   4.725  12.381  0.7367  0.1560  0.9471
 1980TIP3   OH227354   1.491   2.811  12.301  0.3558  0.1252  0.4461
 1980TIP3    H127355   1.419   2.794  12.240 -1.8243  2.7296  2.1737
 1980TIP3    H227356   1.495   2.732  12.355 -3.8511  1.3326  2.7907
 1981TIP3   OH227357   6.867   3.894  14.368 -0.5667 -0.1936  0.3133
 1981TIP3    H127358   6.842   3.865  14.456 -0.2126  0.8311  0.7507
 1981TIP3    H227359   6.954   3.857  14.355 -0.8236 -0.7694  0.1861
 1982TIP3   OH227360   5.915   1.813  10.636 -0.6316 -0.5718  0.3020
 1982TIP3    H127361   5.823   1.836  10.645 -0.4775 -0.1694  0.9024
 1982TIP3    H227362   5.949   1.816  10.725 -0.1296 -1.1074  0.1273
 1983TIP3   OH227363   0.824   4.890  10.671  0.2742  0.4780 -0.7792
 1983TIP3    H127364   0.768   4.949  10.723  0.7570  0.1371  0.1355
 1983TIP3    H227365   0.786   4.893  10.583 -0.4101  1.2509 -0.4685
 1984TIP3   OH227366   0.163   4.772  12.096 -0.1923 -0.0165  0.0756
 1984TIP3    H127367   0.189   4.764  12.187 -2.7465  0.1708  0.8703
 1984TIP3    H227368   0.091   4.710  12.087  0.1684 -0.1821 -1.8789
 1985TIP3   OH227369   1.004   4.069  11.643 -0.0561 -0.9349  0.3333
 1985TIP3    H127370   0.915   4.051  11.674  0.0884 -0.9418  0.7455
 1985TIP3    H227371   1.002   4.160  11.614 -0.1948 -0.9339  0.3489
 1986TIP3   OH227372   4.496   5.655  14.658 -0.3019 -0.2620 -0.0698
 1986TIP3    H127373   4.521   5.734  14.707 -0.1104 -0.3051 -0.0983
 1986TIP3    H227374   4.529   5.671  14.569  2.4401 -1.6667  0.6151
 1987TIP3   OH227375   2.781   3.433  11.082 -0.2323 -0.5135  0.2679
 1987TIP3    H127376   2.702   3.437  11.135 -0.7905 -1.8901 -0.4324
 1987TIP3    H227377   2.851   3.411  11.144 -0.6325 -0.7271  0.6439
 1988TIP3   OH227378   5.504   3.738  12.833  0.2041  0.1901 -0.3446
 1988TIP3    H127379   5.568   3.697  12.891  0.6048  1.6641  0.2520
 1988TIP3    H227380   5.501   3.679  12.757 -0.7376 -2.0525  1.3631
 1989TIP3   OH227381   0.622   2.759   9.874 -0.3925  0.0759 -0.1208
 1989TIP3    H127382   0.576   2.739   9.793  2.1027  0.6596 -1.7469
 1989TIP3    H227383   0.700   2.808   9.846  1.1549 -0.7607  2.5195
 1990TIP3   OH227384   4.840   4.587   9.482  0.3256 -0.0380 -0.4550
 1990TIP3    H127385   4.773   4.635   9.530 -0.1458 -2.1283  1.0678
 1990TIP3    H227386   4.917   4.643   9.483 -0.8471  1.5925 -0.6228
 1991TIP3   OH227387   5.988   2.442  11.342 -0.1149  0.0445  0.2149
 1991TIP3    H127388   5.978   2.503  11.270 -0.6542 -1.4706 -1.0131
 1991TIP3    H227389   5.910   2.387  11.339  1.9090 -2.9059 -0.8212
 1992TIP3   OH227390   3.237   2.041  13.373  0.5975  0.7155  0.1206
 1992TIP3    H127391   3.143   2.055  13.363  0.3171 -0.0840  1.4935
 1992TIP3    H227392   3.260   1.979  13.304 -0.3308 -0.8627  1.1924
 1993TIP3   OH227393   1.160   3.852  11.580  0.5713  0.0136  0.1183
 1993TIP3    H127394   1.105   3.928  11.565 -0.1520 -0.5005  0.1098
 1993TIP3    H227395   1.119   3.808  11.655  1.2811 -0.0837  0.4482
 1994TIP3   OH227396   2.849   1.215   9.685 -0.2432  0.1456  0.9194
 1994TIP3    H127397   2.888   1.302   9.681 -0.7771  0.4105  1.5224
 1994TIP3    H227398   2.912   1.159   9.639 -0.6314  1.0997 -0.8191
 1995TIP3   OH227399   1.669   5.182  12.724 -0.2958 -0.5571 -0.4405
 1995TIP3    H127400   1.754   5.151  12.693 -0.1598  0.8662 -1.5449
 1995TIP3    H227401   1.686   5.209  12.814 -0.2981 -3.1009  0.3818
 1996TIP3   OH227402   2.160   0.228  14.047 -0.2649  0.2250  0.1119
 1996TIP3    H127403   2.159   0.324  14.055  0.3756  0.3224 -0.9050
 1996TIP3    H227404   2.083   0.208  13.993  0.0717  0.2355 -0.3735
 1997TIP3   OH227405   0.942   4.054  14.319 -0.1442 -0.1151 -0.0088
 1997TIP3    H127406   0.878   4.088  14.381 -1.1374 -3.1011  0.6769
 1997TIP3    H227407   0.907   4.075  14.233 -1.6306 -0.9275  0.3847
 1998TIP3   OH227408   1.264   4.441  10.957 -0.6719 -0.1568  0.3125
 1998TIP3    H127409   1.336   4.390  10.994  1.1540  0.2394 -2.5116
 1998TIP3    H227410   1.185   4.404  10.997  0.9827 -1.6810  2.2552
 1999TIP3   OH227411   3.804   5.047  10.808 -0.4415  0.0666  0.1902
 1999TIP3    H127412   3.867   5.108  10.770 -0.9907  1.1416  0.9867
 1999TIP3    H227413   3.859   4.981  10.852  0.1514  2.1617  2.6927
 2000TIP3   OH227414   3.125   5.070  10.454 -0.3130 -0.1001  0.1016
 2000TIP3    H127415   3.092   4.989  10.414 -0.4066  0.8917 -1.9324
 2000TIP3    H227416   3.165   5.118  10.381 -0.5128  1.8043  1.2001
 2001TIP3   OH227417   2.747   5.709  10.546  0.6895 -0.4499  0.6133
 2001TIP3    H127418   2.807   5.782  10.560  1.1482 -0.9170  1.1445
 2001TIP3    H227419   2.688   5.738  10.477  1.0353  0.3186  0.6443
 2002TIP3   OH227420   3.687   3.503  10.249 -0.0321 -0.1135  0.0233
 2002TIP3    H127421   3.594   3.520  10.233 -1.1133 -3.9947  1.4731
 2002TIP3    H227422   3.697   3.510  10.344  1.3350  0.9646 -0.1863
 2003TIP3   OH227423   3.137   3.403  11.002  0.1708 -0.1104 -0.0861
 2003TIP3    H127424   3.190   3.435  11.075 -0.2347  0.3042  0.0340
 2003TIP3    H227425   3.112   3.314  11.027  0.8389 -0.3149 -0.1606
 2004TIP3   OH227426   3.294   4.483  12.332 -0.4765 -0.1886 -0.1541
 2004TIP3    H127427   3.234   4.471  12.258 -0.0010 -0.4017 -0.5071
 2004TIP3    H227428   3.364   4.539  12.297  1.0586 -2.3509 -0.6169
 2005TIP3   OH227429   3.501   2.110   0.324 -0.3336  0.2553  0.0029
 2005TIP3    H127430   3.420   2.139   0.282 -0.3630 -0.2333 -0.2793
 2005TIP3    H227431   3.571   2.152   0.273 -0.2963 -1.7640 -1.6908
 2006TIP3   OH227432   5.120   2.975  13.631  0.1279 -0.2026 -0.0214
 2006TIP3    H127433   5.083   3.028  13.560 -0.2384 -1.3965 -0.7325
 2006TIP3    H227434   5.142   3.039  13.699 -1.6856  0.7074 -0.2538
 2007TIP3   OH227435   4.187   5.896  10.868 -0.2979 -0.1343 -0.0080
 2007TIP3    H127436   4.094   5.881  10.851 -0.6222  0.4654  1.2115
 2007TIP3    H227437   4.209   5.973  10.816 -0.2638 -0.7633 -0.9548
 2008TIP3   OH227438   4.902   4.463  11.617  0.1561 -0.2006  0.0118
 2008TIP3    H127439   4.936   4.527  11.679 -1.4569  0.7958 -0.0978
 2008TIP3    H227440   4.816   4.439  11.651  0.1213 -1.1929 -0.7469
 2009TIP3   OH227441   5.349   1.644  13.219 -0.2968  0.4735  0.4373
 2009TIP3    H127442   5.287   1.607  13.157  0.6301 -0.4436  0.0491
 2009TIP3    H227443   5.334   1.596  13.300 -0.3174  0.4820  0.4384
 2010TIP3   OH227444   4.842   3.813  10.873 -0.1279  0.5610  0.0190
 2010TIP3    H127445   4.784   3.762  10.930  0.6758 -1.0385 -0.5431
 2010TIP3    H227446   4.804   3.900  10.872 -1.5567 -0.0209  1.0241
 2011TIP3   OH227447   2.246   3.772  11.259  0.2219 -0.5956  0.1893
 2011TIP3    H127448   2.176   3.723  11.216 -0.2114  1.7539 -1.9137
 2011TIP3    H227449   2.326   3.724  11.238 -0.3098 -1.0442 -0.8344
 2012TIP3   OH227450   3.132   5.954  12.197 -0.0406 -0.2608 -0.4072
 2012TIP3    H127451   3.124   6.049  12.194  0.9928 -0.1999 -1.3929
 2012TIP3    H227452   3.067   5.922  12.134 -0.2207 -0.2013 -0.2527
 2013TIP3   OH227453   1.413   1.771  10.987 -0.0387  0.2203  0.2807
 2013TIP3    H127454   1.472   1.696  10.992 -1.0352 -0.5087  1.1881
 2013TIP3    H227455   1.335   1.744  11.035 -0.1688  2.0604  1.1528
 2014TIP3   OH227456   4.952   3.218  10.706  0.0714  0.1477 -0.4271
 2014TIP3    H127457   4.927   3.247  10.793  0.6293  0.0615 -0.2334
 2014TIP3    H227458   4.985   3.129  10.719  0.0744  0.1035 -0.7352
 2015TIP3   OH227459   2.917   1.197  13.793  0.5186 -0.0766 -0.7340
 2015TIP3    H127460   2.981   1.242  13.737  1.5855 -0.4758  0.1529
 2015TIP3    H227461   2.841   1.184  13.736  0.3275  2.4797 -1.1260
 2016TIP3   OH227462   1.422   5.767   9.859  0.2625  0.3986  0.1343
 2016TIP3    H127463   1.513   5.739   9.858  0.2229  0.2734  0.0824
 2016TIP3    H227464   1.423   5.855   9.821  0.5315  0.8873  1.2341
 2017TIP3   OH227465   3.093   2.172  12.088  0.1769  0.1769 -0.3173
 2017TIP3    H127466   3.047   2.214  12.160 -0.9334  0.7756 -1.3617
 2017TIP3    H227467   3.041   2.094  12.069  1.3978 -0.8924  0.6221
 2018TIP3   OH227468   6.270   3.352  13.233 -0.2492  0.5427  0.5018
 2018TIP3    H127469   6.209   3.396  13.174 -0.3373 -0.8523 -0.4839
 2018TIP3    H227470   6.226   3.270  13.257  0.5597  0.2631  1.0554
 2019TIP3   OH227471   2.826   4.061  11.365 -0.4472  0.2352 -0.2060
 2019TIP3    H127472   2.809   3.974  11.403  2.0905 -0.5130 -0.6981
 2019TIP3    H227473   2.871   4.109  11.435 -1.1882  0.9191 -0.1921
 2020TIP3   OH227474   1.454   6.185  12.878 -0.0900  0.5226 -0.4407
 2020TIP3    H127475   1.490   6.269  12.849  2.4267  0.0967  1.2725
 2020TIP3    H227476   1.515   6.120  12.843  0.3893 -0.2725  1.7777
 2021TIP3   OH227477   1.201   5.003  15.334 -0.2856  0.6098  0.5583
 2021TIP3    H127478   1.201   5.099  15.341 -3.5842  0.7537 -0.5224
 2021TIP3    H227479   1.259   4.985  15.260 -0.2522  1.8087  0.2711
 2022TIP3   OH227480   2.970   5.101  10.828 -0.4043  0.1260  0.0408
 2022TIP3    H127481   3.001   5.034  10.889 -0.2437 -0.3616 -0.5829
 2022TIP3    H227482   3.030   5.097  10.754 -0.1038  1.2827  0.2037
 2023TIP3   OH227483   0.784   5.157  10.038  0.2093  0.3861 -0.2246
 2023TIP3    H127484   0.744   5.234   9.998 -1.6512 -0.8001 -0.7079
 2023TIP3    H227485   0.786   5.092   9.968 -1.0863 -1.0040  0.9941
 2024TIP3   OH227486   6.268   4.667  13.105 -0.2568  0.0689  0.5391
 2024TIP3    H127487   6.253   4.667  13.011  1.0496 -1.0993  0.3238
 2024TIP3    H227488   6.340   4.606  13.119  0.3006  1.0508  2.1832
 2025TIP3   OH227489   6.828   5.491  13.362  0.5399 -0.7279  0.4582
 2025TIP3    H127490   6.881   5.551  13.414 -0.1055 -0.2424  0.5489
 2025TIP3    H227491   6.756   5.544  13.329  1.9404 -0.5152 -2.5094
 2026TIP3   OH227492   5.459   5.784  12.916 -0.5826  0.2705  0.5121
 2026TIP3    H127493   5.545   5.774  12.874 -1.3782 -0.0765 -1.0700
 2026TIP3    H227494   5.479   5.825  13.000  1.3178 -1.5219  0.9854
 2027TIP3   OH227495   1.948   2.967  10.710 -0.3061  0.3873  0.1138
 2027TIP3    H127496   1.905   2.945  10.627 -0.9996 -0.1791  0.6206
 2027TIP3    H227497   1.896   3.039  10.746  1.2293  2.0714 -0.9407
 2028TIP3   OH227498   6.134   3.558  10.183  0.7651 -0.0051  0.1283
 2028TIP3    H127499   6.159   3.571  10.092  0.9934 -0.0394  0.1851
 2028TIP3    H227500   6.038   3.554  10.182  0.8514 -2.3173 -0.4077
 2029TIP3   OH227501   3.892   4.542  10.367  0.1690  0.3747 -0.3284
 2029TIP3    H127502   3.875   4.448  10.372  0.6742  0.2093 -1.4752
 2029TIP3    H227503   3.978   4.548  10.325  0.5337  1.3320  0.5304
 2030TIP3   OH227504   3.005   3.376  11.249 -0.0473  1.1647 -0.0861
 2030TIP3    H127505   2.991   3.308  11.315  0.5326  0.3230 -0.8096
 2030TIP3    H227506   3.100   3.376  11.235 -0.1822  1.1736 -1.0705
 2031TIP3   OH227507   3.607   2.841  11.328  0.2760  0.4532 -0.0732
 2031TIP3    H127508   3.634   2.789  11.252  0.6377 -0.7742  0.8729
 2031TIP3    H227509   3.676   2.826  11.393 -0.2371  1.1553  0.6495
 2032TIP3   OH227510   4.260   4.660  11.293 -0.4133  0.4217  0.5593
 2032TIP3    H127511   4.343   4.694  11.261 -0.7639 -0.2861 -1.1846
 2032TIP3    H227512   4.284   4.592  11.356  0.3416 -0.0470 -0.2262
 2033TIP3   OH227513   0.498   5.106  14.242 -0.2781 -0.0586  0.3140
 2033TIP3    H127514   0.428   5.125  14.179  0.6814  1.7205 -0.2338
 2033TIP3    H227515   0.569   5.165  14.218  1.9387 -2.7171  0.0693
 2034TIP3   OH227516   2.277   0.701  13.094  0.3965 -0.0770  0.6275
 2034TIP3    H127517   2.297   0.695  13.001  0.1834 -0.5663  0.6092
 2034TIP3    H227518   2.187   0.671  13.101  0.7289 -0.9821  1.1117
 2035TIP3   OH227519   2.039   3.759  11.473  0.9776  0.4173 -0.2659
 2035TIP3    H127520   1.994   3.787  11.393  0.4546  0.1890 -0.0535
 2035TIP3    H227521   2.127   3.797  11.465  0.6455  1.1453 -0.5238
 2036TIP3   OH227522   3.455   3.672  11.838 -0.1836 -0.4819 -0.3573
 2036TIP3    H127523   3.543   3.707  11.848  0.7740 -2.4093 -1.8035
 2036TIP3    H227524   3.429   3.646  11.927  0.1512  1.3000  0.2864
 2037TIP3   OH227525   0.715   3.577  10.460 -0.6322 -0.8296  0.0001
 2037TIP3    H127526   0.674   3.492  10.451  1.9150 -1.9170 -2.0273
 2037TIP3    H227527   0.720   3.612  10.371 -0.4740  0.8639  0.6419
 2038TIP3   OH227528   1.959   3.822   9.445 -0.6207 -0.3254 -0.1720
 2038TIP3    H127529   1.875   3.785   9.470  0.5213 -2.7882  0.1360
 2038TIP3    H227530   1.998   3.758   9.386  1.3143  0.4683  0.1725
 2039TIP3   OH227531   1.474   3.452   9.968 -0.2338  0.1230  0.1320
 2039TIP3    H127532   1.568   3.460   9.979 -0.4810 -1.0699  3.7645
 2039TIP3    H227533   1.463   3.390   9.896  1.7104  0.4200 -0.4376
 2040TIP3   OH227534   3.777   0.259  13.452  0.6842 -0.3601  0.4252
 2040TIP3    H127535   3.718   0.219  13.516  0.5504 -0.4989  0.2147
 2040TIP3    H227536   3.854   0.285  13.503  0.4752 -0.2534  0.6827
 2041TIP3   OH227537   2.000   4.628  12.557 -0.3050 -0.2023 -0.0478
 2041TIP3    H127538   1.947   4.687  12.610  1.3942  1.2501  0.1078
 2041TIP3    H227539   1.972   4.540  12.581 -2.1173  0.5225  0.5297
 2042TIP3   OH227540   2.989   6.158  13.114  0.2653  0.0421 -0.0640
 2042TIP3    H127541   2.955   6.245  13.094  2.8950  1.2298  0.3684
 2042TIP3    H227542   3.001   6.116  13.029  0.6622  0.7835 -0.3733
 2043TIP3   OH227543   0.641   4.585  13.016  0.1296  0.2158  0.1347
 2043TIP3    H127544   0.696   4.647  12.969 -0.0707  0.9943  0.9145
 2043TIP3    H227545   0.703   4.525  13.057  0.2655 -1.9634 -3.0512
 2044TIP3   OH227546   2.004   5.045  11.525 -0.3442 -0.5008  0.1634
 2044TIP3    H127547   1.949   4.976  11.488  0.8584 -0.7136 -1.2553
 2044TIP3    H227548   2.092   5.007  11.528  0.2880  0.8704 -0.3930
 2045TIP3   OH227549   3.150   5.417   9.433  0.3492 -0.5650 -0.3677
 2045TIP3    H127550   3.090   5.350   9.397 -0.1255 -0.2042 -0.2559
 2045TIP3    H227551   3.134   5.415   9.527  0.7422 -0.6855 -0.3048
 2046TIP3   OH227552   3.240   5.353   9.974  0.2668  0.3754  0.2969
 2046TIP3    H127553   3.312   5.301  10.007  1.0497 -0.0400 -1.9875
 2046TIP3    H227554   3.208   5.305   9.898 -1.1930  1.5102  0.1639
 2047TIP3   OH227555   4.012   1.317  10.746  0.4329  0.2842 -0.1455
 2047TIP3    H127556   4.107   1.321  10.750  0.3788  0.4015  0.9654
 2047TIP3    H227557   3.986   1.266  10.822 -0.4914  1.7469  0.5504
 2048TIP3   OH227558   5.548   2.949  10.854  0.4655  0.3819  0.6434
 2048TIP3    H127559   5.511   2.863  10.876  0.2196  1.0065  2.8093
 2048TIP3    H227560   5.473   3.005  10.837  0.6067  0.3222 -0.1967
 2049TIP3   OH227561   4.563   5.908  10.777 -0.4205 -0.9007 -0.2968
 2049TIP3    H127562   4.584   5.995  10.744 -0.6859 -0.6552  0.1836
 2049TIP3    H227563   4.503   5.872  10.710 -1.3865 -0.1963  0.1723
 2050TIP3   OH227564   5.203   1.667  11.564 -0.7349 -0.0829 -0.7204
 2050TIP3    H127565   5.124   1.619  11.585 -1.8697  1.6101 -1.0237
 2050TIP3    H227566   5.245   1.684  11.649 -2.1976  1.5124 -0.2966
 2051TIP3   OH227567   4.899   4.904  10.397  0.0593  0.1423  0.1281
 2051TIP3    H127568   4.918   4.942  10.482  1.8049 -0.0202 -0.1714
 2051TIP3    H227569   4.944   4.961  10.334 -0.0726 -0.5150 -0.5759
 2052TIP3   OH227570   4.269   5.762  11.864 -0.4174 -0.3418  0.1234
 2052TIP3    H127571   4.362   5.782  11.874  0.5685 -3.9759 -1.2397
 2052TIP3    H227572   4.235   5.762  11.954  0.7792  1.3109  0.6018
 2053TIP3   OH227573   4.934   5.970  13.089  0.1379  0.2721  0.2166
 2053TIP3    H127574   5.008   5.990  13.032 -0.4206  1.5351 -0.1035
 2053TIP3    H227575   4.973   5.935  13.169  0.9128 -1.8158 -1.0523
 2054TIP3   OH227576   2.559   4.554   9.295 -0.2627  0.2656 -0.5902
 2054TIP3    H127577   2.598   4.482   9.344 -0.7453  0.1755 -0.3318
 2054TIP3    H227578   2.630   4.587   9.240 -0.7236 -2.0945 -2.6871
 2055TIP3   OH227579   3.035   1.659  11.245  0.3915  0.3270  0.4194
 2055TIP3    H127580   3.057   1.588  11.185  1.3255 -0.3855  1.5886
 2055TIP3    H227581   3.114   1.713  11.248 -0.1521  1.1521 -0.1031
 2056TIP3   OH227582   5.525   2.084  14.929 -0.4059 -0.1349  0.2359
 2056TIP3    H127583   5.612   2.116  14.903 -0.7419  1.3829  0.9216
 2056TIP3    H227584   5.536   2.058  15.021 -0.6575 -0.0546  0.2872
 2057TIP3   OH227585   5.104   3.048  14.329 -0.1896  0.1204 -0.6539
 2057TIP3    H127586   5.129   3.096  14.250 -1.1492  2.4534  0.4256
 2057TIP3    H227587   5.170   2.979  14.336 -0.3805 -0.4798 -3.7659
 2058TIP3   OH227588   0.452   5.248  11.486 -0.0574  0.0078 -0.0573
 2058TIP3    H127589   0.396   5.259  11.562  2.3508  0.7490  1.6867
 2058TIP3    H227590   0.495   5.334  11.475  0.8264 -0.5659 -1.2602
 2059TIP3   OH227591   2.099   3.633  10.476 -0.2776 -0.3278 -0.5273
 2059TIP3    H127592   2.081   3.562  10.537 -1.7225  0.3390 -0.1538
 2059TIP3    H227593   2.185   3.666  10.502  0.0219 -1.3703 -0.1598
 2060TIP3   OH227594   3.917   2.970  13.421 -0.3702  0.3180 -0.3314
 2060TIP3    H127595   3.969   3.022  13.481 -0.4954 -0.2327  0.2544
 2060TIP3    H227596   3.841   2.942  13.473 -0.9752  0.6509 -1.0146
 2061TIP3   OH227597   4.792   2.074  13.217  0.0708 -0.0182 -0.2450
 2061TIP3    H127598   4.776   2.022  13.295  1.6218  2.0528  1.4984
 2061TIP3    H227599   4.860   2.025  13.170  2.2644  0.8414  1.8950
 2062TIP3   OH227600   1.456   5.707  12.201 -0.1944 -0.1162 -0.6289
 2062TIP3    H127601   1.425   5.789  12.238  1.2044 -1.2136  3.1987
 2062TIP3    H227602   1.383   5.646  12.213 -0.2014 -0.1495 -0.8357
 2063TIP3   OH227603   1.531   1.997  11.138 -0.2236  0.0426  0.2834
 2063TIP3    H127604   1.512   2.079  11.092  1.4251  0.2910  0.0141
 2063TIP3    H227605   1.543   1.933  11.068 -0.6833 -0.2548  0.4726
 2064TIP3   OH227606   5.341   2.421   9.763 -0.4548  0.2083 -0.1098
 2064TIP3    H127607   5.433   2.441   9.778 -0.1995 -1.4715  0.7106
 2064TIP3    H227608   5.339   2.326   9.750 -2.1009  0.1867  0.1442
 2065TIP3   OH227609   3.989   2.138  12.757  0.0217 -0.8598 -0.2639
 2065TIP3    H127610   3.965   2.065  12.813 -0.4070 -1.6883 -1.4961
 2065TIP3    H227611   3.907   2.166  12.716  0.5021 -1.1223 -1.4524
 2066TIP3   OH227612   1.093   6.660  12.540 -0.0862 -0.4024 -0.0061
 2066TIP3    H127613   1.001   6.656  12.514  0.1780 -1.2799 -0.8318
 2066TIP3    H227614   1.123   6.569  12.538  0.1263 -0.4503  2.8104
 2067TIP3   OH227615   2.668   6.790  13.073  0.3905 -0.4624  0.0272
 2067TIP3    H127616   2.631   6.712  13.115  1.5280 -0.1466  1.6783
 2067TIP3    H227617   2.603   6.816  13.008  0.1167 -2.9279 -0.7066
 2068TIP3   OH227618   2.857   3.942  10.160  0.3424 -0.0879  0.3497
 2068TIP3    H127619   2.806   3.909  10.085 -1.4979  3.9058 -0.2438
 2068TIP3    H227620   2.895   3.863  10.199  1.0636 -2.3579 -4.5460
 2069TIP3   OH227621   3.781   2.668  12.907 -0.2609  0.1871 -0.0294
 2069TIP3    H127622   3.811   2.758  12.892  0.1365  0.4751  2.3043
 2069TIP3    H227623   3.763   2.664  13.001 -1.2216 -1.8977 -0.2740
 2070TIP3   OH227624   4.250   6.224  11.831 -0.4367  0.3363 -0.0131
 2070TIP3    H127625   4.330   6.273  11.850  1.4414 -3.0528  1.3120
 2070TIP3    H227626   4.208   6.212  11.916 -1.2016  0.2070 -0.4029
 2071TIP3   OH227627   3.238   4.301   9.861 -0.0155  0.1609  0.2016
 2071TIP3    H127628   3.314   4.323   9.914 -0.0590 -0.9870  0.7540
 2071TIP3    H227629   3.273   4.253   9.786  0.0940  2.1460 -1.0895
 2072TIP3   OH227630   4.769   2.826  10.759 -0.2710  0.0638  0.0538
 2072TIP3    H127631   4.754   2.786  10.673 -0.6410  1.1012 -0.3698
 2072TIP3    H227632   4.746   2.918  10.747  1.1493  0.5343  0.8694
 2073TIP3   OH227633   1.593   0.981   9.927  0.2482  0.1452 -0.3349
 2073TIP3    H127634   1.600   0.886   9.924  0.3879  0.1198  0.6358
 2073TIP3    H227635   1.499   0.998   9.922  0.0054 -0.1864  2.6565
 2074TIP3   OH227636   0.554   2.739  12.373  0.3223  0.1946  0.0152
 2074TIP3    H127637   0.564   2.716  12.465  0.9916 -0.2949 -0.1798
 2074TIP3    H227638   0.566   2.834  12.370 -0.8861  0.3770  0.5973
 2075TIP3   OH227639   6.858   1.770  11.143  0.4154 -0.4368 -0.2019
 2075TIP3    H127640   6.867   1.794  11.051  0.8571  0.3939  0.0577
 2075TIP3    H227641   6.775   1.809  11.170  0.5494 -0.2166 -0.1050
 2076TIP3   OH227642   2.899   6.035   9.720 -0.3067 -0.1378 -0.6793
 2076TIP3    H127643   2.960   5.983   9.669 -0.3774 -0.0696 -0.8359
 2076TIP3    H227644   2.812   6.011   9.686 -0.3432  0.0354 -0.7122
 2077TIP3   OH227645   5.247   6.954  11.832 -0.1788 -0.2002  0.2320
 2077TIP3    H127646   5.156   6.929  11.816 -0.3248 -0.2066  1.0325
 2077TIP3    H227647   5.293   6.930  11.752 -0.8169 -0.5279 -0.0421
 2078TIP3   OH227648   3.166   4.510  13.099 -0.3342  0.0336 -0.0967
 2078TIP3    H127649   3.215   4.568  13.040 -0.0001  0.8650  0.9772
 2078TIP3    H227650   3.101   4.567  13.139 -0.6279 -0.5541  0.2575
 2079TIP3   OH227651   0.618   3.608  10.157  0.5485 -0.0624  0.3965
 2079TIP3    H127652   0.552   3.557  10.206 -0.2513 -0.4166 -1.0264
 2079TIP3    H227653   0.582   3.697  10.155 -1.3046 -0.8165 -2.7798
 2080TIP3   OH227654   1.142   0.361  11.052  0.3971 -0.1151 -0.5159
 2080TIP3    H127655   1.215   0.351  10.991  0.1816 -0.3892 -0.7324
 2080TIP3    H227656   1.159   0.295  11.120  1.3039  1.0405  0.3974
 2081TIP3   OH227657   2.881   4.344   9.958  0.1773  0.6751  0.4191
 2081TIP3    H127658   2.902   4.381  10.044  3.6438 -0.8006  0.3082
 2081TIP3    H227659   2.925   4.403   9.896 -0.3013  0.3926 -0.1882
 2082TIP3   OH227660   4.788   6.745  10.964 -0.4531  0.2566  0.3202
 2082TIP3    H127661   4.883   6.740  10.956 -0.4897  1.0515 -0.6838
 2082TIP3    H227662   4.763   6.660  11.001  0.5917 -0.1919  0.0273
 2083TIP3   OH227663   5.635   6.283  11.041 -0.8696  0.3183 -0.1962
 2083TIP3    H127664   5.711   6.327  11.079 -0.1864 -0.5132 -0.5909
 2083TIP3    H227665   5.600   6.348  10.979 -0.9341  0.9910  0.5390
 2084TIP3   OH227666   4.551   2.946  11.596 -0.0227  0.4435 -0.8308
 2084TIP3    H127667   4.637   2.905  11.599  0.1768  0.9702  0.7122
 2084TIP3    H227668   4.491   2.880  11.630  0.0602  0.7868  0.0025
 2085TIP3   OH227669   0.760   4.815  11.577 -0.2433  0.5581  0.7281
 2085TIP3    H127670   0.732   4.894  11.623  2.7864  0.4212  2.8642
 2085TIP3    H227671   0.827   4.846  11.515 -0.0921 -0.1390  0.5408
 2086TIP3   OH227672   7.099   5.894  10.731 -0.0795  0.0801  0.2619
 2086TIP3    H127673   7.179   5.858  10.692  0.8020  1.8182  0.3994
 2086TIP3    H227674   7.120   5.902  10.824 -0.7945 -0.4481  0.4643
 2087TIP3   OH227675   2.580   3.178  13.895 -1.1365  0.3304  0.0483
 2087TIP3    H127676   2.590   3.086  13.921 -1.0307  0.5712  0.8876
 2087TIP3    H227677   2.516   3.213  13.956  0.7670  1.4870  1.4368
 2088TIP3   OH227678   0.116   3.760  10.488  0.2695  0.5063 -0.4570
 2088TIP3    H127679   0.124   3.702  10.563  1.3584  1.1309 -0.0795
 2088TIP3    H227680   0.121   3.848  10.525 -0.0946  0.8367 -1.1636
 2089TIP3   OH227681   0.521   1.021  11.578 -0.2365 -0.0356 -0.3496
 2089TIP3    H127682   0.538   1.053  11.489  2.9369  0.4596  0.3465
 2089TIP3    H227683   0.550   0.930  11.576  1.7626  0.5343  0.6214
 2090TIP3   OH227684   5.880   0.758  13.883  0.5085  0.4111 -0.0944
 2090TIP3    H127685   5.944   0.827  13.901  0.4145  1.3146 -2.9440
 2090TIP3    H227686   5.909   0.718  13.801 -0.4448 -1.7695  0.5750
 2091TIP3   OH227687   3.347   4.245   9.606  0.4810  0.3207  0.0400
 2091TIP3    H127688   3.414   4.188   9.643  2.1774  2.2792  0.0288
 2091TIP3    H227689   3.394   4.324   9.579 -1.6501  1.2820 -0.9736
 2092TIP3   OH227690   5.616   6.145  12.605  0.4623 -0.1463  0.4237
 2092TIP3    H127691   5.525   6.172  12.596  0.5738  0.0218 -0.2407
 2092TIP3    H227692   5.650   6.148  12.516  0.7575 -1.4639  0.4868
 2093TIP3   OH227693   4.522   1.593  10.669 -0.0232 -0.1110  0.1939
 2093TIP3    H127694   4.504   1.521  10.730  1.1340  0.4852  1.2706
 2093TIP3    H227695   4.615   1.612  10.682  0.2262  0.0682 -1.7312
 2094TIP3   OH227696   1.178   0.752  10.475 -0.0137  0.7751 -0.0037
 2094TIP3    H127697   1.151   0.663  10.454  1.9607 -0.1578  1.2689
 2094TIP3    H227698   1.218   0.785  10.395 -1.0666  0.6599 -0.5836
 2095TIP3   OH227699   3.637   4.126  14.811 -0.1139  0.2602  0.1077
 2095TIP3    H127700   3.602   4.098  14.895  0.7791  1.0688  0.7541
 2095TIP3    H227701   3.732   4.120  14.821 -0.0101 -0.6465 -1.1889
 2096TIP3   OH227702   0.514   0.277  12.888  0.0941 -0.3791 -0.2786
 2096TIP3    H127703   0.564   0.243  12.814  0.0895 -0.7813 -0.1015
 2096TIP3    H227704   0.428   0.298  12.851  0.5807  0.8885 -0.7132
 2097TIP3   OH227705   5.387   4.921  14.579 -0.2026 -0.5658 -0.1390
 2097TIP3    H127706   5.401   4.833  14.615  1.7576  0.6765  2.3129
 2097TIP3    H227707   5.292   4.929  14.571 -0.5211 -2.0536  1.8382
 2098TIP3   OH227708   2.878   4.953  12.306 -0.0364 -0.0612  0.0610
 2098TIP3    H127709   2.878   4.958  12.401  0.1942 -0.6512  0.0973
 2098TIP3    H227710   2.820   4.879  12.286 -0.0897  0.0645 -0.2536
 2099TIP3   OH227711   2.060   3.152  11.630  0.2801 -0.8272  0.2098
 2099TIP3    H127712   2.151   3.175  11.611  0.2388 -0.1119  0.8462
 2099TIP3    H227713   2.030   3.222  11.688 -1.0036 -0.4717 -0.8581
 2100TIP3   OH227714   3.984   4.241  12.236  0.3322 -0.5667 -0.0211
 2100TIP3    H127715   4.037   4.305  12.284  0.9532  0.5689 -2.1380
 2100TIP3    H227716   4.038   4.162  12.234  1.3717  0.1460 -0.9376
 2101TIP3   OH227717   5.940   1.517  11.199 -0.2719  0.0422  0.2814
 2101TIP3    H127718   5.951   1.554  11.287 -3.2496 -1.5771  1.3970
 2101TIP3    H227719   5.877   1.575  11.157 -0.3327 -0.3110 -0.1164
 2102TIP3   OH227720   3.062   0.399  10.782 -0.2031  0.1755 -0.4535
 2102TIP3    H127721   3.059   0.494  10.775 -0.1384  0.0411 -2.4815
 2102TIP3    H227722   2.977   0.374  10.817 -0.5858  0.8890 -0.8883
 2103TIP3   OH227723   5.574   0.610  13.789 -0.2808 -0.1464 -0.0271
 2103TIP3    H127724   5.589   0.704  13.774 -0.4896  0.1330  1.3954
 2103TIP3    H227725   5.653   0.580  13.832 -1.5629  0.1653  2.6692
 2104TIP3   OH227726   5.361   3.425  13.452  0.0087  0.5613 -0.3560
 2104TIP3    H127727   5.392   3.505  13.493  1.2312  1.1009 -2.2703
 2104TIP3    H227728   5.297   3.454  13.387 -1.0075 -0.1744  0.3096
 2105TIP3   OH227729   4.653   5.408  14.238 -0.1276  0.3521  0.0155
 2105TIP3    H127730   4.613   5.340  14.184 -1.7772  0.4435  1.1101
 2105TIP3    H227731   4.698   5.360  14.307  0.6045  0.3105 -0.4717
 2106TIP3   OH227732   3.745   6.039  11.218  0.5974  0.6608 -0.3693
 2106TIP3    H127733   3.774   6.058  11.307  0.1349 -0.1083 -0.0508
 2106TIP3    H227734   3.813   5.983  11.182  0.4261  0.3759 -0.2513
 2107TIP3   OH227735   4.094   3.928  11.374  0.5988 -0.8503  0.2604
 2107TIP3    H127736   4.123   3.909  11.285  1.8962 -1.2197  0.7512
 2107TIP3    H227737   4.081   4.023  11.374  0.9028 -0.8022 -0.2458
 2108TIP3   OH227738   2.400   1.365  10.321  0.0820 -0.4805  0.4492
 2108TIP3    H127739   2.348   1.399  10.394 -1.4460  0.4922 -1.0604
 2108TIP3    H227740   2.485   1.406  10.331  0.2276 -1.1577  2.2656
 2109TIP3   OH227741   4.192   6.418  10.744 -0.1316  0.3506  0.3919
 2109TIP3    H127742   4.175   6.512  10.752 -1.3379  0.1330  0.4508
 2109TIP3    H227743   4.129   6.388  10.679  0.6831 -0.3093 -0.0927
 2110TIP3   OH227744   2.278   4.792  11.305 -0.9064 -0.0573  0.6949
 2110TIP3    H127745   2.230   4.807  11.223 -1.7646  0.8481  1.3629
 2110TIP3    H227746   2.353   4.852  11.300 -0.4473 -0.6602  0.1677
 2111TIP3   OH227747   2.637   2.846  12.177  0.2151 -0.0647  0.6687
 2111TIP3    H127748   2.695   2.847  12.252  1.0365  0.3952  0.0352
 2111TIP3    H227749   2.680   2.902  12.112  0.0029 -1.2012 -0.4891
 2112TIP3   OH227750   2.668   6.301  10.313  0.2602  0.1865  0.6113
 2112TIP3    H127751   2.577   6.273  10.310  0.1144  0.7255  0.1124
 2112TIP3    H227752   2.682   6.351  10.232  0.1772  2.6069  2.0322
 2113TIP3   OH227753   3.477   0.583  12.051  0.6561  0.5079 -0.0539
 2113TIP3    H127754   3.438   0.520  12.110  1.1639 -0.2070 -0.4805
 2113TIP3    H227755   3.483   0.664  12.102  0.0050  0.2168  0.4846
 2114TIP3   OH227756   3.285   0.653  11.885 -0.2986  0.3021 -0.4183
 2114TIP3    H127757   3.333   0.613  11.813 -1.1625  1.2107 -1.5268
 2114TIP3    H227758   3.338   0.635  11.963  2.3777  2.0934 -1.7134
 2115TIP3   OH227759   5.056   5.020  13.524  0.0113 -0.2421  0.1883
 2115TIP3    H127760   4.983   4.997  13.467 -0.0380  1.1780 -0.3419
 2115TIP3    H227761   5.126   5.044  13.463 -0.0766  1.3777  0.7150
 2116TIP3   OH227762   0.990   5.506  12.728 -0.5604  0.0458  0.2338
 2116TIP3    H127763   0.986   5.476  12.637  1.7494 -0.6588  0.3242
 2116TIP3    H227764   0.902   5.492  12.762 -1.0716 -1.0698 -1.4585
 2117TIP3   OH227765   3.468   2.446  11.980 -0.0038 -0.0377  0.3832
 2117TIP3    H127766   3.535   2.488  12.033  0.0812  0.6087 -0.2363
 2117TIP3    H227767   3.443   2.369  12.030 -1.7333  1.9077  2.6043
 2118TIP3   OH227768   2.932   1.288  11.230 -0.0200  0.0158  0.2429
 2118TIP3    H127769   2.862   1.236  11.269  0.8369  0.3773  2.3037
 2118TIP3    H227770   2.935   1.368  11.282  2.8617 -0.5899  1.1308
 2119TIP3   OH227771   3.221   3.094  11.305 -0.1296  0.6168 -0.4948
 2119TIP3    H127772   3.224   2.999  11.309  1.2003  0.6102 -1.4335
 2119TIP3    H227773   3.308   3.123  11.334 -1.0997  1.6176  1.5146
 2120TIP3   OH227774   1.438   0.977  13.378 -0.2352  0.2926  0.7799
 2120TIP3    H127775   1.519   1.019  13.350 -1.2235  1.4038 -0.4979
 2120TIP3    H227776   1.392   1.044  13.429  0.5000 -0.9653  3.1795
 2121TIP3   OH227777   1.821   3.891  13.139  0.0514 -0.6594 -0.5236
 2121TIP3    H127778   1.808   3.895  13.044 -0.6861 -1.0403 -0.4411
 2121TIP3    H227779   1.916   3.896  13.150  0.1207 -0.3014 -1.2664
 2122TIP3   OH227780   5.988   4.571  14.153 -0.0098  0.2448 -0.2215
 2122TIP3    H127781   5.968   4.637  14.219  1.0878 -0.2917  0.6684
 2122TIP3    H227782   5.904   4.548  14.115 -0.6256  0.6896  0.8722
 2123TIP3   OH227783   3.190   5.895  10.415 -0.3518  0.0563  0.4102
 2123TIP3    H127784   3.100   5.872  10.439 -0.7171 -0.1990 -1.1467
 2123TIP3    H227785   3.184   5.987  10.387  0.0519  0.3347  1.2442
 2124TIP3   OH227786   5.912   5.088  11.475 -0.1782 -0.1661  0.7439
 2124TIP3    H127787   5.826   5.110  11.439  0.3543  0.2813 -0.2823
 2124TIP3    H227788   5.893   5.030  11.548 -1.2685 -1.9041 -0.8562
 2125TIP3   OH227789   3.313   7.162  10.453 -0.3923  0.2331 -0.2321
 2125TIP3    H127790   3.332   7.122  10.538  0.8213 -0.6658 -0.9127
 2125TIP3    H227791   3.253   7.234  10.474 -0.8300 -0.5282  1.2742
 2126TIP3   OH227792   1.586   4.068  10.850 -0.0659 -0.3705 -0.1016
 2126TIP3    H127793   1.644   4.063  10.926 -0.3529 -2.9196 -0.0144
 2126TIP3    H227794   1.644   4.091  10.777  1.1043 -2.7908  0.0014
 2127TIP3   OH227795   6.673   2.972  11.395  0.6084  0.2017 -0.1595
 2127TIP3    H127796   6.658   2.910  11.466 -1.9900  2.3033  1.1717
 2127TIP3    H227797   6.705   2.917  11.323 -1.6623 -2.7317  0.9490
 2128TIP3   OH227798   0.053   6.702  12.330 -0.1105  0.8639  0.6820
 2128TIP3    H127799   0.003   6.776  12.297 -1.6864 -0.6699 -0.5005
 2128TIP3    H227800  -0.004   6.661  12.395 -0.5428 -0.9937 -0.7980
 2129TIP3   OH227801   3.450   4.461  11.245  0.1880 -0.1253 -0.0735
 2129TIP3    H127802   3.362   4.443  11.210  0.4214  0.0433 -0.7549
 2129TIP3    H227803   3.506   4.466  11.168  0.5840  0.9644  0.2735
 2130TIP3   OH227804   7.149   2.565  12.238 -0.1741  0.5924 -0.3504
 2130TIP3    H127805   7.245   2.572  12.243 -0.2437  1.6416 -0.4321
 2130TIP3    H227806   7.126   2.507  12.311  0.4269  1.2460  0.3759
 2131TIP3   OH227807   3.019   4.463  11.112 -0.4511 -0.0636  1.0653
 2131TIP3    H127808   3.063   4.505  11.186 -0.0025 -0.8607  1.2611
 2131TIP3    H227809   2.991   4.378  11.147 -0.7868 -0.1856  0.4964
 2132TIP3   OH227810   6.496   6.400  10.678 -0.1136 -0.8789 -0.2466
 2132TIP3    H127811   6.440   6.352  10.739  1.0163  0.0071  1.5017
 2132TIP3    H227812   6.547   6.332  10.634  2.0947 -1.2838  2.8329
 2133TIP3   OH227813   4.215   2.162  11.736  0.1994  0.3810  0.1679
 2133TIP3    H127814   4.170   2.114  11.666  0.9773 -1.8398  1.1849
 2133TIP3    H227815   4.249   2.095  11.795  2.3637  2.1279  0.9815
 2134TIP3   OH227816   3.305   4.518  11.525  0.3281 -0.1286  0.0200
 2134TIP3    H127817   3.354   4.448  11.481 -0.2339  0.2477 -1.2179
 2134TIP3    H227818   3.355   4.535  11.605  0.4589 -1.9700  0.3681
 2135TIP3   OH227819   1.207   1.593  13.861  0.1109 -0.5613 -0.0517
 2135TIP3    H127820   1.184   1.643  13.783  1.4199 -1.9250 -1.3438
 2135TIP3    H227821   1.142   1.618  13.926  0.5596  2.5819 -0.7545
 2136TIP3   OH227822   2.833   2.079  13.071  0.2973  0.0647 -0.4403
 2136TIP3    H127823   2.820   2.118  12.984  0.1575  0.4185 -0.2631
 2136TIP3    H227824   2.904   2.129  13.110 -0.2655  0.5257  0.0125
 2137TIP3   OH227825   4.211   2.744  12.428  0.1525  0.1837 -0.0189
 2137TIP3    H127826   4.281   2.790  12.382 -0.3387  1.7034  0.7033
 2137TIP3    H227827   4.249   2.721  12.513  0.4608 -0.9273 -0.4578
 2138TIP3   OH227828   4.598   4.481  13.521  0.4548 -0.0152  0.0902
 2138TIP3    H127829   4.653   4.442  13.588  1.8442  2.8537  0.7295
 2138TIP3    H227830   4.638   4.454  13.438  0.9739 -0.5312  0.5059
 2139TIP3   OH227831   5.824   1.455   9.956  0.2825  0.2820  0.2273
 2139TIP3    H127832   5.748   1.497   9.997  0.0392  2.2217 -2.0626
 2139TIP3    H227833   5.791   1.374   9.919 -1.1664  1.9918 -2.3610
 2140TIP3   OH227834   2.679   1.891  10.702 -0.4620 -0.3302 -0.5904
 2140TIP3    H127835   2.708   1.954  10.768  0.1175 -1.7111  0.4945
 2140TIP3    H227836   2.595   1.926  10.672 -0.0342  1.0862 -0.1952
 2141TIP3   OH227837   3.857   2.307  12.550 -0.1987  0.3157 -0.6872
 2141TIP3    H127838   3.789   2.356  12.503 -0.1969 -0.0800 -1.0976
 2141TIP3    H227839   3.908   2.375  12.595 -0.3684  0.6719 -1.0326
 2142TIP3   OH227840   4.730   5.839  11.015 -0.1427 -0.0392  0.3922
 2142TIP3    H127841   4.690   5.844  10.928  2.6191  0.5781 -0.8862
 2142TIP3    H227842   4.710   5.924  11.055 -0.7701 -0.0360  0.0893
 2143TIP3   OH227843   5.296   2.193  13.093  1.1100  0.1509  0.4117
 2143TIP3    H127844   5.390   2.180  13.104  1.3952  0.2475 -1.7569
 2143TIP3    H227845   5.282   2.285  13.117  1.8101  0.5457 -0.6676
 2144TIP3   OH227846   2.787   4.639  10.104  0.7987 -0.0123  0.3428
 2144TIP3    H127847   2.796   4.604  10.016  1.1172  1.4308 -0.2055
 2144TIP3    H227848   2.864   4.604  10.151  1.5289  0.5552 -0.4107
 2145TIP3   OH227849   3.208   0.729  13.073  0.1490 -0.3942  0.9535
 2145TIP3    H127850   3.132   0.787  13.063  1.3204  0.6695 -2.3210
 2145TIP3    H227851   3.266   0.776  13.133 -0.3958  0.2424  0.9923
 2146TIP3   OH227852   3.031   1.012  12.047  0.4934 -0.2881  0.6961
 2146TIP3    H127853   3.080   0.945  12.001  1.3145  0.0520  1.0739
 2146TIP3    H227854   3.097   1.076  12.075 -0.2758  0.7245  0.2651
 2147TIP3   OH227855   3.579   1.626  11.789 -0.0155 -0.1156  0.5965
 2147TIP3    H127856   3.534   1.681  11.724  1.3118  0.4881  0.1595
 2147TIP3    H227857   3.629   1.564  11.736  0.8937  0.2337  1.0299
 2148TIP3   OH227858   3.177   4.585  11.294 -0.6496 -0.2357 -0.5381
 2148TIP3    H127859   3.208   4.585  11.384  0.3152  0.1898 -0.8653
 2148TIP3    H227860   3.250   4.621  11.243 -1.0631 -0.7743 -1.5262
 2149TIP3   OH227861   3.146   3.537  10.044  0.2472 -0.5835  0.1493
 2149TIP3    H127862   3.232   3.507  10.074 -0.2082 -1.5974  0.4288
 2149TIP3    H227863   3.101   3.458  10.015 -1.0281 -0.2255  1.1002
 2150TIP3   OH227864   0.058   4.228  10.271 -0.0967  0.6680 -0.3432
 2150TIP3    H127865   0.022   4.315  10.287  2.4104  1.8566 -0.9462
 2150TIP3    H227866   0.084   4.229  10.179  0.4404 -0.5187 -0.2144
 2151TIP3   OH227867   6.938   5.520  13.061  0.3811 -0.2608 -0.2665
 2151TIP3    H127868   6.954   5.613  13.076  2.1508 -0.5813 -0.0606
 2151TIP3    H227869   6.843   5.512  13.061  0.2138  1.4969  0.0174
 2152TIP3   OH227870   0.094   4.274  11.508 -0.3743 -0.2159  0.8991
 2152TIP3    H127871   0.101   4.369  11.496  1.7129 -0.5146 -0.4631
 2152TIP3    H227872   0.064   4.241  11.423 -0.0370 -0.8759  1.0330
 2153TIP3   OH227873   5.882   6.884  13.221 -0.6892 -0.5849 -0.0283
 2153TIP3    H127874   5.850   6.801  13.257 -1.7481  0.7195  2.1613
 2153TIP3    H227875   5.977   6.879  13.232 -0.7843 -1.3179  0.5446
 2154TIP3   OH227876   5.465   4.339  11.964 -0.1540  0.3379 -0.2213
 2154TIP3    H127877   5.413   4.271  12.005 -0.3743  1.1008  0.7797
 2154TIP3    H227878   5.464   4.317  11.871  4.1487 -4.0608  0.5623
 2155TIP3   OH227879   4.441   3.873  10.618  0.2965 -0.3037  0.1728
 2155TIP3    H127880   4.371   3.885  10.554  0.4851 -1.4890 -0.2680
 2155TIP3    H227881   4.518   3.853  10.564  1.2616  2.1728  0.5660
 2156TIP3   OH227882   3.016   4.620   9.879  0.0792  0.1991  0.0066
 2156TIP3    H127883   3.083   4.679   9.913 -1.8877  2.0644  0.6855
 2156TIP3    H227884   2.988   4.659   9.796 -0.2946 -0.4976 -0.2066
 2157TIP3   OH227885   4.341   6.568  10.551  0.1671 -0.0491 -0.5396
 2157TIP3    H127886   4.289   6.489  10.569 -2.3251  1.3100 -1.4353
 2157TIP3    H227887   4.369   6.558  10.460  0.0745 -0.0484 -0.5690
 2158TIP3   OH227888   0.354   6.731  11.971 -0.3070  0.2773  0.3428
 2158TIP3    H127889   0.325   6.698  12.056  0.0477  0.2110  0.4350
 2158TIP3    H227890   0.445   6.758  11.985  0.3646 -1.4722 -0.5035
 2159TIP3   OH227891   5.955   7.010  10.811  0.3979  0.3681 -0.1175
 2159TIP3    H127892   5.957   7.011  10.907 -1.9970  0.4044 -0.0269
 2159TIP3    H227893   6.029   6.955  10.786  0.3567 -0.6101  1.7966
 2160TIP3   OH227894   2.298   5.111   9.681  0.0809 -0.2448 -0.0903
 2160TIP3    H127895   2.383   5.133   9.643  0.2856 -0.8002  0.0495
 2160TIP3    H227896   2.287   5.018   9.665  0.0233 -0.4192  0.9243
 2161TIP3   OH227897   2.697   4.845  11.576 -0.0728  0.0193 -0.3259
 2161TIP3    H127898   2.619   4.852  11.631  0.5594  0.7215  0.4932
 2161TIP3    H227899   2.664   4.850  11.487 -1.0999 -0.9873 -0.0174
 2162TIP3   OH227900   2.129   4.271  10.087 -0.8737  0.4766  0.1804
 2162TIP3    H127901   2.168   4.277  10.174 -1.6900 -0.7129  0.6488
 2162TIP3    H227902   2.203   4.270  10.028 -0.2008 -0.9572  1.0135
 2163TIP3   OH227903   1.088   4.888  10.707  0.1281 -0.3676  0.5444
 2163TIP3    H127904   1.126   4.823  10.766 -0.0099 -0.8582  0.0943
 2163TIP3    H227905   0.994   4.874  10.711  0.1431 -0.6622 -0.0938
 2164TIP3   OH227906   2.301   1.492  12.514  0.2536  0.9696 -0.8449
 2164TIP3    H127907   2.342   1.499  12.601 -2.0948 -0.0154  0.3882
 2164TIP3    H227908   2.373   1.504  12.453  2.3067 -0.2027  1.2415
 2165TIP3   OH227909   3.356   7.064   9.801 -0.3592 -0.3567  0.2713
 2165TIP3    H127910   3.392   6.987   9.757 -0.9823 -1.3137  1.4227
 2165TIP3    H227911   3.323   7.119   9.730 -1.2895 -1.8480 -0.4590
 2166TIP3   OH227912   6.580   4.030   9.725  0.0121  0.4042 -0.0260
 2166TIP3    H127913   6.509   3.970   9.750  1.6639 -1.8206 -0.4497
 2166TIP3    H227914   6.657   3.973   9.716  1.2868  2.3462 -2.1005
 2167TIP3   OH227915   4.086   3.529  11.238 -0.3354  0.1237 -0.3026
 2167TIP3    H127916   4.180   3.536  11.220 -0.4698  0.4338 -0.8842
 2167TIP3    H227917   4.045   3.531  11.152 -0.7244 -2.5527 -0.2320
 2168TIP3   OH227918   2.650   4.155  10.009 -0.1866  0.2396  0.0954
 2168TIP3    H127919   2.735   4.185   9.977 -0.6777 -1.5855 -3.1052
 2168TIP3    H227920   2.600   4.236  10.021  1.0438  1.1804 -0.9107
 2169TIP3   OH227921   2.471   0.842  11.209 -0.3744  0.0084  0.1832
 2169TIP3    H127922   2.411   0.786  11.258 -0.5053  0.1072  0.1390
 2169TIP3    H227923   2.434   0.930  11.218 -0.5321 -0.0066 -0.2883
 2170TIP3   OH227924   4.303   3.768  10.158  0.4848  0.3020  0.2036
 2170TIP3    H127925   4.259   3.684  10.145  2.8297 -0.7544 -1.2838
 2170TIP3    H227926   4.378   3.747  10.215 -0.3014  1.8602  1.8433
 2171TIP3   OH227927   4.897   6.266  11.088  0.2428 -0.0029  0.3035
 2171TIP3    H127928   4.898   6.362  11.095  0.6216  0.0809 -0.7236
 2171TIP3    H227929   4.807   6.242  11.108  0.5742  0.3982  2.4217
 2172TIP3   OH227930   3.285   4.938  11.519 -0.1531  0.4856 -0.0672
 2172TIP3    H127931   3.346   5.011  11.525  0.0376  0.4841 -1.8473
 2172TIP3    H227932   3.316   4.876  11.585  2.6223 -0.1232 -1.8771
 2173TIP3   OH227933   2.353   1.750  13.745  0.4030 -0.0436  0.3578
 2173TIP3    H127934   2.392   1.792  13.669  1.6624 -1.0311  0.4446
 2173TIP3    H227935   2.304   1.820  13.788  1.4327  1.0279 -0.1791
 2174TIP3   OH227936   5.450   3.356  11.157 -0.1189  0.1822  0.0237
 2174TIP3    H127937   5.468   3.297  11.085 -0.0581  0.2636 -0.0280
 2174TIP3    H227938   5.372   3.404  11.130 -0.0784  0.2339 -0.0017
 2175TIP3   OH227939   2.325   4.426  12.797  0.2818  0.0209  0.0072
 2175TIP3    H127940   2.383   4.384  12.733 -0.1362 -0.5478 -0.0030
 2175TIP3    H227941   2.371   4.417  12.880  0.0539 -0.7459  0.0543
 2176TIP3   OH227942   1.078   4.746  12.205 -0.1082  0.0519 -0.3667
 2176TIP3    H127943   1.071   4.735  12.110  0.6031  2.4659 -0.7163
 2176TIP3    H227944   1.172   4.743  12.222 -0.1510  1.1895  0.0627
 2177TIP3   OH227945   3.475   0.754  14.061  0.0281  0.1084  0.2170
 2177TIP3    H127946   3.453   0.838  14.022  0.6162  0.0468 -0.2414
 2177TIP3    H227947   3.524   0.707  13.994 -2.0287 -1.4054 -0.2732
 2178TIP3   OH227948   3.545   3.283  11.556 -0.0464  0.5892 -0.4408
 2178TIP3    H127949   3.516   3.331  11.634 -0.3936  0.5303 -0.5330
 2178TIP3    H227950   3.538   3.347  11.485 -2.2745 -0.1029 -0.8986
 2179TIP3   OH227951   7.058   3.171  10.670  0.1017 -0.0924 -0.3816
 2179TIP3    H127952   7.134   3.158  10.613 -1.0905  0.4663 -2.1488
 2179TIP3    H227953   7.041   3.084  10.706  2.9725  0.2264  1.9071
 2180TIP3   OH227954   6.437   5.500  11.496 -0.0756 -0.4867  0.6370
 2180TIP3    H127955   6.469   5.432  11.437  0.4413 -0.3030  0.6993
 2180TIP3    H227956   6.487   5.578  11.472 -0.6278 -0.1408  0.6005
 2181TIP3   OH227957   3.557   4.721   9.483  0.4997 -0.0104  0.4229
 2181TIP3    H127958   3.621   4.791   9.470 -0.1793  0.4616 -0.4422
 2181TIP3    H227959   3.508   4.747   9.561  0.3267  0.4328  0.1728
 2182TIP3   OH227960   3.745   7.065  11.871 -0.2359  0.3359 -0.1291
 2182TIP3    H127961   3.800   7.107  11.937  1.6307 -0.5389 -1.0978
 2182TIP3    H227962   3.695   6.999  11.920  0.0464  0.6861  0.6386
 2183TIP3   OH227963   5.560   4.553  10.691 -0.0110 -0.4668  0.0887
 2183TIP3    H127964   5.559   4.607  10.612  1.3642  0.0480  0.4058
 2183TIP3    H227965   5.612   4.476  10.666 -0.5037 -0.8262  0.1652
 2184TIP3   OH227966   2.397   2.436  11.986  0.3250 -0.3069  0.4398
 2184TIP3    H127967   2.384   2.407  12.076  1.0706 -2.0708  0.0019
 2184TIP3    H227968   2.441   2.362  11.943  0.6944  0.8159 -1.1625
 2185TIP3   OH227969   7.007   6.822  14.294 -0.5938 -0.9539 -0.2705
 2185TIP3    H127970   7.001   6.763  14.219 -0.6390 -3.2390  1.4892
 2185TIP3    H227971   7.101   6.834  14.308 -0.5773  1.3518 -2.0879
 2186TIP3   OH227972   6.358   0.090  10.426 -0.2914 -0.3371  0.0800
 2186TIP3    H127973   6.392   0.007  10.394 -0.9976 -0.8915  0.7587
 2186TIP3    H227974   6.435   0.137  10.458  0.5918  0.6282 -3.2505
 2187TIP3   OH227975   6.122   1.572  10.758  0.2690 -0.3908  0.6337
 2187TIP3    H127976   6.208   1.561  10.799 -0.6584 -1.0808  2.4767
 2187TIP3    H227977   6.090   1.655  10.793 -0.1929 -0.5847  0.6656
 2188TIP3   OH227978   4.973   5.778  11.501  0.1182  0.7232 -0.0984
 2188TIP3    H127979   4.952   5.750  11.590  1.2829  2.7236  0.8386
 2188TIP3    H227980   4.976   5.697  11.450 -0.9640 -0.3958  1.5840
 2189TIP3   OH227981   1.717   1.784  12.391  0.6080  0.0727 -0.3470
 2189TIP3    H127982   1.743   1.706  12.343 -0.2271  1.2543 -2.7892
 2189TIP3    H227983   1.636   1.812  12.350 -0.1253  1.1622  1.7443
 2190TIP3   OH227984   6.469   0.130  11.495  0.1408 -0.0560  0.1032
 2190TIP3    H127985   6.488   0.202  11.435  0.9393  0.2961  0.7645
 2190TIP3    H227986   6.499   0.052  11.449  0.9721  0.2397  0.1261
 2191TIP3   OH227987   0.541   3.708  12.500 -0.0017 -0.4030  0.2554
 2191TIP3    H127988   0.535   3.803  12.493  0.1998 -0.3160  1.1852
 2191TIP3    H227989   0.626   3.692  12.542  0.4571 -1.0372 -0.8919
 2192TIP3   OH227990   4.244   4.798  13.098 -0.2887  0.1363 -0.0178
 2192TIP3    H127991   4.165   4.779  13.149 -0.7078 -1.6958 -1.3239
 2192TIP3    H227992   4.236   4.891  13.077 -0.8876  0.5446  1.8887
 2193TIP3   OH227993   3.985   4.066  10.168 -0.1637 -0.5125  0.1646
 2193TIP3    H127994   4.017   4.017  10.093  1.4311 -1.7284  1.6226
 2193TIP3    H227995   3.902   4.024  10.190  0.5715 -1.7414  0.6140
 2194TIP3   OH227996   7.088   4.240   9.766  0.8108 -0.2984  0.0164
 2194TIP3    H127997   7.117   4.157   9.728 -0.7331 -0.9928  0.3224
 2194TIP3    H227998   7.000   4.222   9.799  0.4914  1.4397  0.1621
 2195TIP3   OH227999   4.167   6.764  12.268  0.1103  0.0760 -0.3104
 2195TIP3    H128000   4.137   6.853  12.288 -1.3066 -0.7104  1.2674
 2195TIP3    H228001   4.202   6.732  12.352  0.0347 -1.0695 -0.7113
 2196TIP3   OH228002   4.342   3.953  12.047  0.0810  0.8515  0.0087
 2196TIP3    H128003   4.363   3.863  12.074  2.4126  1.0935 -0.9494
 2196TIP3    H228004   4.246   3.955  12.048  0.0115 -1.2100  1.4639
 2197TIP3   OH228005   6.031   0.218  12.291  0.1136 -0.0134  0.3882
 2197TIP3    H128006   6.057   0.310  12.289 -0.1589  0.0894  1.2438
 2197TIP3    H228007   5.938   0.220  12.316 -0.2614 -0.4598 -0.9089
 2198TIP3   OH228008   4.799   3.064  13.206 -0.0861  0.3144  0.0656
 2198TIP3    H128009   4.743   2.986  13.203  0.2998  0.0164  0.4591
 2198TIP3    H228010   4.754   3.123  13.267 -0.6476  0.6149 -0.6387
 2199TIP3   OH228011   4.263   0.362   9.925 -0.4456 -0.1586  0.1681
 2199TIP3    H128012   4.242   0.299   9.856  0.0967  1.6288 -1.6871
 2199TIP3    H228013   4.178   0.385   9.964 -0.9418  0.0133 -0.9954
 2200TIP3   OH228014   1.800   2.940  10.494  0.3788 -0.5632 -0.2205
 2200TIP3    H128015   1.708   2.922  10.516  0.5207  0.5884  1.3849
 2200TIP3    H228016   1.799   3.028  10.457  0.8157 -0.5834 -0.2832
 2201TIP3   OH228017   6.770   1.499  13.899  0.0119  0.6155  0.1448
 2201TIP3    H128018   6.767   1.489  13.994  1.9708  0.6204  0.2314
 2201TIP3    H228019   6.679   1.501  13.872 -0.5628  0.3111  1.9981
 2202TIP3   OH228020   3.481   3.568  10.867  0.2385  0.2946 -0.0736
 2202TIP3    H128021   3.515   3.500  10.810 -1.3597 -1.6102  1.1926
 2202TIP3    H228022   3.531   3.559  10.948 -1.4221 -0.8363  0.8692
 2203TIP3   OH228023   0.796   5.988  11.642 -0.2689  1.0310  0.0825
 2203TIP3    H128024   0.812   5.979  11.736 -1.5590  1.3262  0.3480
 2203TIP3    H228025   0.854   5.924  11.601  0.7461  1.3300  1.0423
 2204TIP3   OH228026   6.915   6.647  12.109  0.2722 -0.0317 -0.2335
 2204TIP3    H128027   6.853   6.578  12.135  1.2200 -1.7512 -2.3660
 2204TIP3    H228028   6.902   6.717  12.173 -0.6360 -2.2463  2.0586
 2205TIP3   OH228029   4.499   5.767  11.576  0.2192  0.0287 -0.5005
 2205TIP3    H128030   4.534   5.842  11.624  3.5181 -1.4391 -0.4278
 2205TIP3    H228031   4.545   5.770  11.492 -1.3673 -0.5884 -1.4044
 2206TIP3   OH228032   1.734   1.522  10.406 -0.0263 -0.5197 -0.2362
 2206TIP3    H128033   1.807   1.462  10.392  0.9658  0.7480 -0.5319
 2206TIP3    H228034   1.662   1.486  10.354  0.0875 -2.2944  0.8110
 2207TIP3   OH228035   2.514   5.834  10.993  0.6474  0.3967  0.7224
 2207TIP3    H128036   2.546   5.865  10.908  1.8061  1.3877  1.5007
 2207TIP3    H228037   2.495   5.914  11.042  0.1960 -0.1650  1.4757
 2208TIP3   OH228038   2.643   0.112  14.082  0.3426 -0.2365  0.5556
 2208TIP3    H128039   2.709   0.051  14.049  1.4123  0.0770  2.0569
 2208TIP3    H228040   2.681   0.198  14.066 -2.0695  0.1913 -3.4815
 2209TIP3   OH228041   2.197   4.487  10.781  0.4571  0.6479  0.5945
 2209TIP3    H128042   2.114   4.444  10.761  0.7825  0.3914 -0.1944
 2209TIP3    H228043   2.186   4.577  10.748  0.2587  0.8063  1.0760
 2210TIP3   OH228044   4.620   5.592  13.791  0.1155  0.3199 -0.5492
 2210TIP3    H128045   4.702   5.542  13.792  0.5637  1.0148 -1.2720
 2210TIP3    H228046   4.589   5.585  13.700 -0.6685 -0.0066 -0.2562
 2211TIP3   OH228047   2.920   3.711  11.504  0.7883 -0.0661 -0.1767
 2211TIP3    H128048   2.923   3.741  11.414  0.3267 -0.7868 -0.4326
 2211TIP3    H228049   2.831   3.677  11.516  1.1306 -0.8262  0.2745
 2212TIP3   OH228050   5.058   1.884  12.776 -0.0803 -0.0526  0.2214
 2212TIP3    H128051   5.054   1.807  12.720 -1.2543  0.8667 -0.9963
 2212TIP3    H228052   5.045   1.850  12.865  1.9720 -1.5449 -0.0112
 2213TIP3   OH228053   1.270   6.224  10.905  0.6184  0.0531 -0.2412
 2213TIP3    H128054   1.255   6.235  10.999  0.6346  1.6534 -0.4019
 2213TIP3    H228055   1.223   6.297  10.864  0.0163 -1.0374 -1.5388
 2214TIP3   OH228056   2.567   3.598  13.427  1.0826  0.2838  0.6669
 2214TIP3    H128057   2.633   3.534  13.402  3.0139  2.2698  0.5640
 2214TIP3    H228058   2.512   3.608  13.349 -0.3433 -2.5487  1.2709
 2215TIP3   OH228059   4.196   2.669  12.733  0.4152 -0.3187  0.9359
 2215TIP3    H128060   4.238   2.754  12.749 -0.6699  0.0782  1.7387
 2215TIP3    H228061   4.254   2.606  12.776  2.0400 -0.1776 -0.9561
 2216TIP3   OH228062   4.168   3.589  15.102  0.2739 -0.2833 -0.0277
 2216TIP3    H128063   4.136   3.640  15.176  0.5201 -0.9693  0.5505
 2216TIP3    H228064   4.091   3.578  15.046  0.0381  0.0510  0.2266
 2217TIP3   OH228065   4.619   7.131  11.772 -0.1078 -0.1872 -0.0298
 2217TIP3    H128066   4.572   7.210  11.800  0.5115  0.3354 -0.4638
 2217TIP3    H228067   4.656   7.095  11.853  1.6564  1.3110 -0.1413
 2218TIP3   OH228068   4.180   2.623   0.450  0.2254  0.6143 -0.5130
 2218TIP3    H128069   4.093   2.625   0.490  0.2209  0.0858 -0.4857
 2218TIP3    H228070   4.200   2.530   0.443  1.5127  0.7319  1.0816
 2219TIP3   OH228071   5.693   4.579  11.316 -0.0794 -0.3274 -0.0911
 2219TIP3    H128072   5.684   4.564  11.222  0.6333 -0.7735 -0.0894
 2219TIP3    H228073   5.738   4.664  11.322 -1.2309  0.3006 -0.1312
 2220TIP3   OH228074   4.771   5.207   9.578  0.1719  0.0513 -0.0269
 2220TIP3    H128075   4.749   5.294   9.610  0.9712  0.8201 -1.5252
 2220TIP3    H228076   4.866   5.203   9.583  0.1832 -0.4852 -0.6038
 2221TIP3   OH228077   5.374   3.448  12.342 -1.1539 -0.3999  0.3697
 2221TIP3    H128078   5.361   3.437  12.436 -2.7093 -1.3124  0.0703
 2221TIP3    H228079   5.389   3.359  12.309 -0.5004 -0.0771 -0.2405
 2222TIP3   OH228080   0.955   0.001  11.135 -0.1171 -0.4686  0.1471
 2222TIP3    H128081   0.939  -0.007  11.229 -1.1198 -2.0976 -0.1500
 2222TIP3    H228082   0.873   0.035  11.099 -0.0991 -0.9009 -0.2954
 2223TIP3   OH228083   2.387   5.424  10.716  0.3784  0.5092 -0.4489
 2223TIP3    H128084   2.483   5.428  10.725  0.3289  0.2720  0.1395
 2223TIP3    H228085   2.369   5.478  10.639  0.8190  2.1700  0.5780
 2224TIP3   OH228086   6.239   2.156  10.593  0.1559  0.3794 -0.2227
 2224TIP3    H128087   6.333   2.164  10.606  0.2556  1.1539 -1.3340
 2224TIP3    H228088   6.230   2.088  10.526 -0.1720 -1.0261  1.2188
 2225TIP3   OH228089   6.010   3.637   9.362  0.9318  0.5240  0.0536
 2225TIP3    H128090   6.021   3.544   9.384  0.9573  1.1631  3.0564
 2225TIP3    H228091   5.928   3.641   9.313  0.6746 -1.0172  0.3281
 2226TIP3   OH228092   6.614   1.339  10.442  0.6831  0.3129 -0.4371
 2226TIP3    H128093   6.537   1.362  10.493  0.7230 -2.2248  0.8620
 2226TIP3    H228094   6.581   1.282  10.372  1.3329 -0.6092 -0.0052
 2227TIP3   OH228095   1.009   5.666  11.026 -0.1744 -0.2940 -0.1873
 2227TIP3    H128096   1.048   5.733  11.082 -0.9478  0.5934 -0.7034
 2227TIP3    H228097   0.948   5.619  11.083  1.9207 -1.9858  0.7459
 2228TIP3   OH228098   4.400   3.485   9.833  0.1565  0.0641  0.3910
 2228TIP3    H128099   4.361   3.404   9.799 -0.1737 -0.1714  1.2962
 2228TIP3    H228100   4.331   3.550   9.826  1.1305  0.8329 -2.3958
 2229TIP3   OH228101   3.218   0.311   9.986 -0.3853  0.3010  0.2380
 2229TIP3    H128102   3.213   0.272  10.074  0.6205  1.5496  0.8667
 2229TIP3    H228103   3.129   0.304   9.952 -1.0805  0.9327  1.8589
 2230TIP3   OH228104   2.978   1.116  12.775  0.5313  0.0819  0.1427
 2230TIP3    H128105   3.022   1.102  12.859 -0.1676  0.7934  0.6316
 2230TIP3    H228106   3.022   1.193  12.738  0.7831 -0.1818 -0.1043
 2231TIP3   OH228107   3.308   1.846  13.565 -0.9661 -0.3039  0.4562
 2231TIP3    H128108   3.223   1.849  13.609 -1.0641 -1.3113  0.3459
 2231TIP3    H228109   3.298   1.905  13.490 -1.0649  0.7733  1.3073
 2232TIP3   OH228110   5.378   6.883  11.256 -0.3826  0.1204 -0.1550
 2232TIP3    H128111   5.415   6.837  11.331  0.7237 -0.7284 -1.2140
 2232TIP3    H228112   5.362   6.814  11.191 -1.8739  0.7634 -0.4921
 2233TIP3   OH228113   0.595   2.671  11.695 -0.0406  0.7677  0.7284
 2233TIP3    H128114   0.556   2.738  11.640 -2.3579 -2.2574 -1.5262
 2233TIP3    H228115   0.520   2.626  11.734  1.2635 -2.5264 -0.3762
 2234TIP3   OH228116   4.949   4.292   9.940 -0.1166 -0.4833 -0.3691
 2234TIP3    H128117   4.897   4.338   9.874  0.7609  1.3294  0.1609
 2234TIP3    H228118   4.885   4.244   9.993 -1.0153 -0.1772 -1.1720
 2235TIP3   OH228119   4.544   0.318  10.535  0.4311 -0.2098  0.2318
 2235TIP3    H128120   4.501   0.266  10.467 -1.3235  0.0682  1.0956
 2235TIP3    H228121   4.532   0.268  10.616  1.6556 -0.0734  0.5149
 2236TIP3   OH228122   0.235   5.381   1.494 -0.1255 -0.5841 -0.3596
 2236TIP3    H128123   0.212   5.300   1.540  1.9534 -1.4603 -0.8021
 2236TIP3    H228124   0.302   5.422   1.549 -0.7843  0.5887 -0.4062
 2237TIP3   OH228125   3.910   3.264  11.612 -0.2670 -0.2921  0.1428
 2237TIP3    H128126   3.983   3.322  11.593  0.3669 -0.8472  0.8269
 2237TIP3    H228127   3.875   3.239  11.526 -0.1394  0.5782 -0.1644
 2238TIP3   OH228128   4.598   5.004   9.512 -0.2848  0.5073  0.4458
 2238TIP3    H128129   4.556   5.037   9.433 -0.4968  0.3591  0.4946
 2238TIP3    H228130   4.674   5.061   9.525 -0.9689  1.3357  0.8533
 2239TIP3   OH228131   6.564   4.151  10.541 -0.2381  0.1836 -0.8464
 2239TIP3    H128132   6.621   4.224  10.517  0.3385 -0.2776 -0.9026
 2239TIP3    H228133   6.498   4.149  10.472 -0.2594  0.6508 -0.8449
 2240TIP3   OH228134   0.479   1.493  12.381  0.1407  0.2206 -0.2216
 2240TIP3    H128135   0.447   1.403  12.387 -1.0847  0.6513 -0.3213
 2240TIP3    H228136   0.437   1.529  12.303 -0.4990  1.3402  0.6280
 2241TIP3   OH228137   2.334   5.220  11.237  0.3459 -0.0062 -0.2723
 2241TIP3    H128138   2.363   5.311  11.247 -0.1183  0.0884  0.1732
 2241TIP3    H228139   2.271   5.223  11.165 -1.3410  0.3846  1.2084
 2242TIP3   OH228140   0.838   0.799  11.007 -0.2102 -0.5788  0.4948
 2242TIP3    H128141   0.754   0.768  11.040 -0.2347 -1.4761 -0.3848
 2242TIP3    H228142   0.818   0.839  10.923  0.5137 -2.6990 -0.7277
 2243TIP3   OH228143   4.024   3.652  10.794  0.7501  0.5668  0.6855
 2243TIP3    H128144   3.939   3.648  10.752  1.0713  1.5090 -0.0643
 2243TIP3    H228145   4.071   3.575  10.762  0.5946  0.6749  0.2060
 2244TIP3   OH228146   4.654   4.455  11.027 -0.0406 -0.3868 -0.1564
 2244TIP3    H128147   4.749   4.455  11.016  0.1037 -1.1152  1.0099
 2244TIP3    H228148   4.635   4.376  11.077 -1.1312  0.4127  0.7360
 2245TIP3   OH228149   5.463   5.055  12.353  0.6283  0.2743 -0.4401
 2245TIP3    H128150   5.436   5.045  12.262 -0.5698  0.0890 -0.0599
 2245TIP3    H228151   5.480   4.966  12.383  1.0598  0.3382 -0.4757
 2246TIP3   OH228152   1.278   4.433  12.531  0.6346 -0.1741  1.2132
 2246TIP3    H128153   1.204   4.438  12.470  0.9289  2.5482  0.9979
 2246TIP3    H228154   1.334   4.363  12.496 -2.1957 -2.8437  1.8498
 2247TIP3   OH228155   2.702   2.226  12.414  0.3878  0.3704 -0.2570
 2247TIP3    H128156   2.762   2.173  12.363 -1.8052 -0.8970 -1.5950
 2247TIP3    H228157   2.743   2.233  12.501  1.7899 -1.5710 -0.7471
 2248TIP3   OH228158   1.028   7.035  12.559  0.3098  0.0905 -1.2055
 2248TIP3    H128159   1.025   7.131  12.559  2.1444  0.1559 -1.7688
 2248TIP3    H228160   1.031   7.011  12.467 -0.4527 -0.5450 -1.0762
 2249TIP3   OH228161   1.835   6.771  11.382  0.0567  0.4775  0.1772
 2249TIP3    H128162   1.823   6.785  11.288  1.4108 -1.3314 -0.2882
 2249TIP3    H228163   1.824   6.858  11.421 -1.1650  1.1298 -1.5797
 2250TIP3   OH228164   2.983   5.348  10.973  0.6424  0.0754 -0.4933
 2250TIP3    H128165   3.005   5.275  10.914 -1.2820 -1.9453  1.2473
 2250TIP3    H228166   3.034   5.331  11.052 -0.8978 -0.1471  0.4504
 2251TIP3   OH228167   2.431   2.780  11.367 -0.3089 -0.6502  0.5820
 2251TIP3    H128168   2.466   2.759  11.453  0.6126 -2.9560 -0.3306
 2251TIP3    H228169   2.369   2.710  11.349 -3.2147  1.7349  0.8580
 2252TIP3   OH228170   0.987   4.891  10.989 -0.6850 -0.5213  0.1889
 2252TIP3    H128171   1.048   4.831  10.945 -2.2970 -2.1865  0.1523
 2252TIP3    H228172   1.042   4.965  11.016  1.5731 -2.4525  1.1092
 2253TIP3   OH228173   5.723   5.738   9.253  0.4103  0.6782 -0.0623
 2253TIP3    H128174   5.782   5.752   9.327 -0.7424  0.4966  0.9061
 2253TIP3    H228175   5.692   5.648   9.264  0.2799  0.6226 -0.8171
 2254TIP3   OH228176   5.143   4.188   9.767 -0.2976 -0.3037 -0.1222
 2254TIP3    H128177   5.224   4.212   9.811 -0.5974 -1.2667  0.9685
 2254TIP3    H228178   5.074   4.232   9.818 -0.6172 -1.0866  0.1207
 2255TIP3   OH228179   4.233   4.847   9.909 -0.7009 -0.7424  0.4815
 2255TIP3    H128180   4.276   4.807   9.834  1.7043  0.9108  0.9082
 2255TIP3    H228181   4.201   4.932   9.876 -1.2537 -0.7984  0.8613
 2256TIP3   OH228182   0.371   1.205  12.023  0.4511 -0.4396 -0.2281
 2256TIP3    H128183   0.359   1.182  12.115 -1.3035  0.3522 -0.2383
 2256TIP3    H228184   0.394   1.298  12.025 -0.2033 -0.2681 -0.6176
 2257TIP3   OH228185   6.179   6.580  11.823 -0.4118 -0.1439  0.3325
 2257TIP3    H128186   6.266   6.572  11.862  0.1806  0.4866 -0.8171
 2257TIP3    H228187   6.165   6.496  11.779 -0.8903 -0.6870  1.5243
 2258TIP3   OH228188   4.432   2.894  12.049 -0.2034 -0.0786 -0.0092
 2258TIP3    H128189   4.424   2.812  12.098 -0.8032 -0.0245 -0.0089
 2258TIP3    H228190   4.515   2.931  12.078 -1.3669  0.8035  2.2871
 2259TIP3   OH228191   5.278   2.090  11.071  0.2826 -0.0734  0.7758
 2259TIP3    H128192   5.329   2.138  11.005  0.4585 -0.2453  0.7871
 2259TIP3    H228193   5.314   2.002  11.070 -0.4287 -0.3537  0.3633
 2260TIP3   OH228194   4.965   6.991  10.463  0.0180 -0.7287 -0.0241
 2260TIP3    H128195   4.966   7.065  10.403 -1.2613 -0.7884 -0.1241
 2260TIP3    H228196   5.018   6.924  10.419 -1.3238 -0.9525 -1.3322
 2261TIP3   OH228197   4.226   1.949  10.467  0.4045  0.3272  0.2813
 2261TIP3    H128198   4.216   1.877  10.405  1.2752  0.5517 -0.1338
 2261TIP3    H228199   4.219   1.908  10.553 -0.6558 -0.0135  0.0404
 2262TIP3   OH228200   6.674   4.098  11.194  0.9306 -0.0740 -0.6014
 2262TIP3    H128201   6.636   4.023  11.238  0.6028 -0.0425 -0.8285
 2262TIP3    H228202   6.646   4.089  11.103 -1.1219  1.6048 -0.1776
 2263TIP3   OH228203   1.877   5.364  10.851  0.0489  0.3139 -0.1303
 2263TIP3    H128204   1.809   5.402  10.907  1.1150  2.4988 -0.2503
 2263TIP3    H228205   1.833   5.294  10.803 -1.5109  0.1057  1.5501
 2264TIP3   OH228206   1.739   3.570  10.196 -0.4029  0.3092  0.3917
 2264TIP3    H128207   1.730   3.665  10.191 -1.1680  0.1798 -0.9675
 2264TIP3    H228208   1.732   3.540  10.105 -0.2763 -1.0526  0.8176
 2265TIP3   OH228209   3.702   6.439  12.664  0.1810 -0.5704 -0.4468
 2265TIP3    H128210   3.701   6.534  12.667  0.9240 -0.5777  0.1140
 2265TIP3    H228211   3.792   6.416  12.643  0.2151 -1.1754  0.3324
 2266TIP3   OH228212   6.249   1.147  11.821  0.5094  0.5162 -0.3283
 2266TIP3    H128213   6.254   1.062  11.776  1.2288  0.0692  0.5751
 2266TIP3    H228214   6.340   1.167  11.844  0.5177  2.1558 -1.6483
 2267TIP3   OH228215   2.466   5.452  10.040  0.7415  0.1317 -0.1487
 2267TIP3    H128216   2.453   5.547  10.042 -1.0696 -0.0810 -0.0636
 2267TIP3    H228217   2.513   5.435   9.959 -0.1686  0.9866 -0.8731
 2268TIP3   OH228218   0.948   3.570  10.149  0.4124  0.4793  0.6084
 2268TIP3    H128219   0.854   3.567  10.133  0.8842 -0.5021 -2.3069
 2268TIP3    H228220   0.986   3.596  10.064  2.9012 -1.4647  1.0703
 2269TIP3   OH228221   3.106   6.438  12.598  0.9967 -0.1292  0.2170
 2269TIP3    H128222   3.097   6.515  12.654  1.0429  1.8865 -2.4430
 2269TIP3    H228223   3.195   6.444  12.564  0.3101 -0.1411 -1.6583
 2270TIP3   OH228224   0.588   3.998  12.558 -0.1194  0.0699 -1.1680
 2270TIP3    H128225   0.526   4.070  12.567  0.0353  0.0414  0.3361
 2270TIP3    H228226   0.605   3.971  12.648  1.3049 -0.5840 -1.6305
 2271TIP3   OH228227   6.226   4.388  11.209  0.4320 -0.5614 -0.4950
 2271TIP3    H128228   6.289   4.321  11.183  0.0119 -2.5997  3.2574
 2271TIP3    H228229   6.250   4.410  11.299 -3.2359 -0.3126  0.5277
 2272TIP3   OH228230   0.484   4.026  10.673  0.3574 -0.4844  0.1430
 2272TIP3    H128231   0.404   3.974  10.677 -0.5502  0.6884 -1.7144
 2272TIP3    H228232   0.548   3.968  10.632 -0.5482 -0.2785 -1.6037
 2273TIP3   OH228233   3.351   4.193  11.694 -0.1869 -0.2542 -0.2016
 2273TIP3    H128234   3.369   4.102  11.673  0.5246 -0.1252 -0.1477
 2273TIP3    H228235   3.437   4.235  11.697 -0.5725  0.6750 -1.3986
 2274TIP3   OH228236   4.447   5.355  10.296  0.6149  0.0893 -0.5276
 2274TIP3    H128237   4.497   5.404  10.231  1.8930 -1.9646 -1.1486
 2274TIP3    H228238   4.422   5.274  10.251  0.4184 -0.7838  1.1269
 2275TIP3   OH228239   3.623   1.910  10.617  0.3147 -0.4317 -0.1157
 2275TIP3    H128240   3.654   1.947  10.699  1.2965 -0.7223 -0.3541
 2275TIP3    H228241   3.561   1.975  10.583 -0.0006 -0.2577  0.7836
 2276TIP3   OH228242   3.399   3.049  13.655  1.2528 -0.2954 -0.1371
 2276TIP3    H128243   3.456   2.990  13.704  0.5857 -1.5593 -0.8756
 2276TIP3    H228244   3.312   3.009  13.660  0.5134  1.3312  0.5193
 2277TIP3   OH228245   5.300   3.257  13.152  0.2399  0.4329  0.4627
 2277TIP3    H128246   5.383   3.277  13.108  0.6569 -1.5198  0.3177
 2277TIP3    H228247   5.310   3.295  13.239  1.4037  0.0161  0.5322
 2278TIP3   OH228248   4.241   7.115  10.849 -0.3119 -0.3154 -0.5428
 2278TIP3    H128249   4.190   7.080  10.922 -0.1431  1.0127  0.2195
 2278TIP3    H228250   4.325   7.071  10.855 -0.0635  0.2884  0.4770
 2279TIP3   OH228251   5.656   4.512  12.068 -0.2198  0.2742 -0.1345
 2279TIP3    H128252   5.679   4.572  11.998 -0.7191  0.3506 -0.2333
 2279TIP3    H228253   5.582   4.461  12.033 -0.1248 -0.0486  0.1349
 2280TIP3   OH228254   0.894   5.547  14.907 -0.4138 -0.5091 -0.3315
 2280TIP3    H128255   0.847   5.464  14.910 -0.0886 -0.7915 -2.2154
 2280TIP3    H228256   0.970   5.529  14.852 -1.2281  1.4482 -2.1795
 2281TIP3   OH228257   3.937   4.565  15.353 -0.5346 -0.5651 -0.1670
 2281TIP3    H128258   3.937   4.637  15.416 -0.3917 -1.6984  1.1737
 2281TIP3    H228259   3.962   4.605  15.270  0.6035  0.7405  0.7807
 2282TIP3   OH228260   3.336   1.340  13.153  0.2246  0.4292 -0.0805
 2282TIP3    H128261   3.375   1.254  13.135 -1.4711 -0.4929  0.5863
 2282TIP3    H228262   3.243   1.323  13.162 -0.1373  2.3676  0.0000
 2283TIP3   OH228263   3.475   3.764  10.059 -0.1404 -0.6785 -0.1026
 2283TIP3    H128264   3.500   3.857  10.059 -0.1028 -0.6662  1.7919
 2283TIP3    H228265   3.440   3.749   9.972  3.0702  0.2503 -1.6472
 2284TIP3   OH228266   4.922   2.764  12.637  0.1242 -0.0635  0.1221
 2284TIP3    H128267   4.935   2.759  12.732 -3.1742  2.0432  0.7950
 2284TIP3    H228268   4.851   2.702  12.619  0.3977 -0.0946 -0.8864
 2285TIP3   OH228269   6.653   1.981   9.748  0.1996 -0.2967  0.5427
 2285TIP3    H128270   6.558   1.983   9.737  0.1795 -0.1286  0.7476
 2285TIP3    H228271   6.684   2.061   9.707  0.4761 -1.4772 -1.5918
 2286TIP3   OH228272   0.505   5.873  13.381  0.0147  0.2347  0.6076
 2286TIP3    H128273   0.487   5.836  13.295  0.6747 -1.9291  1.3469
 2286TIP3    H228274   0.597   5.849  13.398 -0.0711  0.7430  1.8442
 2287TIP3   OH228275   4.658   4.381  11.762  0.4596  1.1251  0.4603
 2287TIP3    H128276   4.687   4.409  11.849 -1.6609  0.4798  1.3962
 2287TIP3    H228277   4.597   4.450  11.734 -1.2887 -0.2281  0.8508
 2288TIP3   OH228278   3.027   1.400  10.372 -0.1536 -0.4721  0.3053
 2288TIP3    H128279   3.098   1.461  10.394  0.1984 -0.7373 -0.0863
 2288TIP3    H228280   2.983   1.383  10.455 -2.3234  2.9078 -0.0831
 2289TIP3   OH228281   4.453   3.608  10.287 -0.6681 -0.2387 -0.0533
 2289TIP3    H128282   4.459   3.598  10.382  1.0407 -1.4498 -0.2527
 2289TIP3    H228283   4.465   3.519  10.253  1.8022  0.5881 -1.4977
 2290TIP3   OH228284   2.486   4.633  10.189 -0.7120 -0.2533 -0.1093
 2290TIP3    H128285   2.465   4.722  10.217  0.7039 -0.2831  1.1521
 2290TIP3    H228286   2.560   4.643  10.130  1.0893 -0.7379  1.9819
 2291TIP3   OH228287   5.558   5.675  10.637 -0.0247  0.3696  0.2810
 2291TIP3    H128288   5.605   5.754  10.664 -0.2983  1.0611 -1.2424
 2291TIP3    H228289   5.624   5.620  10.597  0.2874 -0.4500  1.9064
 2292TIP3   OH228290   0.650   3.946  13.853 -0.0419 -0.1090  0.3054
 2292TIP3    H128291   0.655   3.869  13.910  1.0885 -0.4648 -0.2396
 2292TIP3    H228292   0.561   3.977  13.862 -0.1770 -0.7904  1.4498
 2293TIP3   OH228293   4.947   2.885  10.256  0.2205  0.3296 -0.5595
 2293TIP3    H128294   4.875   2.822  10.252  0.5095 -0.0594  0.1776
 2293TIP3    H228295   4.907   2.966  10.286  0.0685  0.1311 -0.2168
 2294TIP3   OH228296   6.843   0.415  13.466  0.3130  0.3325  0.2257
 2294TIP3    H128297   6.751   0.439  13.455  0.6535  0.9526 -1.3065
 2294TIP3    H228298   6.879   0.412  13.377  2.1221  1.4776  0.8789
 2295TIP3   OH228299   6.270   2.149  12.306  0.3871  0.2547 -0.5345
 2295TIP3    H128300   6.233   2.062  12.322  1.8551 -0.0758  1.2066
 2295TIP3    H228301   6.203   2.210  12.339 -0.3097 -0.2290 -1.0420
 2296TIP3   OH228302   0.715   1.850  12.213  0.1185 -0.1760 -0.2196
 2296TIP3    H128303   0.733   1.764  12.174  0.4043 -1.1405  1.9656
 2296TIP3    H228304   0.771   1.853  12.291 -2.5853  0.4842  1.7518
 2297TIP3   OH228305   6.249   4.481  13.328  0.1628 -0.0913 -0.1999
 2297TIP3    H128306   6.200   4.562  13.316 -1.4359 -1.0663 -0.4713
 2297TIP3    H228307   6.289   4.465  13.242  1.0332  0.7455  0.0407
 2298TIP3   OH228308   3.101   4.746  12.207  0.1122  0.1682  0.2992
 2298TIP3    H128309   3.028   4.799  12.176  0.0690  0.5281  0.9946
 2298TIP3    H228310   3.179   4.800  12.190  0.1912 -0.1072 -0.2090
 2299TIP3   OH228311   4.635   3.603  12.431  0.2791  0.1661 -0.2410
 2299TIP3    H128312   4.655   3.550  12.353  2.5337 -0.2123  0.5693
 2299TIP3    H228313   4.593   3.541  12.491 -1.4143  0.4433 -1.0836
 2300TIP3   OH228314   0.155   6.429  11.986  0.0884 -0.0817 -0.5270
 2300TIP3    H128315   0.068   6.407  12.020 -0.2803  2.1783  0.0740
 2300TIP3    H228316   0.139   6.501  11.926  1.5251  0.2115 -0.5626
 2301TIP3   OH228317   2.190   4.446  12.051 -0.7049 -0.0430  0.3408
 2301TIP3    H128318   2.123   4.446  12.119 -0.0290 -1.5937  1.0265
 2301TIP3    H228319   2.181   4.361  12.007 -0.4035  0.4886 -0.7714
 2302TIP3   OH228320   5.626   6.715  10.116  0.3562  0.0364  0.3174
 2302TIP3    H128321   5.614   6.627  10.082  1.2391  0.0623 -0.0834
 2302TIP3    H228322   5.718   6.735  10.099  0.1865  0.9985  0.4868
 2303TIP3   OH228323   4.121   3.203  11.210  0.4192  0.3812  0.5615
 2303TIP3    H128324   4.035   3.241  11.225 -1.1388 -2.9890  0.7449
 2303TIP3    H228325   4.151   3.176  11.297  0.4250 -0.8690  0.1848
 2304TIP3   OH228326   6.089   3.408  11.297 -0.8725  0.5920  0.3032
 2304TIP3    H128327   6.002   3.408  11.258 -0.9503 -0.7915  0.4532
 2304TIP3    H228328   6.096   3.493  11.341 -2.3017  0.5460  0.6395
 2305TIP3   OH228329   0.952   4.895  11.414 -0.2050  0.0456 -0.1767
 2305TIP3    H128330   0.930   4.979  11.373  1.4388  0.5657 -0.0309
 2305TIP3    H228331   1.044   4.881  11.392 -0.7430 -2.2362 -1.0573
 2306TIP3   OH228332   7.000   4.055  11.215 -0.2062  0.3214 -0.1903
 2306TIP3    H128333   6.930   4.091  11.269  0.3906 -0.6532  1.2719
 2306TIP3    H228334   6.960   4.042  11.129 -1.3246  1.3912  0.1602
 2307TIP3   OH228335   0.711   4.368  12.835 -0.2322  0.2751 -0.1039
 2307TIP3    H128336   0.755   4.376  12.751  1.7078 -3.0364  0.4938
 2307TIP3    H228337   0.731   4.450  12.880  1.0788  0.9049 -1.7892
 2308TIP3   OH228338   4.374   3.496  11.178 -0.5860  0.0798 -0.3802
 2308TIP3    H128339   4.356   3.428  11.114  2.9744  0.7656 -2.2410
 2308TIP3    H228340   4.392   3.574  11.126  2.6185  0.6062  1.3737
 2309TIP3   OH228341   3.477   3.270  14.854  0.7237 -0.6110 -0.3710
 2309TIP3    H128342   3.484   3.182  14.892  1.3121 -0.8182 -0.9596
 2309TIP3    H228343   3.385   3.277  14.828 -0.3513  0.4936  3.3907
 2310TIP3   OH228344   0.235   2.793  13.018 -0.7665 -0.0327 -0.2638
 2310TIP3    H128345   0.198   2.709  12.993 -0.5196  0.2762 -1.7519
 2310TIP3    H228346   0.267   2.831  12.935 -3.1459  2.6368 -0.0538
 2311TIP3   OH228347   6.154   4.585   9.666  0.2202  0.0056  0.4094
 2311TIP3    H128348   6.138   4.631   9.584  0.6198  1.4604  1.1312
 2311TIP3    H228349   6.071   4.592   9.714  0.6938  1.1623  1.0796
 2312TIP3   OH228350   5.180   2.410  10.402  0.2162 -0.6183 -0.7065
 2312TIP3    H128351   5.159   2.500  10.379  0.3708 -0.5294 -0.4985
 2312TIP3    H228352   5.253   2.387  10.345  0.6475 -0.3737 -0.2499
 2313TIP3   OH228353   5.474   3.095   9.796 -0.1291 -0.3502  0.3717
 2313TIP3    H128354   5.415   3.058   9.731  1.4360 -0.0143 -1.2730
 2313TIP3    H228355   5.498   3.021   9.852  0.2423 -1.0889 -0.7660
 2314TIP3   OH228356   3.440   3.909  10.299  0.2710 -0.1067 -0.0028
 2314TIP3    H128357   3.435   3.983  10.239 -0.6338  0.8618  1.2511
 2314TIP3    H228358   3.456   3.833  10.243 -2.3732  0.5140 -1.6474
 2315TIP3   OH228359   2.840   4.231  13.629 -0.2574  0.1497  0.0834
 2315TIP3    H128360   2.897   4.253  13.554  0.0945 -2.8579 -0.5844
 2315TIP3    H228361   2.881   4.274  13.704 -0.8182  3.5296 -1.4620
 2316TIP3   OH228362   4.637   6.431  13.811  0.1137 -0.4369 -0.4288
 2316TIP3    H128363   4.688   6.378  13.872  0.9851 -0.6675 -1.3432
 2316TIP3    H228364   4.546   6.409  13.830  0.4452 -1.8512 -0.4244
 2317TIP3   OH228365   4.135   1.481  11.019 -0.1738 -0.0583 -0.0705
 2317TIP3    H128366   4.190   1.478  10.941 -0.2764  0.2570 -0.1554
 2317TIP3    H228367   4.144   1.394  11.058 -2.2306 -1.1161 -1.8654
 2318TIP3   OH228368   2.807   1.688  10.570 -0.1092 -0.3004  0.7640
 2318TIP3    H128369   2.886   1.722  10.527 -0.2551 -1.1165 -0.1866
 2318TIP3    H228370   2.775   1.760  10.624  0.3797  0.5698 -0.0971
 2319TIP3   OH228371   4.170   3.766  15.325 -0.4429  0.1619  0.2579
 2319TIP3    H128372   4.256   3.752  15.366 -0.4653 -0.6159  0.0562
 2319TIP3    H228373   4.153   3.859  15.336  1.0373  0.5890 -0.9094
 2320TIP3   OH228374   3.040   2.613  13.025 -0.5219  0.1743  0.1782
 2320TIP3    H128375   2.980   2.581  12.958 -0.3612 -1.1972  0.6773
 2320TIP3    H228376   3.031   2.551  13.098  1.8497 -0.3459  0.0790
 2321TIP3   OH228377   6.980   5.799  13.088 -0.1842  0.0301  0.1131
 2321TIP3    H128378   7.010   5.821  13.176  1.5458 -0.5091 -0.3336
 2321TIP3    H228379   6.906   5.858  13.073  0.4036  1.1177  1.3830
 2322TIP3   OH228380   5.894   6.667  12.834 -0.1117 -0.5533  0.5941
 2322TIP3    H128381   5.940   6.750  12.827  0.1856 -0.8050 -0.5156
 2322TIP3    H228382   5.950   6.612  12.889  0.5708 -0.6287 -0.1805
 2323TIP3   OH228383   4.611   3.528   9.637 -0.1325  0.3597 -0.9153
 2323TIP3    H128384   4.617   3.623   9.638  2.7896  0.2202  1.4622
 2323TIP3    H228385   4.535   3.508   9.692  1.5211  1.2773  1.8264
 2324TIP3   OH228386   5.990   4.565  13.591  0.1163  0.3454 -0.1118
 2324TIP3    H128387   6.064   4.616  13.557  1.4458 -1.0265  0.6721
 2324TIP3    H228388   5.974   4.499  13.525  0.5190 -0.2320  0.3632
 2325TIP3   OH228389   6.830   4.205   9.837 -0.6099  0.1293 -0.4607
 2325TIP3    H128390   6.778   4.188   9.759  0.5390 -0.4130 -1.1292
 2325TIP3    H228391   6.784   4.161   9.908 -1.0997 -0.2678 -1.0279
 2326TIP3   OH228392   3.777   5.318  10.102 -0.4054 -0.7369 -0.2536
 2326TIP3    H128393   3.809   5.302  10.013  0.2638  0.7433 -0.2792
 2326TIP3    H228394   3.717   5.392  10.093 -1.1836 -1.2850  0.3547
 2327TIP3   OH228395   1.321   0.686   0.519  0.4543 -0.2207 -0.1005
 2327TIP3    H128396   1.337   0.771   0.558  0.4740 -0.4636  0.4191
 2327TIP3    H228397   1.366   0.623   0.576 -0.4667 -0.6832  0.1275
 2328TIP3   OH228398   0.116   6.763  10.276 -0.2078  0.3116  0.1462
 2328TIP3    H128399   0.109   6.852  10.311 -0.0292  0.8544 -1.1634
 2328TIP3    H228400   0.167   6.773  10.196 -0.3237 -0.9578 -0.0999
 2329TIP3   OH228401   3.316   6.485  12.036 -0.1772 -0.7175  0.5358
 2329TIP3    H128402   3.342   6.395  12.017  0.1081 -0.4321 -0.4422
 2329TIP3    H228403   3.234   6.477  12.085  0.6692 -1.5614  1.8614
 2330TIP3   OH228404   0.642   3.998  11.370  0.0823 -0.1793 -0.3149
 2330TIP3    H128405   0.552   4.015  11.396  0.6745  0.3288  1.4923
 2330TIP3    H228406   0.652   4.043  11.286 -1.8936 -1.9062 -1.5542
 2331TIP3   OH228407   3.692   1.460  10.082  0.5154 -0.5143  0.2502
 2331TIP3    H128408   3.653   1.540  10.117 -0.1367 -0.6186 -0.2137
 2331TIP3    H228409   3.626   1.392  10.099  0.2127 -0.5796 -1.1056
 2332TIP3   OH228410   5.312   0.627  12.683  0.0999 -0.2101 -0.4308
 2332TIP3    H128411   5.231   0.672  12.660  0.9975  1.3745 -0.6062
 2332TIP3    H228412   5.355   0.685  12.746  1.2381 -0.8690 -0.5806
 2333TIP3   OH228413   3.277   5.874  11.861 -0.7822 -0.0547 -0.2907
 2333TIP3    H128414   3.282   5.780  11.846  0.3722  0.0535 -0.6636
 2333TIP3    H228415   3.316   5.886  11.948 -1.6042 -0.0028  0.0679
 2334TIP3   OH228416   4.969   4.363  11.366  0.0967  0.2831 -0.3567
 2334TIP3    H128417   4.996   4.278  11.401  1.1583  0.4347 -0.8030
 2334TIP3    H228418   4.930   4.409  11.441 -0.5579 -0.6202 -0.1336
 2335TIP3   OH228419   3.434   3.030   9.576  0.0746  0.2129 -0.4554
 2335TIP3    H128420   3.394   2.975   9.509  2.1226 -1.5873 -0.2477
 2335TIP3    H228421   3.507   3.073   9.531 -0.4564  1.4325 -0.1720
 2336TIP3   OH228422   5.104   0.234  12.102 -0.2610  0.2413  0.8761
 2336TIP3    H128423   5.083   0.142  12.084  1.5091 -0.0694  0.3189
 2336TIP3    H228424   5.027   0.282  12.071 -0.3992 -0.8954 -0.6218
 2337TIP3   OH228425   5.792   5.204  10.179  0.9359 -0.2213 -0.3528
 2337TIP3    H128426   5.731   5.192  10.251  1.5860 -1.2898  0.0293
 2337TIP3    H228427   5.858   5.136  10.191  1.8516  0.5001 -1.1239
 2338TIP3   OH228428   5.115   2.518  15.432  0.9435  0.5794  0.0636
 2338TIP3    H128429   5.183   2.453  15.451 -0.5324 -0.3532  2.4814
 2338TIP3    H228430   5.096   2.559  15.517 -2.8689 -0.6331 -0.0678
 2339TIP3   OH228431   2.787   4.326  11.531  0.5959 -0.0892  0.2697
 2339TIP3    H128432   2.736   4.255  11.570  0.5930  1.0276  2.3585
 2339TIP3    H228433   2.860   4.339  11.591  1.6830  0.3623 -1.1307
 2340TIP3   OH228434   5.636   1.571  10.118 -0.3266  0.1637  0.1243
 2340TIP3    H128435   5.704   1.602  10.177 -0.7823 -0.3813  0.9326
 2340TIP3    H228436   5.586   1.507  10.168 -2.1650  1.3799 -0.0674
 2341TIP3   OH228437   5.127   1.025  12.933  0.1683 -0.0503  0.1936
 2341TIP3    H128438   5.160   1.112  12.955  4.0290 -0.9186 -1.6407
 2341TIP3    H228439   5.148   1.014  12.840 -2.2243 -2.1152 -0.1620
 2342TIP3   OH228440   5.862   4.422  10.863 -0.1643  0.9596 -0.6389
 2342TIP3    H128441   5.853   4.330  10.839  2.3061  0.5259  0.0156
 2342TIP3    H228442   5.926   4.458  10.802 -1.4170  2.3867 -1.1669
 2343TIP3   OH228443   0.314   4.981  12.629  0.7978 -0.0516 -0.2592
 2343TIP3    H128444   0.257   5.051  12.662  0.3661 -0.1175 -0.8604
 2343TIP3    H228445   0.382   4.973  12.695 -0.4885 -0.7199  1.0060
 2344TIP3   OH228446   5.066   6.281   9.461 -0.3059  0.4717  0.4364
 2344TIP3    H128447   5.045   6.268   9.368 -1.5439 -1.2811  0.9462
 2344TIP3    H228448   5.156   6.313   9.461 -0.0245 -0.2793 -1.3263
 2345TIP3   OH228449   4.185   2.236  13.570  0.2209  0.1262  0.6237
 2345TIP3    H128450   4.143   2.152  13.588  1.9102 -0.7351  0.5865
 2345TIP3    H228451   4.162   2.256  13.480  1.1301 -1.0863  0.1093
 2346TIP3   OH228452   1.603   4.557  12.231 -0.4315 -0.7189  0.3822
 2346TIP3    H128453   1.654   4.476  12.237 -2.3647 -1.8082  3.4942
 2346TIP3    H228454   1.659   4.624  12.269  0.9309 -0.6910 -1.6223
 2347TIP3   OH228455   3.728   5.039  11.490  0.3996 -0.4933 -0.1055
 2347TIP3    H128456   3.823   5.027  11.488  0.3085 -1.4024 -3.2270
 2347TIP3    H228457   3.709   5.086  11.409 -1.6160  1.5919  1.5470
 2348TIP3   OH228458   7.073   3.159  10.997  0.2127 -0.8574  0.6294
 2348TIP3    H128459   6.988   3.203  10.992  0.2281 -0.6036  2.1425
 2348TIP3    H228460   7.068   3.088  10.933 -0.6162  0.0145 -0.2931
 2349TIP3   OH228461   4.327   0.156  11.541 -0.4543 -0.2006  0.3034
 2349TIP3    H128462   4.416   0.185  11.517  0.3071 -0.3701  2.7752
 2349TIP3    H228463   4.276   0.167  11.461  1.9761 -0.8026 -1.3803
 2350TIP3   OH228464   4.907   4.667  10.528  0.3401 -0.0435 -0.2815
 2350TIP3    H128465   4.867   4.706  10.605 -0.6886  0.3421 -0.9997
 2350TIP3    H228466   4.890   4.729  10.457  2.3501  0.1976 -0.5837
 2351TIP3   OH228467   0.039   5.912  11.568 -0.2333  0.4570  0.2055
 2351TIP3    H128468   0.049   5.847  11.637  1.0497  2.3084  1.8158
 2351TIP3    H228469  -0.036   5.966  11.595  1.6355  2.5648  1.3640
 2352TIP3   OH228470   6.751   6.402  11.133  0.0898  0.2162  0.2014
 2352TIP3    H128471   6.665   6.442  11.149 -0.0546 -0.0571  0.1217
 2352TIP3    H228472   6.779   6.437  11.049  0.8932  1.7355  1.0857
 2353TIP3   OH228473   3.886   2.950  12.042  0.2352 -0.4847 -0.5612
 2353TIP3    H128474   3.937   2.882  11.998 -0.0242 -0.5420 -0.7750
 2353TIP3    H228475   3.943   3.027  12.039  0.1758 -0.4595 -1.0935
 2354TIP3   OH228476   0.449   6.616  12.768  0.3998  0.7759  0.0902
 2354TIP3    H128477   0.465   6.678  12.839  0.4209  3.1063 -1.9096
 2354TIP3    H228478   0.505   6.645  12.697  1.0122 -2.0265 -0.6494
 2355TIP3   OH228479   6.388   6.447   9.504  0.7116  0.0740  0.8027
 2355TIP3    H128480   6.308   6.490   9.535  0.3168 -0.5520  0.6572
 2355TIP3    H228481   6.407   6.489   9.420 -0.2507 -0.7559  0.1662
 2356TIP3   OH228482   1.844   5.138  11.286  0.0190  0.1985  0.6200
 2356TIP3    H128483   1.861   5.054  11.329  0.1833  0.0256  0.2166
 2356TIP3    H228484   1.894   5.134  11.205  0.5022  0.9278  0.8843
 2357TIP3   OH228485   5.473   1.255  12.473  0.0980 -0.4489  0.2978
 2357TIP3    H128486   5.562   1.289  12.482  0.0448 -0.2920  0.2396
 2357TIP3    H228487   5.478   1.166  12.507  0.1276 -0.2138  0.9179
 2358TIP3   OH228488   4.297   0.432  12.853  0.1197  0.1499  0.1981
 2358TIP3    H128489   4.368   0.372  12.877  0.0044 -0.0941 -0.0671
 2358TIP3    H228490   4.281   0.484  12.932 -0.7334 -1.1173  0.8774
 2359TIP3   OH228491   5.008   5.200  10.562 -0.4689 -0.0179 -0.2510
 2359TIP3    H128492   5.058   5.205  10.480 -1.2741 -1.0113 -0.8127
 2359TIP3    H228493   4.946   5.272  10.558 -0.4356 -0.0029 -0.4690
 2360TIP3   OH228494   0.180   4.820  12.386 -0.2850  0.1819  0.2540
 2360TIP3    H128495   0.208   4.745  12.439  0.0948  0.5533  0.5725
 2360TIP3    H228496   0.259   4.872  12.374 -1.0560  1.8356  2.0976
 2361TIP3   OH228497   5.947   3.907   9.578 -0.5696 -0.7855 -0.2219
 2361TIP3    H128498   5.866   3.857   9.571 -0.6740 -1.0243  2.4143
 2361TIP3    H228499   5.919   3.998   9.585 -0.7857 -1.0668  3.3166
 2362TIP3   OH228500   0.035   5.584  12.375 -0.6265  0.4145  0.5578
 2362TIP3    H128501   0.110   5.613  12.427  0.3060  0.5189 -0.8038
 2362TIP3    H228502  -0.026   5.657  12.376  0.4981  1.3988 -0.5607
 2363TIP3   OH228503   6.635   0.400  12.130 -1.2714 -0.1009  0.0149
 2363TIP3    H128504   6.730   0.412  12.123 -1.4213  1.0210 -0.1651
 2363TIP3    H228505   6.625   0.310  12.163 -0.0522  0.6889  2.6819
 2364TIP3   OH228506   0.368   5.131  11.835 -0.5234 -0.4180  0.3086
 2364TIP3    H128507   0.326   5.215  11.818 -1.5532 -0.8042  0.9485
 2364TIP3    H228508   0.303   5.080  11.883  0.8986 -0.7843  1.8899
 2365TIP3   OH228509   4.691   3.655  11.417  0.1507 -0.3749 -0.1604
 2365TIP3    H128510   4.641   3.576  11.431  0.7874 -0.9221 -0.9331
 2365TIP3    H228511   4.749   3.661  11.493 -0.4770 -0.1991  0.3045
 2366TIP3   OH228512   5.481   6.402  11.319  0.2243 -0.3058  0.0610
 2366TIP3    H128513   5.422   6.399  11.244 -1.4845  1.0242  1.3224
 2366TIP3    H228514   5.541   6.328  11.305  1.0248  0.9337 -3.4516
 2367TIP3   OH228515   3.084   6.189  14.481  0.8674 -0.0329  0.4841
 2367TIP3    H128516   3.058   6.099  14.464  1.4738 -0.3582  1.2647
 2367TIP3    H228517   3.085   6.230  14.394  0.1595 -0.6513  0.1775
 2368TIP3   OH228518   2.000   1.809   9.707  0.2132  0.0350 -0.0600
 2368TIP3    H128519   2.084   1.853   9.693  0.6004  0.0244  2.0138
 2368TIP3    H228520   2.017   1.717   9.685  0.3102  0.3329 -1.2044
 2369TIP3   OH228521   4.868   2.688  15.546  0.2657 -0.1461  0.3202
 2369TIP3    H128522   4.864   2.602  15.587  0.2344 -0.0678  0.4831
 2369TIP3    H228523   4.962   2.708  15.541  0.2555  0.0108  0.7063
 2370TIP3   OH228524   5.326   4.346   9.281  0.1977 -0.1051 -0.0856
 2370TIP3    H128525   5.343   4.256   9.307 -0.0534  0.1232  0.8838
 2370TIP3    H228526   5.249   4.372   9.333  0.7656  0.9272  0.2601
 2371TIP3   OH228527   6.221   1.217  11.429 -0.2612 -0.3247  0.3798
 2371TIP3    H128528   6.280   1.142  11.424  2.2470  1.5688  0.9710
 2371TIP3    H228529   6.146   1.185  11.479  0.5943 -2.5359  0.3155
 2372TIP3   OH228530   6.590   3.871  11.314 -0.5089  0.5523  0.0856
 2372TIP3    H128531   6.509   3.838  11.353 -0.8206  0.2101 -0.8553
 2372TIP3    H228532   6.644   3.896  11.390 -0.7463 -0.9573  0.7706
 2373TIP3   OH228533   4.182   4.404  12.519 -0.4386 -0.1848 -0.4049
 2373TIP3    H128534   4.110   4.358  12.562 -0.2861  1.1366  1.3104
 2373TIP3    H228535   4.143   4.486  12.488  0.4058  0.7042  0.8686
 2374TIP3   OH228536   0.669   4.935  10.462  0.3939  0.5965  0.2637
 2374TIP3    H128537   0.650   4.842  10.449 -0.5330  0.7626  0.3445
 2374TIP3    H228538   0.618   4.979  10.394 -1.1205  1.1821  1.7309
 2375TIP3   OH228539   6.580   2.904  10.252 -0.1372 -0.6300  0.1684
 2375TIP3    H128540   6.522   2.914  10.177 -1.0655 -1.5757  0.7421
 2375TIP3    H228541   6.601   2.811  10.255 -1.3856 -0.8796  1.9980
 2376TIP3   OH228542   0.044   4.501  10.313 -0.2343 -0.0700  0.5474
 2376TIP3    H128543   0.072   4.528  10.225 -0.8604 -0.8312  0.1050
 2376TIP3    H228544   0.094   4.557  10.372  0.4726  0.2016 -0.2857
 2377TIP3   OH228545   6.770   5.958  11.455 -0.1201 -0.1394  0.7542
 2377TIP3    H128546   6.749   6.018  11.383 -0.0915  0.7197  1.4557
 2377TIP3    H228547   6.827   6.008  11.512 -0.6422 -0.6100  1.6994
 2378TIP3   OH228548   6.870   4.428  12.091  0.1832  0.0268 -0.0932
 2378TIP3    H128549   6.860   4.365  12.020 -1.9195 -0.1297  0.3101
 2378TIP3    H228550   6.906   4.376  12.163 -3.0963 -1.1701  0.7761
 2379TIP3   OH228551   0.818   3.344  11.714  0.1706 -0.5058  0.1224
 2379TIP3    H128552   0.801   3.367  11.622 -1.0477  1.9444  0.9427
 2379TIP3    H228553   0.912   3.331  11.718  0.2236 -0.8464 -1.5050
 2380TIP3   OH228554   3.137   6.019  13.694 -0.2430  0.4797 -0.5056
 2380TIP3    H128555   3.201   6.063  13.640  0.2473 -0.2536 -0.5275
 2380TIP3    H228556   3.154   6.050  13.783  0.8865 -0.5696 -0.3427
 2381TIP3   OH228557   6.274   2.706  10.271 -0.6125  0.0019  0.4188
 2381TIP3    H128558   6.302   2.747  10.353  2.9391  0.3467 -0.8724
 2381TIP3    H228559   6.217   2.771  10.230  0.1392  1.1515  1.1545
 2382TIP3   OH228560   0.809   5.337   9.663  0.3391  0.3133 -0.1025
 2382TIP3    H128561   0.747   5.348   9.736  0.3828  0.3536 -0.0723
 2382TIP3    H228562   0.878   5.281   9.699 -0.3462 -0.8399 -0.5230
 2383TIP3   OH228563   3.535   1.354  13.416  0.0639  0.3719  0.0159
 2383TIP3    H128564   3.490   1.423  13.465  0.9206  0.8540  0.1393
 2383TIP3    H228565   3.577   1.400  13.343  2.1054  0.2971  1.0743
 2384TIP3   OH228566   5.329   5.921  10.122 -0.4077  0.3663 -0.1189
 2384TIP3    H128567   5.341   5.935  10.028 -1.1720  0.2986 -0.2265
 2384TIP3    H228568   5.322   5.826  10.132  0.9007  0.2876  0.1562
 2385TIP3   OH228569   5.398   5.271  10.682 -0.6845 -0.2631 -1.1405
 2385TIP3    H128570   5.319   5.224  10.707 -0.4067  0.2711  0.7874
 2385TIP3    H228571   5.368   5.336  10.618 -2.0258  0.8326  0.5858
 2386TIP3   OH228572   0.079   5.322   9.469 -0.1474  0.3100 -0.1741
 2386TIP3    H128573   0.055   5.411   9.496 -0.8357  0.2733 -0.6540
 2386TIP3    H228574   0.112   5.281   9.549  2.2429  1.6753 -0.4037
 2387TIP3   OH228575   4.153   4.526  11.780  0.0532  0.2505  0.1044
 2387TIP3    H128576   4.128   4.556  11.692  1.6884  1.5074  0.0422
 2387TIP3    H228577   4.178   4.434  11.768 -0.2950  0.2467 -0.6250
 2388TIP3   OH228578   7.096   6.909   9.804 -0.1695  0.6011 -0.6223
 2388TIP3    H128579   7.166   6.844   9.794 -0.7993 -0.4416  1.6072
 2388TIP3    H228580   7.059   6.917   9.716 -0.4685 -2.5255 -0.8454
 2389TIP3   OH228581   0.920   0.683  11.625  0.0506 -0.8938 -0.1504
 2389TIP3    H128582   0.998   0.683  11.681  2.2078  0.0906 -3.0795
 2389TIP3    H228583   0.891   0.774  11.625 -0.4795 -1.0579  0.0262
 2390TIP3   OH228584   5.877   2.784  10.945 -0.3886  0.1316  0.6580
 2390TIP3    H128585   5.968   2.753  10.940 -1.4060 -2.7557 -2.5572
 2390TIP3    H228586   5.868   2.843  10.870 -1.4735 -0.6564  0.1469
 2391TIP3   OH228587   5.786   5.328  11.613  0.2764  0.4819  0.7624
 2391TIP3    H128588   5.801   5.272  11.536 -1.7623  2.1194 -0.8942
 2391TIP3    H228589   5.706   5.295  11.652 -0.0130  1.1665  0.7590
 2392TIP3   OH228590   3.415   6.052  10.872 -0.1249 -0.3132 -0.1941
 2392TIP3    H128591   3.467   6.087  10.945 -0.9329 -0.0824  0.2753
 2392TIP3    H228592   3.347   6.118  10.858  0.6774  0.1850 -1.8917
 2393TIP3   OH228593   6.917   5.689  11.675  0.2661 -0.2203 -0.6101
 2393TIP3    H128594   6.841   5.738  11.643 -0.6485 -1.2184 -0.0140
 2393TIP3    H228595   6.964   5.663  11.596 -0.7075 -0.6945 -1.0324
 2394TIP3   OH228596   3.838   5.574  12.865 -0.0623 -0.1170 -0.2743
 2394TIP3    H128597   3.881   5.570  12.951 -1.6953 -0.5420  0.5433
 2394TIP3    H228598   3.865   5.658  12.829  0.2564  0.2731  0.8577
 2395TIP3   OH228599   3.432   6.361  10.155  0.2518  0.5392 -0.3063
 2395TIP3    H128600   3.504   6.306  10.123  1.4693  2.0029 -0.1286
 2395TIP3    H228601   3.368   6.359  10.084  0.2403 -1.1394 -0.2792
 2396TIP3   OH228602   6.841   0.196  11.206  0.4475 -0.1946 -0.6611
 2396TIP3    H128603   6.931   0.196  11.173  0.4041 -2.4359 -0.8221
 2396TIP3    H228604   6.838   0.125  11.270 -1.0835  0.1626 -0.3119
 2397TIP3   OH228605   3.710   6.532  10.231  0.1447  0.0698 -0.1169
 2397TIP3    H128606   3.737   6.441  10.245  1.6339  0.7107  1.3712
 2397TIP3    H228607   3.792   6.580  10.219 -0.6449  1.1732 -1.2729
 2398TIP3   OH228608   4.612   4.153  14.249 -0.0324 -0.0390 -0.1461
 2398TIP3    H128609   4.558   4.080  14.220 -0.8591  1.5035 -2.6644
 2398TIP3    H228610   4.688   4.152  14.190 -0.4302  1.5611 -0.7189
 2399TIP3   OH228611   4.266   6.929  13.325 -0.4205 -0.0113 -0.3862
 2399TIP3    H128612   4.183   6.951  13.367  0.4612  0.2132  1.2660
 2399TIP3    H228613   4.248   6.936  13.231 -2.1282  0.5238 -0.0297
 2400TIP3   OH228614   0.834   2.716  13.369 -0.2745  0.0150  0.2360
 2400TIP3    H128615   0.852   2.656  13.442  0.2768 -0.6369 -0.4258
 2400TIP3    H228616   0.775   2.666  13.312 -0.5160  0.4362  0.1167
 2401TIP3   OH228617   0.478   0.808  11.804  0.1582 -0.0843 -0.6014
 2401TIP3    H128618   0.548   0.811  11.739 -0.6563  1.1768 -1.4475
 2401TIP3    H228619   0.518   0.842  11.884  0.9660 -0.9593 -0.6285
 2402TIP3   OH228620   6.340   2.950  11.663  0.4706  0.1217  0.3248
 2402TIP3    H128621   6.310   3.041  11.671 -0.3230 -0.1701  0.7510
 2402TIP3    H228622   6.336   2.932  11.569 -0.0263  0.3202  0.3033
 2403TIP3   OH228623   0.258   5.155  12.262 -0.4197  0.3300  0.1585
 2403TIP3    H128624   0.208   5.125  12.186 -1.1436  2.4710 -0.2602
 2403TIP3    H228625   0.195   5.205  12.314  0.3860 -0.0355  1.5041
 2404TIP3   OH228626   0.881   1.840  12.444 -0.1677  0.6046  0.7051
 2404TIP3    H128627   0.959   1.864  12.495  0.4048 -1.1117  0.6437
 2404TIP3    H228628   0.821   1.802  12.509  0.6252 -1.7401  0.1056
 2405TIP3   OH228629   6.511   3.589  12.450  0.1277 -0.8194  0.0802
 2405TIP3    H128630   6.418   3.569  12.460  0.3329 -2.2506 -0.7267
 2405TIP3    H228631   6.518   3.683  12.466 -1.6984 -0.4004 -1.4090
 2406TIP3   OH228632   4.026   2.794  10.951  0.2296 -0.7152 -0.2678
 2406TIP3    H128633   3.978   2.712  10.966  0.5755 -1.1867 -1.6343
 2406TIP3    H228634   3.964   2.863  10.975  0.1251 -1.3859  1.4054
 2407TIP3   OH228635   4.771   2.714  13.755  0.2832 -0.4960 -0.0517
 2407TIP3    H128636   4.780   2.778  13.826  1.7279  0.1085 -0.7736
 2407TIP3    H228637   4.679   2.722  13.728  0.6486  1.9155 -0.7107
 2408TIP3   OH228638   5.250   3.201  12.545  0.1339  0.2828 -0.2282
 2408TIP3    H128639   5.189   3.226  12.475  0.8144  0.9064 -0.6043
 2408TIP3    H228640   5.208   3.126  12.587 -1.8604  1.9470  0.8178
 2409TIP3   OH228641   6.977   0.005  14.303  0.1543 -0.3008 -0.0646
 2409TIP3    H128642   6.976  -0.091  14.294 -0.4214 -0.4517  1.3825
 2409TIP3    H228643   6.890   0.027  14.336  1.0823  0.4301  2.0098
 2410TIP3   OH228644   5.961   2.562  10.280  0.7244  0.0613  0.2365
 2410TIP3    H128645   5.934   2.654  10.281 -1.5918 -0.5887  2.6319
 2410TIP3    H228646   6.006   2.549  10.364  1.2394 -0.9529 -0.1835
 2411TIP3   OH228647   1.412   5.965  12.284  0.7200 -0.0603 -0.2131
 2411TIP3    H128648   1.338   6.019  12.256  0.9756 -0.7084 -2.2046
 2411TIP3    H228649   1.426   5.989  12.376 -1.9387  0.0934  0.1874
 2412TIP3   OH228650   4.043   5.057   9.964  0.1981 -0.3709  0.0346
 2412TIP3    H128651   4.053   5.095  10.052 -0.9611  0.8077 -0.3198
 2412TIP3    H228652   4.001   5.127   9.913 -0.5639 -1.6088 -1.0465
 2413TIP3   OH228653   5.303   5.870  11.615 -0.3980 -0.1162 -0.1899
 2413TIP3    H128654   5.265   5.925  11.546  0.5007  0.9960  0.1751
 2413TIP3    H228655   5.397   5.887  11.609 -0.1362 -1.4509  0.0914
 2414TIP3   OH228656   3.746   5.707  11.698 -0.3717 -0.1710  0.1381
 2414TIP3    H128657   3.731   5.801  11.706 -2.3090 -0.4789  0.4637
 2414TIP3    H228658   3.836   5.694  11.728 -0.5248  1.4122  1.3587
 2415TIP3   OH228659   5.495   5.701  10.934  0.2308 -0.6367  0.1037
 2415TIP3    H128660   5.555   5.752  10.879 -0.5204  3.0217  2.4893
 2415TIP3    H228661   5.413   5.700  10.885  0.0689  1.0939  0.2915
 2416TIP3   OH228662   6.348   1.389  10.025 -0.4857  0.1166  0.4219
 2416TIP3    H128663   6.424   1.381   9.969 -0.4071 -2.3382  0.8148
 2416TIP3    H228664   6.373   1.344  10.106 -2.6983 -1.7145  0.1437
 2417TIP3   OH228665   3.553   3.495  11.382 -0.0079  0.0227  0.1547
 2417TIP3    H128666   3.497   3.570  11.364 -0.8580 -0.9053 -1.1311
 2417TIP3    H228667   3.642   3.526  11.364 -0.5090  0.2262 -2.0251
 2418TIP3   OH228668   0.347   2.305  12.382 -0.3613  0.4689  0.1740
 2418TIP3    H128669   0.378   2.290  12.293  4.2301  0.4757  1.6415
 2418TIP3    H228670   0.288   2.231  12.400 -0.6015 -0.0243 -2.5100
 2419TIP3   OH228671   0.354   1.365  10.372 -0.0464  0.6938  0.1587
 2419TIP3    H128672   0.394   1.412  10.445 -0.1817  0.3536  0.4522
 2419TIP3    H228673   0.296   1.301  10.413  0.0060  0.3857 -0.2429
 2420TIP3   OH228674   5.272   2.476  10.056 -0.1677  0.0678  0.2284
 2420TIP3    H128675   5.301   2.387  10.037  1.0555  0.6017 -0.5143
 2420TIP3    H228676   5.353   2.523  10.076 -0.7715  1.0831  0.3088
 2421TIP3   OH228677   6.177   0.581  14.114  0.9044 -0.2638 -0.6206
 2421TIP3    H128678   6.085   0.592  14.141  1.3424 -0.0912  0.8356
 2421TIP3    H228679   6.191   0.487  14.113  1.5302 -0.2196  2.0247
 2422TIP3   OH228680   5.513   7.045  13.589  0.1343  0.0445 -0.1499
 2422TIP3    H128681   5.518   6.992  13.668  0.8610 -2.0584 -1.5637
 2422TIP3    H228682   5.422   7.035  13.559 -0.3875  1.5756  0.9027
 2423TIP3   OH228683   3.167   4.887  12.487  0.2265  0.1566  0.0866
 2423TIP3    H128684   3.126   4.819  12.435 -0.6367 -0.6102  1.7351
 2423TIP3    H228685   3.258   4.889  12.456  0.1253 -1.3676 -0.3494
 2424TIP3   OH228686   0.050   3.452  10.424  0.1380  0.8685  0.1708
 2424TIP3    H128687   0.101   3.393  10.480 -0.6766  0.6088  0.6644
 2424TIP3    H228688   0.106   3.470  10.349  0.6028 -0.1175  0.2772
 2425TIP3   OH228689   0.778   5.504  13.111 -0.5094 -0.5316 -0.1714
 2425TIP3    H128690   0.838   5.557  13.162 -0.1099 -0.4812 -0.6915
 2425TIP3    H228691   0.817   5.416  13.111 -0.1959 -0.3932 -0.8980
 2426TIP3   OH228692   4.342   0.763  13.722  0.3073  0.1260 -0.1478
 2426TIP3    H128693   4.323   0.709  13.798  0.3594 -0.8732 -0.8391
 2426TIP3    H228694   4.281   0.837  13.729 -0.3071 -0.4292  0.3748
 2427TIP3   OH228695   2.963   6.143  10.400 -0.1361 -0.0758  0.0844
 2427TIP3    H128696   2.959   6.237  10.380 -0.3983 -0.5931 -2.3711
 2427TIP3    H228697   2.876   6.110  10.380  0.7172 -1.3314 -1.6933
 2428TIP3   OH228698   6.984   4.601  10.711 -0.5666  0.2396  0.2862
 2428TIP3    H128699   6.988   4.619  10.805  1.8243 -1.0340  0.4604
 2428TIP3    H228700   7.035   4.671  10.671 -1.5575  0.7621 -0.0559
 2429TIP3   OH228701   5.742   1.816  12.590  0.3254  0.0705  0.5118
 2429TIP3    H128702   5.828   1.798  12.628  0.3934  0.3163  0.4740
 2429TIP3    H228703   5.689   1.850  12.662  0.3293  0.1416  0.4808
 2430TIP3   OH228704   7.004   6.144  11.186 -0.5255 -0.6027  0.0871
 2430TIP3    H128705   7.096   6.132  11.161 -0.2949  1.0675  0.1075
 2430TIP3    H228706   6.961   6.173  11.106 -0.7713 -0.0603  0.4182
 2431TIP3   OH228707   1.988   6.375  11.568 -0.2924 -0.0533  0.6392
 2431TIP3    H128708   1.991   6.293  11.518 -1.9561  0.7852 -0.9038
 2431TIP3    H228709   1.915   6.363  11.630  1.6311 -1.0092  2.8030
 2432TIP3   OH228710   2.179   1.049  10.856  0.0842 -0.5731  0.5749
 2432TIP3    H128711   2.265   1.018  10.828  0.2117 -0.5499  0.9463
 2432TIP3    H228712   2.169   1.017  10.945 -0.4466 -0.8860  0.4083
 2433TIP3   OH228713   1.010   6.481   9.909  0.5656  0.8348  0.4089
 2433TIP3    H128714   0.954   6.404   9.916  3.3447 -1.1678  1.4440
 2433TIP3    H228715   1.048   6.474   9.821  2.0790  0.0969  1.1082
 2434TIP3   OH228716   3.995   1.854  10.721 -0.3073  0.2309  0.1885
 2434TIP3    H128717   3.988   1.760  10.735  2.1405 -0.0783 -0.4523
 2434TIP3    H228718   3.927   1.874  10.657 -2.6143 -0.6101  2.2635
 2435TIP3   OH228719   5.910   6.606  12.572  0.0243  0.5240  0.1128
 2435TIP3    H128720   5.897   6.611  12.667  1.8513  0.8987  0.3582
 2435TIP3    H228721   5.921   6.697  12.545  1.2485  0.2827 -0.2040
 2436TIP3   OH228722   1.272   0.978   9.408 -0.0860  0.1790 -0.2152
 2436TIP3    H128723   1.342   0.964   9.345 -1.7751 -3.1787 -1.5065
 2436TIP3    H228724   1.193   0.986   9.355 -1.5393 -2.6208  1.3812
 2437TIP3   OH228725   3.343   3.624  13.938 -0.5849 -0.2306 -0.1136
 2437TIP3    H128726   3.271   3.567  13.911  0.2247 -0.2317 -2.3167
 2437TIP3    H228727   3.380   3.580  14.014 -2.0384 -0.9379  0.2087
 2438TIP3   OH228728   0.708   5.448  12.710 -0.0431  0.3735  0.2146
 2438TIP3    H128729   0.685   5.424  12.620 -0.3054 -0.4615  0.5030
 2438TIP3    H228730   0.625   5.449  12.757 -0.0050  1.6551  0.2545
 2439TIP3   OH228731   0.894   3.999   9.562 -0.0065 -1.0770  0.1173
 2439TIP3    H128732   0.940   3.987   9.479 -2.6018 -3.2115 -1.1094
 2439TIP3    H228733   0.929   3.929   9.619  3.2234  1.5937  1.6190
 2440TIP3   OH228734   1.542   3.513  12.421  0.1802 -0.1835  0.5286
 2440TIP3    H128735   1.501   3.600  12.421  0.8238  0.1292  1.5667
 2440TIP3    H228736   1.583   3.506  12.334 -2.4536 -0.7087 -0.7181
 2441TIP3   OH228737   6.345   5.261  10.349  0.2870 -0.1632 -0.6267
 2441TIP3    H128738   6.274   5.293  10.403  1.4130 -0.6403  1.2000
 2441TIP3    H228739   6.421   5.261  10.407  0.7686 -4.1329 -1.1262
 2442TIP3   OH228740   4.744   4.780  10.000  0.4016 -0.4923 -0.3551
 2442TIP3    H128741   4.773   4.860   9.956 -0.0156  1.1212  2.2193
 2442TIP3    H228742   4.672   4.748   9.946 -0.6263  1.8825 -0.4490
 2443TIP3   OH228743   0.635   5.004  10.186  0.1801  0.4694 -0.5486
 2443TIP3    H128744   0.545   5.010  10.153 -0.2829  1.0744  0.7696
 2443TIP3    H228745   0.685   5.063  10.130 -0.0348 -0.6721 -1.9594
 2444TIP3   OH228746   5.508   5.295  10.103  0.1850 -0.0131  0.1914
 2444TIP3    H128747   5.490   5.284  10.010 -0.4450 -2.0568  0.5323
 2444TIP3    H228748   5.552   5.214  10.129  0.4122  0.5603  1.6518
 2445TIP3   OH228749   6.426   1.854  14.784 -0.1495  0.6562  0.1694
 2445TIP3    H128750   6.431   1.911  14.708 -2.6132  0.6009 -0.0813
 2445TIP3    H228751   6.338   1.868  14.819  1.3146  1.5465  3.7140
 2446TIP3   OH228752   6.733   2.675  10.834  0.5248  0.2995  0.5762
 2446TIP3    H128753   6.687   2.633  10.907  0.9939  2.5590  2.2295
 2446TIP3    H228754   6.696   2.763  10.830  1.3286  0.5752 -1.1786
 2447TIP3   OH228755   2.789   2.070  13.818 -0.0923  0.0739 -0.0473
 2447TIP3    H128756   2.745   2.049  13.736  0.5672 -0.1244 -0.3540
 2447TIP3    H228757   2.762   2.002  13.879  0.3173 -0.4251 -0.4244
 2448TIP3   OH228758   1.372   5.101  10.465  0.2267 -1.0195  0.6997
 2448TIP3    H128759   1.318   5.022  10.458  1.8940 -2.0220 -1.3117
 2448TIP3    H228760   1.321   5.170  10.423 -0.3104 -1.5032  0.5561
 2449TIP3   OH228761   5.549   5.093   9.656 -0.4239 -0.0141  0.1522
 2449TIP3    H128762   5.620   5.036   9.627  0.9630  1.2829  0.9680
 2449TIP3    H228763   5.482   5.084   9.587 -0.5780 -3.2006  0.6454
 2450TIP3   OH228764   1.280   2.267  12.097  0.0187 -0.0830 -0.2842
 2450TIP3    H128765   1.245   2.320  12.169  0.6846 -1.4132  1.0489
 2450TIP3    H228766   1.318   2.331  12.037  0.1629  1.0191  0.9522
 2451TIP3   OH228767   1.957   6.372  14.459  0.2048 -0.3855  0.4790
 2451TIP3    H128768   1.928   6.388  14.548  1.0085 -2.3420  1.1299
 2451TIP3    H228769   1.999   6.453  14.431 -0.0380  0.2239  1.8741
 2452TIP3   OH228770   0.077   1.784  11.097  0.1283  0.6723 -0.4745
 2452TIP3    H128771   0.084   1.870  11.057  0.8003  0.0971 -1.6135
 2452TIP3    H228772   0.001   1.790  11.155 -1.1890  1.3539 -2.2241
 2453TIP3   OH228773   3.548   6.012  10.457 -0.1412  0.8465 -0.3797
 2453TIP3    H128774   3.476   5.967  10.502  1.9696 -0.8162  1.4115
 2453TIP3    H228775   3.598   5.942  10.415  1.3140  1.8378 -0.3224
 2454TIP3   OH228776   6.268   0.564  10.628 -0.0524  0.0379 -0.1956
 2454TIP3    H128777   6.262   0.569  10.724  1.7387 -0.4941 -0.0317
 2454TIP3    H228778   6.204   0.497  10.603  1.9621 -2.4055  0.9804
 2455TIP3   OH228779   6.679   7.046  11.670  0.3374  0.7589  0.6347
 2455TIP3    H128780   6.608   7.039  11.734  0.7946 -1.7017  0.9454
 2455TIP3    H228781   6.651   7.115  11.611 -1.3710  1.2227  1.9350
 2456TIP3   OH228782   3.840   3.804  11.122 -0.3228  0.3165  0.3385
 2456TIP3    H128783   3.897   3.880  11.111 -0.8541  0.9110  1.6162
 2456TIP3    H228784   3.862   3.747  11.049  0.6776  1.3236 -0.1581
 2457TIP3   OH228785   2.519   0.472  12.849 -0.1162  0.2755  0.1963
 2457TIP3    H128786   2.600   0.500  12.805  1.8374 -0.9561  2.8803
 2457TIP3    H228787   2.539   0.479  12.942 -2.6511 -1.4049  0.9148
 2458TIP3   OH228788   4.292   2.833  10.916  0.4407 -0.1478 -0.0322
 2458TIP3    H128789   4.200   2.853  10.930  0.5238  1.0607 -1.0686
 2458TIP3    H228790   4.292   2.749  10.871 -0.2756  0.8092 -1.8908
 2459TIP3   OH228791   4.544   3.235  10.944 -0.2291 -0.3567 -0.1737
 2459TIP3    H128792   4.460   3.263  10.980  0.3638  2.0888 -0.5773
 2459TIP3    H228793   4.521   3.171  10.876 -1.6963 -0.3820  0.3193
 2460TIP3   OH228794   1.516   0.680  13.269  0.0718  0.1418 -0.3780
 2460TIP3    H128795   1.485   0.757  13.222  0.6780  0.6053 -0.0147
 2460TIP3    H228796   1.611   0.686  13.267  0.1100 -0.0999  0.4637
 2461TIP3   OH228797   0.156   4.695  10.464 -0.1577  0.2474 -0.5109
 2461TIP3    H128798   0.142   4.689  10.559 -1.6212 -0.8636 -0.7763
 2461TIP3    H228799   0.122   4.781  10.440  0.8533  0.8239  0.0553
 2462TIP3   OH228800   3.459   2.670  13.143 -0.0517 -0.1842  0.1472
 2462TIP3    H128801   3.399   2.692  13.214  2.1133 -0.2146  2.0499
 2462TIP3    H228802   3.467   2.575  13.147 -0.2553 -0.2202 -0.3854
 2463TIP3   OH228803   0.364   2.757  13.271 -0.0572 -0.1206  0.0359
 2463TIP3    H128804   0.314   2.678  13.295  0.5321 -0.4161  0.3114
 2463TIP3    H228805   0.316   2.795  13.198  0.8453 -1.9410 -1.5366
 2464TIP3   OH228806   0.058   5.695  11.717 -0.1512 -0.7323  0.3366
 2464TIP3    H128807   0.131   5.708  11.777 -1.0504  1.0679  1.0957
 2464TIP3    H228808  -0.019   5.692  11.773 -0.9559  0.5020 -0.6588
 2465TIP3   OH228809   1.052   3.552  14.859  0.0291  0.2151 -0.0180
 2465TIP3    H128810   1.128   3.594  14.820 -1.2964  1.3534 -1.4270
 2465TIP3    H228811   1.009   3.621  14.908  0.4011 -0.6561  1.5771
 2466TIP3   OH228812   2.790   1.997  10.448  0.2229 -0.8005 -0.1320
 2466TIP3    H128813   2.815   1.947  10.526  1.4980 -2.3614 -1.4949
 2466TIP3    H228814   2.841   2.078  10.455  0.6791 -1.1296  0.4347
 2467TIP3   OH228815   1.270   2.834   9.895  0.0910  0.0261  0.6100
 2467TIP3    H128816   1.365   2.824   9.900  0.1953  1.3133  1.3276
 2467TIP3    H228817   1.240   2.750   9.860  1.4932 -0.3569  0.2548
 2468TIP3   OH228818   5.916   3.770  12.183 -0.1377  0.6848 -0.6063
 2468TIP3    H128819   5.958   3.848  12.218  0.2023  0.1352  0.2354
 2468TIP3    H228820   5.890   3.720  12.261  2.3791 -1.4996 -1.1051
 2469TIP3   OH228821   0.851   4.520  10.361  0.1243 -0.3843 -0.2957
 2469TIP3    H128822   0.865   4.611  10.336 -2.3614  0.1256 -0.0131
 2469TIP3    H228823   0.936   4.478  10.349  0.7970  1.4973 -2.4318
 2470TIP3   OH228824   1.227   1.100  12.171 -0.7895 -0.1344  0.4362
 2470TIP3    H128825   1.275   1.020  12.154 -1.3572 -0.4691  0.3998
 2470TIP3    H228826   1.255   1.160  12.102 -0.9686 -0.5597 -0.0068
 2471TIP3   OH228827   3.046   6.546  12.079 -0.0074  0.1924  0.3764
 2471TIP3    H128828   2.993   6.556  11.999  1.4543  1.2408 -0.4727
 2471TIP3    H228829   3.001   6.599  12.144 -0.8943 -0.2072  0.1041
 2472TIP3   OH228830   2.603   4.596  11.671  0.4256 -0.4314  0.2084
 2472TIP3    H128831   2.672   4.558  11.725  2.0453  1.3625 -0.5243
 2472TIP3    H228832   2.649   4.624  11.591 -0.8605  2.0794  0.3060
 2473TIP3   OH228833   4.945   3.103  12.586  0.1336  0.2827  0.0005
 2473TIP3    H128834   4.869   3.152  12.556 -0.6531 -0.1580  1.2176
 2473TIP3    H228835   4.946   3.115  12.681  1.6506  0.3735 -0.0068
 2474TIP3   OH228836   1.457   3.274  10.701  0.2725  0.0586 -0.6586
 2474TIP3    H128837   1.484   3.322  10.622  1.9207  1.5814  0.7808
 2474TIP3    H228838   1.519   3.202  10.707 -0.8121 -0.9745 -1.5787
 2475TIP3   OH228839   0.169   4.872  11.634 -0.2428  1.1187 -0.7197
 2475TIP3    H128840   0.088   4.824  11.617 -0.9856  1.7431  1.0548
 2475TIP3    H228841   0.148   4.963  11.615 -0.1209  1.3566  0.2588
 2476TIP3   OH228842   6.957   4.048  12.930  0.1127  0.3140 -0.3115
 2476TIP3    H128843   6.922   4.137  12.935  2.4548  1.1907  0.7213
 2476TIP3    H228844   6.995   4.042  12.842  1.2834  0.8400  0.1555
 2477TIP3   OH228845   6.554   4.193  10.240  0.3363  0.1429  0.0852
 2477TIP3    H128846   6.633   4.192  10.187  0.0208 -1.2775 -0.3778
 2477TIP3    H228847   6.532   4.101  10.252 -1.3997  0.5289 -0.0295
 2478TIP3   OH228848   1.412   5.755  12.916  0.2623  0.1449  0.4452
 2478TIP3    H128849   1.481   5.705  12.958  0.3641  2.4748  3.2426
 2478TIP3    H228850   1.337   5.696  12.914  1.0081 -0.8663  1.6516
 2479TIP3   OH228851   6.008   3.516  12.713  0.1408  0.3557 -0.6755
 2479TIP3    H128852   6.012   3.611  12.727  0.2394  0.8085 -3.4748
 2479TIP3    H228853   5.927   3.503  12.664 -0.3695 -1.1603  0.5301
 2480TIP3   OH228854   2.134   3.731  12.651  0.2734 -0.4224 -0.5987
 2480TIP3    H128855   2.201   3.708  12.716  0.5620 -0.6099 -0.9639
 2480TIP3    H228856   2.100   3.815  12.682  0.9273 -0.1477 -0.6051
 2481TIP3   OH228857   5.753   5.418   9.314  0.0554 -0.9426  0.9102
 2481TIP3    H128858   5.821   5.473   9.352  0.7733 -0.7207 -0.6852
 2481TIP3    H228859   5.787   5.329   9.322  0.7423 -0.7911 -0.3155
 2482TIP3   OH228860   3.642   6.691  11.532  0.2481 -0.1556  0.7495
 2482TIP3    H128861   3.641   6.651  11.445 -3.2770  1.6284 -0.1055
 2482TIP3    H228862   3.565   6.655  11.576 -0.9498  2.8800  1.2458
 2483TIP3   OH228863   6.272   2.839  11.894  0.6445  0.2993  0.1403
 2483TIP3    H128864   6.286   2.892  11.816  2.1075  0.7711  0.6994
 2483TIP3    H228865   6.181   2.809  11.887  0.4939  1.0453 -1.2942
 2484TIP3   OH228866   6.110   5.735  11.891 -0.4483  0.3018  0.3833
 2484TIP3    H128867   6.157   5.796  11.948 -0.0811  2.1031 -1.7801
 2484TIP3    H228868   6.021   5.734  11.926 -0.6532  2.6826  0.0534
 2485TIP3   OH228869   1.464   3.375  12.632  0.1362  0.3564  0.1104
 2485TIP3    H128870   1.393   3.321  12.598 -0.2667  0.6548  0.4602
 2485TIP3    H228871   1.499   3.421  12.556  0.6543 -0.5924 -0.2249
 2486TIP3   OH228872   6.506   3.126  10.549 -0.6190  0.4024  0.0727
 2486TIP3    H128873   6.496   3.085  10.635 -1.4953  0.2371 -0.1093
 2486TIP3    H228874   6.514   3.219  10.568 -1.5710  0.4473  0.2891
 2487TIP3   OH228875   4.783   2.905  12.379 -0.1492 -0.0469 -0.3864
 2487TIP3    H128876   4.773   2.955  12.298 -0.0977 -0.4249 -0.6281
 2487TIP3    H228877   4.711   2.843  12.378 -1.3733  1.2937  0.8579
 2488TIP3   OH228878   6.068   3.120  12.910  0.7036 -0.5085  0.2997
 2488TIP3    H128879   6.150   3.150  12.871 -0.4215 -0.1794 -1.9683
 2488TIP3    H228880   6.075   3.024  12.911 -0.2066 -0.7206 -3.2338
 2489TIP3   OH228881   1.734   1.004  12.936 -0.2106 -0.3189 -0.4965
 2489TIP3    H128882   1.828   1.019  12.947 -0.2333  1.7115 -2.7772
 2489TIP3    H228883   1.726   0.973  12.846 -1.9533  1.5379 -0.9878
 2490TIP3   OH228884   5.791   2.345  10.036 -0.6003  0.0673  0.1063
 2490TIP3    H128885   5.759   2.314  10.120 -0.3408  1.1777  0.6253
 2490TIP3    H228886   5.885   2.325  10.037 -0.3956  1.0084  0.5185
 2491TIP3   OH228887   7.146   1.182  11.981 -0.1523  0.0660 -0.4973
 2491TIP3    H128888   7.187   1.262  11.949  0.2869 -0.2013 -0.6120
 2491TIP3    H228889   7.218   1.120  11.990 -0.1060  0.4728  2.1155
 2492TIP3   OH228890   1.340   1.398  12.195 -0.2095  0.1771  0.1497
 2492TIP3    H128891   1.409   1.335  12.175 -0.1727  0.5742 -1.0374
 2492TIP3    H228892   1.387   1.477  12.223 -0.2397 -0.1197  1.0561
 2493TIP3   OH228893   3.977   0.269  13.867 -0.0700  0.1792  0.6542
 2493TIP3    H128894   3.938   0.233  13.947 -0.5992  0.6301  0.6042
 2493TIP3    H228895   3.942   0.358  13.861 -2.8443 -0.9781 -1.9326
 2494TIP3   OH228896   0.680   2.286  11.550 -0.4142  0.0998 -0.4081
 2494TIP3    H128897   0.749   2.239  11.503 -0.5999  1.1154 -1.7215
 2494TIP3    H228898   0.601   2.270  11.499 -0.7990  0.4518  0.0773
 2495TIP3   OH228899   6.445   4.263   9.784  0.4538  0.1615  0.0392
 2495TIP3    H128900   6.354   4.253   9.754  0.0985 -0.2075  1.2091
 2495TIP3    H228901   6.480   4.174   9.783  0.1109 -0.0021  1.7213
 2496TIP3   OH228902   1.901   4.947  11.938  0.1941 -0.3601  0.4021
 2496TIP3    H128903   1.903   4.880  11.869 -3.6852  1.9232 -2.1058
 2496TIP3    H228904   1.958   5.016  11.905  0.3972 -0.3788  0.7169
 2497TIP3   OH228905   5.991   5.000  10.184 -0.6090 -0.1907 -0.6117
 2497TIP3    H128906   6.066   5.059  10.192  0.0890 -1.2400  0.8751
 2497TIP3    H228907   6.027   4.913  10.201 -2.3562 -0.5789  1.3200
 2498TIP3   OH228908   1.671   4.211  11.355  0.2181 -0.1865  0.4196
 2498TIP3    H128909   1.762   4.226  11.379  0.1722  0.5763  0.1268
 2498TIP3    H228910   1.654   4.121  11.382  0.5694  0.2020  1.9899
 2499TIP3   OH228911   3.440   4.828  10.271  0.1635 -0.3015  0.4139
 2499TIP3    H128912   3.496   4.814  10.347 -0.3032 -0.7818  0.6764
 2499TIP3    H228913   3.493   4.880  10.211  0.1367  1.0952  1.5523
 2500TIP3   OH228914   6.723   6.551  13.411  0.6228  0.0361  0.1421
 2500TIP3    H128915   6.682   6.579  13.493 -0.3871 -0.7728 -0.0723
 2500TIP3    H228916   6.766   6.468  13.433 -2.5459 -1.9899 -0.9038
 2501TIP3   OH228917   4.706   6.975  11.339  0.5943  0.2606  0.5875
 2501TIP3    H128918   4.776   6.965  11.275 -1.1595  1.4230 -1.5928
 2501TIP3    H228919   4.738   7.043  11.399  2.9687 -2.0489  2.0543
 2502TIP3   OH228920   3.558   4.537  12.311  0.0764  0.0948 -0.0761
 2502TIP3    H128921   3.627   4.490  12.264  0.0579 -0.6683  0.6398
 2502TIP3    H228922   3.577   4.522  12.404 -1.6343 -1.0078  0.1244
 2503TIP3   OH228923   6.932   0.914  12.331 -0.4575  0.0929 -0.9540
 2503TIP3    H128924   6.841   0.898  12.305 -0.9209  0.1138  0.5857
 2503TIP3    H228925   6.945   0.857  12.406  0.8387  0.0265 -1.2307
 2504TIP3   OH228926   7.159   0.881  11.516 -0.0236  0.0637  0.5584
 2504TIP3    H128927   7.159   0.796  11.473 -0.7189  0.2913  0.1016
 2504TIP3    H228928   7.247   0.889  11.554  0.2759 -0.5423 -0.0037
 2505TIP3   OH228929   2.859   4.385  10.882 -0.2206 -0.5999 -0.5127
 2505TIP3    H128930   2.939   4.424  10.916 -0.0307 -0.6312 -0.9228
 2505TIP3    H228931   2.799   4.383  10.957  0.9213 -2.6969  0.3982
 2506TIP3   OH228932   6.947   6.488  12.369 -0.3600  0.8941 -0.0906
 2506TIP3    H128933   6.857   6.500  12.401 -0.0779 -1.1343  1.5183
 2506TIP3    H228934   7.001   6.529  12.436  0.0646 -0.5709  0.4785
 2507TIP3   OH228935   1.711   4.397  10.803  0.0760 -0.8024 -0.3948
 2507TIP3    H128936   1.770   4.415  10.730 -1.2356 -1.2909 -1.5920
 2507TIP3    H228937   1.630   4.367  10.762 -0.7940 -0.7665  1.2489
 2508TIP3   OH228938   1.924   1.026  11.538  0.2204 -0.3057 -0.1266
 2508TIP3    H128939   1.931   1.088  11.465 -0.5749  0.4331  0.4188
 2508TIP3    H228940   1.864   0.959  11.506  0.3086 -0.2811 -0.3492
 2509TIP3   OH228941   0.063   5.272  10.103 -0.9534 -0.2318  0.0463
 2509TIP3    H128942   0.007   5.274  10.025 -2.6334  2.3570  1.2586
 2509TIP3    H228943   0.149   5.300  10.071 -1.2244 -0.7198 -1.1400
 2510TIP3   OH228944   4.383   3.925  11.257  0.0663 -0.0907 -0.4260
 2510TIP3    H128945   4.446   3.958  11.321 -0.7653  0.3896  0.1386
 2510TIP3    H228946   4.355   4.002  11.209 -2.7632  0.2418  1.6737
 2511TIP3   OH228947   5.795   3.076  10.123  0.6596 -0.3384 -0.1193
 2511TIP3    H128948   5.875   3.118  10.155  0.3269  0.9481 -0.9189
 2511TIP3    H228949   5.782   3.114  10.036 -1.0685 -0.1944  0.1843
 2512TIP3   OH228950   5.962   2.606  10.577 -0.5876  0.5964  0.2446
 2512TIP3    H128951   5.916   2.568  10.652 -0.7265  1.5825  0.6688
 2512TIP3    H228952   5.977   2.697  10.602  0.5173  0.5996 -0.3973
 2513TIP3   OH228953   2.554   6.419  10.920  0.3993 -0.2554 -0.2452
 2513TIP3    H128954   2.646   6.410  10.896  0.3493  0.5792 -0.7492
 2513TIP3    H228955   2.520   6.488  10.863 -1.4780 -3.0536 -2.6725
 2514TIP3   OH228956   6.854   4.130  10.352 -0.3948  0.2025 -0.1126
 2514TIP3    H128957   6.848   4.044  10.393 -0.3257  0.3372  0.1809
 2514TIP3    H228958   6.841   4.192  10.424  1.9134  0.4739  0.1125
 2515TIP3   OH228959   2.278   4.902  11.596  0.1542 -0.2292 -0.5821
 2515TIP3    H128960   2.331   4.895  11.517 -0.0266 -0.3799 -0.6899
 2515TIP3    H228961   2.329   4.860  11.665  0.5455  0.3648 -0.5022
 2516TIP3   OH228962   0.360   2.921  13.818 -0.0097 -0.3271  0.1933
 2516TIP3    H128963   0.354   2.827  13.803  0.1748 -0.5290  1.3051
 2516TIP3    H228964   0.429   2.951  13.760  1.3774 -1.2348  1.3539
 2517TIP3   OH228965   6.562   2.603  11.455 -0.0593 -0.1799  0.2230
 2517TIP3    H128966   6.608   2.663  11.513  0.1066 -1.0820  1.0406
 2517TIP3    H228967   6.565   2.645  11.369 -0.5395  1.3028  0.9148
 2518TIP3   OH228968   6.215   3.223  11.626  0.3114 -0.0727 -0.5282
 2518TIP3    H128969   6.248   3.310  11.602  0.5551  0.0875  0.3707
 2518TIP3    H228970   6.130   3.216  11.582 -0.6510  1.4309  1.0449
 2519TIP3   OH228971   5.478   5.883  12.047  0.4705 -0.2075  0.2195
 2519TIP3    H128972   5.502   5.824  11.975 -1.3788 -1.6037  0.7232
 2519TIP3    H228973   5.478   5.827  12.125  1.5628  1.1023  1.1918
 2520TIP3   OH228974   3.843   6.777  12.441 -0.3299 -0.1256 -0.3928
 2520TIP3    H128975   3.874   6.787  12.351  0.6318  2.0031  0.1553
 2520TIP3    H228976   3.895   6.705  12.476 -0.1129 -0.4058 -1.2791
 2521TIP3   OH228977   4.657   3.026  12.131  0.4091 -0.3323  0.4517
 2521TIP3    H128978   4.677   3.119  12.118  0.5630 -0.7220 -2.2968
 2521TIP3    H228979   4.699   2.982  12.057 -0.6554 -2.4731  1.0874
 2522TIP3   OH228980   0.825   5.825  11.888 -0.6193 -0.2274  0.8147
 2522TIP3    H128981   0.835   5.778  11.971 -0.9666  0.3330  1.1742
 2522TIP3    H228982   0.759   5.775  11.839  1.1080 -1.7723 -0.0038
 2523TIP3   OH228983   0.194   3.968  11.618 -0.1387 -0.0474  0.7502
 2523TIP3    H128984   0.171   3.925  11.700 -0.9110 -0.1992  0.4640
 2523TIP3    H228985   0.111   4.002  11.585  0.3813  1.1843  0.6962
 2524TIP3   OH228986   1.458   2.585  10.426  0.3604 -0.3670  0.3318
 2524TIP3    H128987   1.526   2.517  10.418 -0.6267 -1.7661  3.1623
 2524TIP3    H228988   1.444   2.593  10.521 -2.2566  1.0805 -0.1418
 2525TIP3   OH228989   4.857   2.160  11.420  0.0674 -0.7673  0.3853
 2525TIP3    H128990   4.916   2.130  11.351  0.4044  0.7731  0.0008
 2525TIP3    H228991   4.778   2.190  11.374  0.2418  0.1457  0.6730
 2526TIP3   OH228992   0.319   0.972   9.627 -0.3045 -0.5981 -0.0397
 2526TIP3    H128993   0.371   0.918   9.567  1.5980 -2.1881  2.9603
 2526TIP3    H228994   0.242   0.918   9.647  0.6924 -1.4564  1.5200
 2527TIP3   OH228995   2.471   0.508  11.870  0.7414 -0.1088  0.2195
 2527TIP3    H128996   2.551   0.515  11.922  0.6406 -2.5136  0.7220
 2527TIP3    H228997   2.489   0.561  11.792  2.7001 -0.3903  0.4583
 2528TIP3   OH228998   6.862   3.655  11.277 -0.2087 -0.1487 -0.1459
 2528TIP3    H128999   6.944   3.605  11.277  0.3897  0.8042 -0.5256
 2528TIP3    H229000   6.794   3.590  11.266  0.7008 -0.6506 -3.2848
 2529TIP3   OH229001   1.245   1.346  11.180 -0.2622  0.1346 -0.2368
 2529TIP3    H129002   1.279   1.285  11.245  0.8217  1.5059  0.5017
 2529TIP3    H229003   1.313   1.349  11.112 -0.4518  0.2870 -0.4213
 2530TIP3   OH229004   1.463   6.721   9.438  0.0994  0.1729  0.2853
 2530TIP3    H129005   1.532   6.696   9.500  1.1184 -0.2921 -1.0269
 2530TIP3    H229006   1.400   6.649   9.442  0.3703 -0.0546  0.4575
 2531TIP3   OH229007   2.964   0.283  11.621 -0.3847 -0.0042  0.0771
 2531TIP3    H129008   3.026   0.269  11.692  0.2988 -0.1155 -0.5256
 2531TIP3    H229009   3.019   0.304  11.545 -1.0958  0.1089 -0.4190
 2532TIP3   OH229010   6.317   5.091  14.163  0.1010 -0.1448 -0.2539
 2532TIP3    H129011   6.399   5.083  14.212  1.0803  0.0805 -1.8121
 2532TIP3    H229012   6.280   5.174  14.192  2.1190  1.4334 -1.9556
 2533TIP3   OH229013   4.688   6.450   9.988 -0.0701  0.2596 -0.4013
 2533TIP3    H129014   4.732   6.535   9.989  0.6490 -0.1101 -0.7994
 2533TIP3    H229015   4.758   6.386   9.975 -0.5139 -0.4579  0.6259
 2534TIP3   OH229016   1.692   0.670  12.268  0.6840 -0.4038  0.2094
 2534TIP3    H129017   1.758   0.666  12.199  0.9534  0.3703  0.4161
 2534TIP3    H229018   1.674   0.764  12.279  1.4234 -0.4488  1.9339
 2535TIP3   OH229019   2.640   6.350  12.265  0.0289 -0.4044  0.9190
 2535TIP3    H129020   2.645   6.274  12.207 -0.1934  1.0481 -1.0500
 2535TIP3    H229021   2.720   6.346  12.318  2.0580  0.2478 -2.0137
 2536TIP3   OH229022   3.224   3.373  10.653  0.2893  0.6235  1.0944
 2536TIP3    H129023   3.287   3.347  10.586 -0.0187  1.9304  0.2865
 2536TIP3    H229024   3.175   3.293  10.673  0.7076  0.1181  0.1202
 2537TIP3   OH229025   0.607   0.492  13.256  0.5050 -1.2813 -0.6485
 2537TIP3    H129026   0.643   0.507  13.169 -0.4664 -1.2636 -1.0460
 2537TIP3    H229027   0.669   0.537  13.315  1.3264 -1.5540 -1.2909
 2538TIP3   OH229028   0.212   3.231  10.873 -0.5836 -0.4242  0.0430
 2538TIP3    H129029   0.280   3.181  10.829 -0.9468 -1.0332  0.1754
 2538TIP3    H229030   0.166   3.167  10.927 -0.2403  0.2849  1.1926
 2539TIP3   OH229031   3.382   0.792  11.041  0.2664 -0.0504  0.0645
 2539TIP3    H129032   3.312   0.779  10.977  1.1297  1.7375 -1.2880
 2539TIP3    H229033   3.348   0.859  11.100  0.7390  0.7016 -0.4991
 2540TIP3   OH229034   4.727   5.183  11.134  0.3359  0.6150  0.3394
 2540TIP3    H129035   4.764   5.131  11.206 -0.8061 -0.3443  0.2513
 2540TIP3    H229036   4.636   5.154  11.128  0.6695 -0.0625 -2.1470
 2541TIP3   OH229037   2.259   7.101  12.774  0.6977 -0.2077  0.0004
 2541TIP3    H129038   2.219   7.186  12.756  1.4191  0.2366  0.4695
 2541TIP3    H229039   2.307   7.079  12.693  1.6815  0.5049  0.3804
 2542TIP3   OH229040   0.668   6.824  10.619  0.1478  0.1532 -0.0685
 2542TIP3    H129041   0.626   6.744  10.652  1.1731 -0.3567  0.0117
 2542TIP3    H229042   0.698   6.868  10.698  0.6468  0.0244 -0.1878
 2543TIP3   OH229043   1.988   5.853   9.941 -0.3294  0.5461 -0.4445
 2543TIP3    H129044   2.013   5.830  10.031 -0.5818  2.7438  0.2326
 2543TIP3    H229045   1.892   5.861   9.945 -0.4046 -0.0430 -1.0811
 2544TIP3   OH229046   5.369   4.895  12.848 -0.3612 -0.2714 -0.6963
 2544TIP3    H129047   5.286   4.934  12.819 -0.7987 -0.2619  0.5435
 2544TIP3    H229048   5.435   4.958  12.821 -0.9621  0.7754  0.2315
 2545TIP3   OH229049   1.793   5.826  10.643 -0.6180 -0.1008  0.4329
 2545TIP3    H129050   1.715   5.815  10.587  0.6740  0.4742 -1.5476
 2545TIP3    H229051   1.827   5.737  10.653 -1.1377 -0.2697  0.7316
 2546TIP3   OH229052   2.529   4.626  12.611 -0.2756  1.1190  0.1033
 2546TIP3    H129053   2.551   4.649  12.521  0.2978  0.2062  0.0074
 2546TIP3    H229054   2.436   4.650  12.619 -0.4933  0.6613 -0.9113
 2547TIP3   OH229055   1.881   4.192  12.931 -0.3140 -0.3865 -0.0355
 2547TIP3    H129056   1.975   4.211  12.926 -0.4639  0.2662 -0.5238
 2547TIP3    H229057   1.839   4.277  12.921 -0.9521 -0.6350  0.5409
 2548TIP3   OH229058   3.296   5.570  11.625  0.4183  0.0779  0.3926
 2548TIP3    H129059   3.226   5.631  11.601  0.5876  0.9468  2.0824
 2548TIP3    H229060   3.352   5.566  11.547 -1.9296 -1.2927 -1.3257
 2549TIP3   OH229061   5.079   1.233  10.807  0.0849  0.5590  0.6387
 2549TIP3    H129062   5.149   1.220  10.871 -0.7087 -1.4893  1.1490
 2549TIP3    H229063   5.120   1.215  10.722  0.4068  0.2970  0.8489
 2550TIP3   OH229064   3.959   4.507  10.736 -0.2424 -0.4458  0.2171
 2550TIP3    H129065   3.979   4.471  10.650 -0.1818 -0.8340  0.3955
 2550TIP3    H229066   3.889   4.571  10.720 -1.3963 -1.7218  0.1085
 2551TIP3   OH229067   4.726   5.216  12.147  0.7922  0.2503 -0.1393
 2551TIP3    H129068   4.679   5.189  12.226 -0.6417  1.0729 -0.6955
 2551TIP3    H229069   4.818   5.209  12.171  0.3788  1.1428  1.8449
 2552TIP3   OH229070   2.951   3.884  12.260  1.1296  0.3419 -0.0724
 2552TIP3    H129071   3.014   3.925  12.201  0.8431  1.2302  0.2332
 2552TIP3    H229072   3.005   3.835  12.322  1.4539 -0.1482 -0.7340
 2553TIP3   OH229073   6.800   0.417  10.401  0.2104 -0.4205  0.0225
 2553TIP3    H129074   6.791   0.511  10.392 -0.2783 -0.6544 -2.3539
 2553TIP3    H229075   6.894   0.400  10.391  0.0679 -0.3457 -1.6401
 2554TIP3   OH229076   5.721   2.072  12.254 -0.8271 -0.1861  0.1063
 2554TIP3    H129077   5.633   2.036  12.238 -0.9852 -0.6492  1.9837
 2554TIP3    H229078   5.751   2.100  12.167 -1.4795 -3.0898 -1.1234
 2555TIP3   OH229079   1.830   5.772   9.739 -0.7046 -0.3326  0.1598
 2555TIP3    H129080   1.775   5.719   9.797 -0.6907 -0.3118  0.1917
 2555TIP3    H229081   1.910   5.787   9.789  0.6406 -3.0594 -1.1426
 2556TIP3   OH229082   1.243   4.869  13.429  0.1890  0.3118 -0.0490
 2556TIP3    H129083   1.272   4.779  13.448 -0.3443  0.1228 -0.1245
 2556TIP3    H229084   1.317   4.924  13.456  0.1499 -0.0854  0.8998
 2557TIP3   OH229085   5.237   0.060  10.610 -0.4046  0.4462 -0.2118
 2557TIP3    H129086   5.288  -0.020  10.600  0.2764  1.2256 -3.5916
 2557TIP3    H229087   5.302   0.130  10.600 -1.4415  1.4253 -0.1225
 2558TIP3   OH229088   3.528   0.022  12.116 -0.1152 -0.1356  0.2495
 2558TIP3    H129089   3.528   0.058  12.027  1.9168 -0.8127 -0.0412
 2558TIP3    H229090   3.489  -0.065  12.107 -1.7543  0.5672  0.3714
 2559TIP3   OH229091   1.161   5.816  11.212  0.0416 -0.4685  0.2910
 2559TIP3    H129092   1.223   5.823  11.140 -0.6813  0.2772 -0.2702
 2559TIP3    H229093   1.208   5.849  11.288  0.2839  0.2159 -0.1574
 2560TIP3   OH229094   2.047   6.133  10.031  0.3366  0.5347  0.3705
 2560TIP3    H129095   1.975   6.155  10.090  2.2845  0.0493  2.9847
 2560TIP3    H229096   2.044   6.038  10.023  0.2870  0.5712 -0.0735
 2561TIP3   OH229097   0.764   0.969  10.770  0.1303  0.2322 -0.2248
 2561TIP3    H129098   0.762   1.022  10.690 -1.4969 -0.7317 -0.8501
 2561TIP3    H229099   0.738   1.029  10.839 -1.4898  0.3262 -0.8969
 2562TIP3   OH229100   5.741   5.576  10.472  0.3121 -0.6318  0.2156
 2562TIP3    H129101   5.716   5.531  10.391  0.4596  0.2117 -0.3051
 2562TIP3    H229102   5.810   5.636  10.445  0.0645 -0.0445  0.8935
 2563TIP3   OH229103   2.257   6.822  10.597 -0.1237  0.0928  0.4180
 2563TIP3    H129104   2.222   6.814  10.508  0.9171 -2.6316  0.1966
 2563TIP3    H229105   2.319   6.748  10.605 -0.1999  0.2967  3.3917
 2564TIP3   OH229106   6.781   2.832  13.937 -0.4297  0.6822 -0.5845
 2564TIP3    H129107   6.788   2.761  14.001 -0.3023  0.8888 -0.3675
 2564TIP3    H229108   6.694   2.869  13.954 -0.5267  0.5331 -0.7472
 2565TIP3   OH229109   5.182   5.744  11.110  0.1984 -0.1598 -0.4341
 2565TIP3    H129110   5.101   5.794  11.119  0.1993 -0.0174 -1.1671
 2565TIP3    H229111   5.219   5.741  11.198  1.1836  2.8156 -0.6903
 2566TIP3   OH229112   0.414   4.905  10.717 -0.2886  0.4687 -0.1441
 2566TIP3    H129113   0.331   4.876  10.754  0.7267 -0.5690  1.4035
 2566TIP3    H229114   0.410   4.879  10.625 -2.0200  1.2076 -0.2913
 2567TIP3   OH229115   1.551   6.769  13.698 -0.3142  0.1958  0.1752
 2567TIP3    H129116   1.596   6.810  13.772 -0.4074  2.1168 -0.8123
 2567TIP3    H229117   1.464   6.810  13.697  0.0622  0.9805 -1.6518
 2568TIP3   OH229118   6.734   6.008  10.938 -0.4807 -0.7145 -0.1742
 2568TIP3    H129119   6.759   6.100  10.924  0.5734 -0.9433  0.1793
 2568TIP3    H229120   6.753   5.966  10.854 -3.0973 -0.1821 -1.1095
 2569TIP3   OH229121   1.580   5.997  11.513 -0.1882  0.0471 -0.5024
 2569TIP3    H129122   1.639   5.927  11.487 -0.6391  0.0122 -1.4264
 2569TIP3    H229123   1.521   5.956  11.577 -1.2011 -0.7213 -1.9197
 2570TIP3   OH229124   4.658   6.280   0.855 -0.6386 -0.2358 -0.1406
 2570TIP3    H129125   4.619   6.207   0.903  1.4382 -1.0025  0.4639
 2570TIP3    H229126   4.722   6.239   0.797 -0.2708  1.0142 -0.6356
 2571TIP3   OH229127   6.935   3.002  12.625  0.3085 -0.3923  0.5577
 2571TIP3    H129128   6.907   3.046  12.705  0.9433  0.4907  0.2944
 2571TIP3    H229129   6.869   3.026  12.559  0.8530  0.4778  0.3192
 2572TIP3   OH229130   6.862   2.083  10.631 -0.3836  0.2818  0.0293
 2572TIP3    H129131   6.847   2.139  10.555 -0.3410  0.8302  0.4125
 2572TIP3    H229132   6.901   2.142  10.696  0.9424 -0.5050 -0.0330
 2573TIP3   OH229133   5.099   2.735  12.332 -0.1447  0.4557  0.0099
 2573TIP3    H129134   5.182   2.700  12.299  0.2156  1.7358 -0.5041
 2573TIP3    H229135   5.032   2.693  12.278  0.3015  0.8246 -0.8389
 2574TIP3   OH229136   2.319   2.771   9.673 -0.2135  0.5864 -0.2339
 2574TIP3    H129137   2.349   2.837   9.736  0.0544 -0.1516  0.4130
 2574TIP3    H229138   2.263   2.712   9.724 -0.0727  0.0370 -0.7093
 2575TIP3   OH229139   6.025   2.160  11.227  0.2178 -0.3014 -0.7461
 2575TIP3    H129140   5.955   2.103  11.196  0.3423  0.0613 -1.6935
 2575TIP3    H229141   6.102   2.103  11.231  0.1213 -0.4329 -0.7603
 2576TIP3   OH229142   0.807   0.504  12.551  0.0510  0.0817  0.9197
 2576TIP3    H129143   0.864   0.581  12.553 -0.4061  0.4284  0.9734
 2576TIP3    H229144   0.841   0.447  12.620 -0.8016  1.1285  2.2326
 2577TIP3   OH229145   3.509   2.698  11.701  0.0315 -0.5018 -0.2904
 2577TIP3    H129146   3.423   2.735  11.683  0.1227 -0.1761 -0.0633
 2577TIP3    H229147   3.570   2.756  11.654  0.3058  0.6136  1.3923
 2578TIP3   OH229148   5.683   0.109  13.728  0.1462 -0.4098 -0.6762
 2578TIP3    H129149   5.607   0.075  13.776  1.5330 -1.0117  1.2045
 2578TIP3    H229150   5.722   0.031  13.687  1.3613 -0.5946  0.7693
 2579TIP3   OH229151   0.501   6.890  10.163 -0.0054  0.4272  0.2276
 2579TIP3    H129152   0.420   6.842  10.180  0.1478 -0.0258 -0.3513
 2579TIP3    H229153   0.502   6.958  10.231 -0.6801  0.1995  0.4711
 2580TIP3   OH229154   5.162   0.501  12.026 -0.2043 -0.6071  0.4776
 2580TIP3    H129155   5.103   0.446  11.975 -1.6151  0.9567  0.3831
 2580TIP3    H229156   5.107   0.538  12.095  0.2654  2.0611 -0.5098
 2581TIP3   OH229157   6.932   4.889  11.398  0.3848  0.0668 -0.1014
 2581TIP3    H129158   6.973   4.845  11.323 -0.2577 -0.2269 -0.2800
 2581TIP3    H229159   6.849   4.845  11.410 -1.9835  3.5824 -2.6045
 2582TIP3   OH229160   0.665   6.105  10.190 -0.5865 -0.7116  0.2935
 2582TIP3    H129161   0.663   6.026  10.244 -1.7046 -1.2945 -0.5731
 2582TIP3    H229162   0.731   6.087  10.123  1.7121  0.5078  2.1619
 2583TIP3   OH229163   1.715   4.717   9.893  0.7499 -0.3249  0.2707
 2583TIP3    H129164   1.758   4.741   9.811 -0.8040  0.1621 -0.4127
 2583TIP3    H229165   1.686   4.801   9.930 -2.3712 -0.8723 -0.8301
 2584TIP3   OH229166   5.867   5.704  14.907  0.5369 -0.2793 -0.1140
 2584TIP3    H129167   5.955   5.726  14.937  1.0432 -0.9585 -1.0736
 2584TIP3    H229168   5.852   5.614  14.936 -0.5864  0.4565  1.6835
 2585TIP3   OH229169   6.302   5.444  13.075 -0.4150  0.0849 -0.5644
 2585TIP3    H129170   6.240   5.453  13.147  0.3237  3.5818 -0.2649
 2585TIP3    H229171   6.379   5.402  13.115 -0.2556  1.4039  0.5708
 2586TIP3   OH229172   0.544   1.654  11.502 -0.3219 -0.1055 -0.2085
 2586TIP3    H129173   0.614   1.718  11.509 -0.9435  0.6918 -1.1946
 2586TIP3    H229174   0.464   1.706  11.492 -1.3403 -0.9323  2.8977
 2587TIP3   OH229175   1.045   5.244   9.798  0.7414  0.1528  0.1762
 2587TIP3    H129176   0.994   5.163   9.798 -1.7437  1.6468  2.1788
 2587TIP3    H229177   1.136   5.215   9.805  0.0542 -2.5058 -1.2886
 2588TIP3   OH229178   2.580   0.061  11.829  0.3549 -0.4727 -0.0576
 2588TIP3    H129179   2.602   0.107  11.748  1.7649  1.2728  1.2729
 2588TIP3    H229180   2.532  -0.016  11.800  0.2585  0.4551 -2.5185
 2589TIP3   OH229181   4.037   4.944  10.657 -0.0881 -0.3056  0.5296
 2589TIP3    H129182   4.049   4.859  10.614 -0.2622  0.1675 -0.4639
 2589TIP3    H229183   3.949   4.972  10.632  1.4517  2.0149 -2.4572
 2590TIP3   OH229184   4.880   5.289  10.293 -0.2948 -0.4014 -0.0959
 2590TIP3    H129185   4.850   5.204  10.261 -0.0399 -0.2076 -0.8556
 2590TIP3    H229186   4.810   5.319  10.351  0.9739 -2.5538  2.7021
 2591TIP3   OH229187   7.085   1.484  10.699 -0.0383  0.2172 -0.0069
 2591TIP3    H129188   7.095   1.574  10.669  0.3212  0.0565 -0.3774
 2591TIP3    H229189   6.991   1.474  10.713  0.0053  0.8732  0.7559
 2592TIP3   OH229190   0.531   5.804   9.738  0.1517  0.2564  0.1164
 2592TIP3    H129191   0.575   5.736   9.687  0.5247  1.1881 -0.8170
 2592TIP3    H229192   0.594   5.824   9.809  0.1288 -0.2161  0.2726
 2593TIP3   OH229193   7.155   0.074  10.500 -0.4653  0.0695  0.3890
 2593TIP3    H129194   7.180   0.166  10.509 -2.6875  0.9349 -1.7938
 2593TIP3    H229195   7.077   0.064  10.555 -0.3659 -0.4819  0.4428
 2594TIP3   OH229196   1.133   0.302  15.445 -0.1136  0.1928  0.1765
 2594TIP3    H129197   1.058   0.343  15.402  0.6184  0.9566 -0.3918
 2594TIP3    H229198   1.159   0.365  15.513  0.6238  0.3818 -0.2819
 2595TIP3   OH229199   4.346   1.481  11.640 -0.2412 -0.1604  0.2180
 2595TIP3    H129200   4.423   1.483  11.697  1.3100  0.4691 -1.8291
 2595TIP3    H229201   4.274   1.458  11.698  1.2385  0.6705  2.4805
 2596TIP3   OH229202   4.793   7.039  11.016  0.4580 -0.3816 -0.1080
 2596TIP3    H129203   4.718   7.097  11.006  1.1905  0.8005  1.1208
 2596TIP3    H229204   4.757   6.951  11.005 -0.7820  0.2485 -1.2746
 2597TIP3   OH229205   1.295   6.290  11.878 -0.5063 -0.2719  0.1055
 2597TIP3    H129206   1.356   6.279  11.806  1.0489 -1.0658  1.5220
 2597TIP3    H229207   1.293   6.204  11.921 -5.0179 -1.2520 -1.7464
 2598TIP3   OH229208   1.608   3.048  12.681  0.5821 -0.4646 -0.5198
 2598TIP3    H129209   1.562   2.963  12.676  0.6376 -0.4221 -1.9075
 2598TIP3    H229210   1.694   3.031  12.644  1.1580 -0.1598  0.6471
 2599TIP3   OH229211   0.872   2.844  14.531 -0.1240 -0.2912  0.7547
 2599TIP3    H129212   0.918   2.919  14.568  0.2320 -0.3512  0.4333
 2599TIP3    H229213   0.802   2.882  14.478  0.7900 -0.1549 -0.3763
 2600TIP3   OH229214   6.432   1.038  11.332 -0.3152  0.2279  0.0606
 2600TIP3    H129215   6.346   0.998  11.314  0.6728 -1.2019 -1.6392
 2600TIP3    H229216   6.485   1.016  11.255  1.8135  0.4534  1.4363
 2601TIP3   OH229217   4.234   0.422  11.610  0.2295 -0.0598 -0.1343
 2601TIP3    H129218   4.268   0.445  11.697  0.1845  1.1200 -0.4210
 2601TIP3    H229219   4.283   0.343  11.586 -1.8721 -2.1942  2.2363
 2602TIP3   OH229220   2.742   6.625  12.196  0.6611  0.4408 -0.0707
 2602TIP3    H129221   2.720   6.536  12.223  1.4360  0.2093 -0.2046
 2602TIP3    H229222   2.681   6.681  12.245 -1.0951 -0.2590 -1.3738
 2603TIP3   OH229223   4.240   5.064  10.804  0.4463  0.1291  0.1860
 2603TIP3    H129224   4.175   5.024  10.747  0.5701  0.6079 -0.2960
 2603TIP3    H229225   4.190   5.102  10.877  0.3604 -1.2437  0.8605
 2604TIP3   OH229226   1.917   6.332  10.428  0.2520 -0.1505  0.1509
 2604TIP3    H129227   1.880   6.251  10.465  0.8131 -1.0006 -1.1025
 2604TIP3    H229228   2.011   6.320  10.435  0.3430  0.1892 -0.5033
 2605TIP3   OH229229   1.357   0.824  12.023  0.0137 -0.0107  0.3890
 2605TIP3    H129230   1.399   0.836  12.108 -2.8627 -0.8758  1.9999
 2605TIP3    H229231   1.322   0.735  12.026  0.0635 -0.1196 -1.7880
 2606TIP3   OH229232   0.946   6.532  10.383 -0.7814 -0.0860  0.3389
 2606TIP3    H129233   1.001   6.520  10.306 -0.4427 -0.6362  0.6649
 2606TIP3    H229234   1.006   6.562  10.451 -1.1137  0.5927  0.3396
 2607TIP3   OH229235   4.405   4.436  10.452  0.3422 -0.1187 -0.5832
 2607TIP3    H129236   4.324   4.436  10.399  0.3393  0.5521 -0.5759
 2607TIP3    H229237   4.406   4.349  10.492 -1.0628  0.3310  0.4629
 2608TIP3   OH229238   0.809   6.258   9.170 -0.5746 -0.2571  0.5713
 2608TIP3    H129239   0.745   6.327   9.150  0.1418  1.8663  4.9737
 2608TIP3    H229240   0.886   6.281   9.118 -1.9769 -0.5584 -1.6992
 2609TIP3   OH229241   6.019   2.066  13.040 -0.0162 -0.0793 -0.1324
 2609TIP3    H129242   6.016   1.970  13.047 -0.6962 -0.0041  0.6099
 2609TIP3    H229243   6.112   2.087  13.051 -0.1673 -0.4743  2.0953
 2610TIP3   OH229244   6.812   5.769   9.758 -0.1475  0.6783  0.7069
 2610TIP3    H129245   6.871   5.836   9.724 -0.2389 -0.0089 -0.8486
 2610TIP3    H229246   6.742   5.818   9.802  0.2751  1.5594  0.3997
 2611TIP3   OH229247   1.426   6.599  11.047 -0.1259 -0.6253  0.0001
 2611TIP3    H129248   1.432   6.519  11.100 -0.9434 -0.2949  0.6121
 2611TIP3    H229249   1.344   6.640  11.076  0.4581  0.6029 -0.0660
 2612TIP3   OH229250   0.815   4.906  12.223 -0.1196  0.2727 -0.0801
 2612TIP3    H129251   0.905   4.906  12.256  0.5528 -1.6248 -1.8572
 2612TIP3    H229252   0.785   4.816  12.232 -1.3067  0.5592 -0.9325
 2613TIP3   OH229253   2.241   5.787  11.097 -0.0139 -0.4046 -0.0638
 2613TIP3    H129254   2.200   5.834  11.024  0.3228 -2.0240 -1.3448
 2613TIP3    H229255   2.331   5.818  11.097 -0.5288  1.1660  1.0394
 2614TIP3   OH229256   0.934   0.868   9.530 -0.0150 -0.4491  0.4521
 2614TIP3    H129257   0.894   0.954   9.544  0.2291 -0.2125 -0.2528
 2614TIP3    H229258   1.016   0.872   9.579  0.8400  0.3766 -1.0005
 2615TIP3   OH229259   1.209   5.871  14.299 -0.1581 -0.0334 -0.0386
 2615TIP3    H129260   1.260   5.894  14.222  0.1583 -1.9303 -0.4059
 2615TIP3    H229261   1.217   5.776  14.307 -1.2175 -0.0167  1.6008
 2616TIP3   OH229262   3.394   5.974  10.147  0.0782 -0.2892  0.4093
 2616TIP3    H129263   3.478   6.016  10.164 -0.0358  0.4241 -0.7388
 2616TIP3    H229264   3.331   6.023  10.201 -0.1047  1.2347 -1.1684
 2617TIP3   OH229265   1.060   5.562  11.305 -0.2079  0.6343 -0.3313
 2617TIP3    H129266   1.134   5.524  11.353 -1.7328 -1.0439  0.7535
 2617TIP3    H229267   1.091   5.650  11.280  3.5585 -1.3817 -3.2965
 2618TIP3   OH229268   1.910   4.774  11.715 -0.1303 -0.4135 -0.4678
 2618TIP3    H129269   1.849   4.702  11.697 -0.3432 -0.3400 -0.0438
 2618TIP3    H229270   1.969   4.774  11.640  0.5162 -1.7009  0.0212
 2619TIP3   OH229271   6.512   1.578  12.426  0.5396  0.1423  0.5009
 2619TIP3    H129272   6.481   1.522  12.497 -0.9490  1.5101  0.9649
 2619TIP3    H229273   6.540   1.659  12.469  0.0943  0.7927 -0.4061
 2620TIP3   OH229274   3.021   2.527  11.712 -0.4473 -0.0338  0.0811
 2620TIP3    H129275   2.970   2.450  11.689 -1.3809  0.8730 -0.9785
 2620TIP3    H229276   3.087   2.496  11.774 -0.3973 -1.7836 -0.8402
 2621TIP3   OH229277   2.223   4.779  10.720  0.0785 -0.0819 -0.2366
 2621TIP3    H129278   2.273   4.856  10.696 -1.6413  1.0895 -0.1798
 2621TIP3    H229279   2.194   4.742  10.636 -0.7177  0.4522 -0.2033
 2622TIP3   OH229280   1.534   2.986  11.199  0.1142 -0.1761  0.0036
 2622TIP3    H129281   1.546   2.920  11.131  0.8093  0.3255 -0.3678
 2622TIP3    H229282   1.503   3.064  11.152 -0.1293 -0.0604  0.3552
 2623TIP3   OH229283   3.221   6.530  10.090 -0.0757 -0.4675  0.6644
 2623TIP3    H129284   3.242   6.546   9.998  2.4111  1.0948  1.4620
 2623TIP3    H229285   3.127   6.546  10.096 -0.5587 -2.0647 -1.8857
 2624TIP3   OH229286   3.386   7.099  12.860 -0.0769  0.4040  0.2437
 2624TIP3    H129287   3.323   7.039  12.821  0.1149 -0.3441  1.0601
 2624TIP3    H229288   3.468   7.082  12.814 -0.4182  1.2558 -0.7017
 2625TIP3   OH229289   0.044   0.396   0.150  0.5940 -0.0982 -0.0852
 2625TIP3    H129290   0.139   0.406   0.152  0.4304  2.0313 -1.2621
 2625TIP3    H229291   0.025   0.360   0.064  0.2814  0.0257 -0.0685
 2626TIP3   OH229292   2.231   3.336  13.076 -0.4190  0.5523  0.2261
 2626TIP3    H129293   2.213   3.407  13.014  0.4570  0.4090 -0.1958
 2626TIP3    H229294   2.219   3.256  13.025 -2.8212  0.3382  1.0647
 2627TIP3   OH229295   1.983   4.918  13.699 -0.8166 -0.3629  0.0653
 2627TIP3    H129296   2.015   5.008  13.701 -1.0948 -0.2892  2.4001
 2627TIP3    H229297   2.048   4.869  13.750 -1.8084 -1.0826  0.6435
 2628TIP3   OH229298   5.249   3.717  12.298  0.5792 -0.1397  0.3578
 2628TIP3    H129299   5.191   3.696  12.370  0.5746 -1.5102 -0.0371
 2628TIP3    H229300   5.319   3.651  12.303  1.2177  0.4884 -0.1541
 2629TIP3   OH229301   1.924   2.146  11.117 -0.2675 -0.1982 -0.1594
 2629TIP3    H129302   1.913   2.121  11.025  0.9911 -3.2267  0.4393
 2629TIP3    H229303   1.979   2.224  11.114  0.8306 -0.9936 -1.9599
 2630TIP3   OH229304   1.799   6.827   9.919  0.2102  0.3290 -0.5949
 2630TIP3    H129305   1.871   6.778   9.881  0.6502  1.1967 -0.8814
 2630TIP3    H229306   1.720   6.785   9.885  0.5904  0.1588 -1.2561
 2631TIP3   OH229307   1.627   2.678  12.845  0.3334 -0.2099  0.4788
 2631TIP3    H129308   1.585   2.753  12.886 -0.3634  0.0555 -0.6822
 2631TIP3    H229309   1.554   2.622  12.816  0.7264  0.3432 -1.7158
 2632TIP3   OH229310   6.487   4.526  10.598 -0.0292 -0.0148  0.7021
 2632TIP3    H129311   6.498   4.594  10.665  1.9798  0.0904  0.2908
 2632TIP3    H229312   6.573   4.517  10.559 -1.1860 -0.0846 -1.8917
 2633TIP3   OH229313   3.265   5.605  11.169  0.5834  0.6008 -0.0262
 2633TIP3    H129314   3.323   5.573  11.099  0.6582  3.3695 -1.3062
 2633TIP3    H229315   3.181   5.621  11.125 -0.4473 -0.9955  1.2940
 2634TIP3   OH229316   0.648   4.328  10.038 -0.2166 -0.2960  0.2620
 2634TIP3    H129317   0.587   4.355   9.970  0.0408 -1.5904 -0.5018
 2634TIP3    H229318   0.597   4.331  10.119 -0.8478  0.1256 -0.1465
 2635TIP3   OH229319   5.290   3.152  10.498 -0.1138  0.1863  0.2467
 2635TIP3    H129320   5.225   3.217  10.469  0.8354  1.2857  0.5671
 2635TIP3    H229321   5.348   3.141  10.423  0.0398  0.0905  0.3794
 2636TIP3   OH229322   1.581   6.658   9.835  0.6594  0.0973  0.6655
 2636TIP3    H129323   1.510   6.599   9.859 -0.0719  1.8769  3.0628
 2636TIP3    H229324   1.588   6.648   9.740 -0.8910 -2.1947  0.7408
 2637TIP3   OH229325   3.768   5.054  10.211  0.0913 -0.6410 -0.1714
 2637TIP3    H129326   3.691   5.032  10.158  0.1741  0.5145 -0.7778
 2637TIP3    H229327   3.775   5.149  10.205 -0.6137 -0.3454  2.9206
 2638TIP3   OH229328   0.736   1.274  11.786  0.0544 -0.3921  0.2289
 2638TIP3    H129329   0.746   1.313  11.699  0.0351 -1.0846 -0.0924
 2638TIP3    H229330   0.642   1.261  11.796 -0.2163  2.2238  1.5088
 2639TIP3   OH229331   2.311   5.180  14.057 -0.2225  0.3097 -0.1426
 2639TIP3    H129332   2.349   5.258  14.016 -1.1775 -0.1249 -1.9029
 2639TIP3    H229333   2.243   5.214  14.115  0.4710  0.8773  0.3470
 2640TIP3   OH229334   6.145   6.636  10.378  0.4001 -0.1341  0.0390
 2640TIP3    H129335   6.064   6.591  10.355  1.0666 -0.3597 -1.9121
 2640TIP3    H229336   6.214   6.572  10.363  1.2979  1.2912 -2.0907
 2641TIP3   OH229337   3.107   6.565  13.862 -0.4556  0.0894  0.3039
 2641TIP3    H129338   3.126   6.490  13.919 -2.3953 -0.0157  0.8650
 2641TIP3    H229339   3.163   6.552  13.786 -1.1225 -2.2446  0.1540
 2642TIP3   OH229340   2.661   6.717   9.811 -0.3970 -0.4078  0.2003
 2642TIP3    H129341   2.673   6.649   9.744 -0.1572 -0.1517 -0.0188
 2642TIP3    H229342   2.566   6.725   9.819 -0.4530 -1.8901  1.3743
 2643TIP3   OH229343   5.016   1.424  11.972  0.2637  1.1621 -0.1874
 2643TIP3    H129344   5.064   1.343  11.990  0.3043  1.5753  1.6654
 2643TIP3    H229345   4.942   1.396  11.917  0.1555 -0.1674  0.6141
 2644TIP3   OH229346   2.670   3.850  12.259  0.1374 -0.2856  0.4554
 2644TIP3    H129347   2.762   3.866  12.240 -0.3365 -0.2631 -1.9891
 2644TIP3    H229348   2.634   3.937  12.278  0.2482 -0.0488 -0.3912
 2645TIP3   OH229349   4.476   6.084  14.499  0.1620  0.3254 -0.3622
 2645TIP3    H129350   4.429   6.003  14.519 -0.6086  1.1729  1.3859
 2645TIP3    H229351   4.515   6.111  14.582  0.4659  1.7078 -0.9266
 2646TIP3   OH229352   2.693   0.664  11.200 -0.0376  0.7768 -0.6717
 2646TIP3    H129353   2.766   0.725  11.188 -0.2664  0.7082 -2.5858
 2646TIP3    H229354   2.615   0.715  11.179 -0.4713  0.5559  0.3460
 2647TIP3   OH229355   5.073   4.450  10.549  0.1818 -0.5397 -0.0641
 2647TIP3    H129356   5.135   4.456  10.621 -1.7784 -2.7087  1.8733
 2647TIP3    H229357   5.025   4.533  10.550 -0.4498 -0.9238  1.7029
 2648TIP3   OH229358   1.284   5.553  14.029 -0.2268 -0.3390 -0.0354
 2648TIP3    H129359   1.228   5.608  13.973  0.4416  3.4569  2.8203
 2648TIP3    H229360   1.372   5.565  13.993 -0.1876 -0.1943  0.1098
 2649TIP3   OH229361   7.151   3.015  10.316 -0.3487 -1.2842 -0.2261
 2649TIP3    H129362   7.212   3.046  10.250 -1.6280 -1.6406 -1.5891
 2649TIP3    H229363   7.198   3.025  10.399  1.4915 -1.4334 -1.2475
 2650TIP3   OH229364   2.640   5.270  10.981  0.4962 -0.3228  0.1123
 2650TIP3    H129365   2.691   5.235  11.053  1.1704  0.4789  0.0330
 2650TIP3    H229366   2.632   5.197  10.919  1.4874 -0.4784  0.1616
 2651TIP3   OH229367   1.329   4.661  10.512  0.2435  0.0912  0.1827
 2651TIP3    H129368   1.322   4.750  10.477  2.4029 -0.3749 -1.5853
 2651TIP3    H229369   1.300   4.605  10.441 -0.6859 -0.6710  1.1408
 2652TIP3   OH229370   5.994   4.548  12.539 -0.5431 -0.6437 -0.0987
 2652TIP3    H129371   5.993   4.608  12.465  0.4592 -0.6618 -0.1316
 2652TIP3    H229372   5.904   4.549  12.572 -1.2998 -1.5650 -2.0637
 2653TIP3   OH229373   0.717   2.857  10.429 -0.0408 -0.7304  0.3327
 2653TIP3    H129374   0.675   2.779  10.392  1.3780 -1.2781 -0.1605
 2653TIP3    H229375   0.694   2.927  10.368 -0.6966 -0.9038  0.3703
 2654TIP3   OH229376   7.075   4.860  11.872  0.0193  0.3937  0.3766
 2654TIP3    H129377   7.065   4.768  11.851 -2.6141  0.3140  1.7499
 2654TIP3    H229378   7.074   4.904  11.787  0.9304 -0.7806 -0.2597
 2655TIP3   OH229379   0.952   6.672  13.504  1.0307  0.1763  0.0168
 2655TIP3    H129380   0.965   6.599  13.565 -1.6556 -0.6579 -0.3506
 2655TIP3    H229381   0.955   6.632  13.417 -5.1536 -0.5257 -0.1426
 2656TIP3   OH229382   3.646   6.950  12.491  0.2643  0.9574 -0.5088
 2656TIP3    H129383   3.565   6.912  12.458 -0.1999  0.8358  0.7457
 2656TIP3    H229384   3.702   6.874  12.507 -0.4646  0.7994  1.4682
 2657TIP3   OH229385   6.006   4.686  11.892  0.0958  0.0485 -0.7914
 2657TIP3    H129386   6.041   4.598  11.881  4.1668  1.3036  1.1410
 2657TIP3    H229387   5.975   4.689  11.983  1.4721  1.0569 -0.3346
 2658TIP3   OH229388   5.274   3.805  10.169  0.6230  0.7078  0.6509
 2658TIP3    H129389   5.188   3.811  10.212  0.5010  4.3391  0.0599
 2658TIP3    H229390   5.337   3.812  10.241  0.4203 -0.1800  0.9154
 2659TIP3   OH229391   5.451   3.296  10.004 -0.0036  0.3412  0.5608
 2659TIP3    H129392   5.440   3.232   9.933  1.1191  0.1159  0.5840
 2659TIP3    H229393   5.468   3.379   9.959 -0.2295  0.3818  0.5508
 2660TIP3   OH229394   0.145   6.278  12.249 -0.3592  0.1276  0.3616
 2660TIP3    H129395   0.098   6.199  12.277 -0.5131  0.1422  0.1470
 2660TIP3    H229396   0.088   6.318  12.184  0.8063 -0.8722 -1.3280
 2661TIP3   OH229397   4.005   5.647  11.029  0.6493 -0.4355  0.1448
 2661TIP3    H129398   4.094   5.614  11.036  0.7726 -0.1919 -0.2975
 2661TIP3    H229399   3.988   5.652  10.935  0.2084 -0.3815  0.2230
 2662TIP3   OH229400   0.427   1.249  11.750 -0.1589 -0.5196  0.5378
 2662TIP3    H129401   0.463   1.178  11.696  2.1643  0.0587  1.2399
 2662TIP3    H229402   0.401   1.206  11.832 -0.1883 -0.8128  0.3740
 2663TIP3   OH229403   6.672   1.476  10.937  0.0760  0.2519  1.0852
 2663TIP3    H129404   6.733   1.518  10.876  0.9130  0.2594  1.9169
 2663TIP3    H229405   6.716   1.480  11.022 -1.0406  0.1643  1.6842
 2664TIP3   OH229406   1.980   6.586   9.840 -0.0099 -0.5258 -0.4709
 2664TIP3    H129407   1.957   6.526   9.769 -0.8095  0.5436 -1.1524
 2664TIP3    H229408   2.044   6.646   9.800  0.6545 -0.8261  0.1477
 2665TIP3   OH229409   1.636   5.027  10.498 -0.1836 -0.3904  0.2204
 2665TIP3    H129410   1.542   5.043  10.492 -0.0953 -0.1871 -0.8023
 2665TIP3    H229411   1.649   4.943  10.453 -0.3366 -2.2844  3.5266
 2666TIP3   OH229412   6.900   6.383  12.994  0.0040 -0.5864  0.0048
 2666TIP3    H129413   6.872   6.472  13.013  1.4544  0.3573 -2.0969
 2666TIP3    H229414   6.984   6.374  13.040 -0.0769 -0.8475  0.1048
 2667TIP3   OH229415   3.422   5.558  10.097  0.3600  0.2635 -0.4908
 2667TIP3    H129416   3.371   5.491  10.051 -0.9758  0.8601  0.0827
 2667TIP3    H229417   3.509   5.554  10.058  0.3789 -2.0083 -0.2608
 2668TIP3   OH229418   1.106   5.959  10.448 -0.3348  0.3750 -0.1241
 2668TIP3    H129419   1.022   5.922  10.476 -0.1934  0.0329 -0.1449
 2668TIP3    H229420   1.084   6.044  10.410 -0.5377  0.7860  0.9134
 2669TIP3   OH229421   3.294   5.577  11.894  0.5679  0.1863 -0.0064
 2669TIP3    H129422   3.210   5.553  11.934  0.0672  2.8525  0.6247
 2669TIP3    H229423   3.275   5.582  11.800 -0.0279  0.9111  0.1467
 2670TIP3   OH229424   0.353   3.865  11.966  0.2607 -0.4252  0.1245
 2670TIP3    H129425   0.312   3.779  11.967 -0.4197 -0.1129 -0.4389
 2670TIP3    H229426   0.300   3.919  12.025  1.6964 -0.8324  1.8416
 2671TIP3   OH229427   2.792   2.268   9.445 -0.2637  0.9273 -0.0254
 2671TIP3    H129428   2.734   2.199   9.476 -1.9074  1.4266 -1.9147
 2671TIP3    H229429   2.767   2.346   9.496 -0.4869  0.8725 -0.0530
 2672TIP3   OH229430   0.190   2.832  11.302  0.5700  0.2054  0.0630
 2672TIP3    H129431   0.143   2.765  11.252  0.1694 -1.4702  2.5850
 2672TIP3    H229432   0.146   2.832  11.388  1.7273  2.4406  0.6762
 2673TIP3   OH229433   4.623   6.595   0.525  0.3648 -0.0669 -0.4436
 2673TIP3    H129434   4.560   6.572   0.456  0.7124 -1.4656 -0.3137
 2673TIP3    H229435   4.682   6.519   0.529  1.3607  0.7373  0.2348
 2674TIP3   OH229436   2.729   2.298  12.088 -0.1764 -0.6106  0.5901
 2674TIP3    H129437   2.772   2.382  12.075 -0.5773 -0.4208  0.4908
 2674TIP3    H229438   2.773   2.260  12.165 -1.9901  0.9827  2.4503
 2675TIP3   OH229439   5.846   5.319  10.556  0.2204  0.3156 -0.6554
 2675TIP3    H129440   5.847   5.299  10.650  1.4907  0.0066 -0.7274
 2675TIP3    H229441   5.819   5.411  10.552  1.0152  0.5923  0.0695
 2676TIP3   OH229442   0.489   6.379  10.611  0.1226 -0.4013 -0.7132
 2676TIP3    H129443   0.559   6.370  10.548  1.0832 -0.6479  0.3660
 2676TIP3    H229444   0.428   6.308  10.589 -1.1300  1.3900 -3.2739
 2677TIP3   OH229445   0.072   4.166  11.232  0.2833 -0.6283  0.1347
 2677TIP3    H129446   0.136   4.111  11.187  0.0614 -0.6069 -0.2046
 2677TIP3    H229447  -0.009   4.114  11.231  0.1941 -0.4921  0.2214
 2678TIP3   OH229448   0.872   6.285  12.215 -1.0305  0.4861 -0.2554
 2678TIP3    H129449   0.828   6.323  12.291  1.8834  1.1401  1.1725
 2678TIP3    H229450   0.924   6.357  12.179 -0.6348 -0.4246 -1.5473
 2679TIP3   OH229451   0.432   6.666  13.133 -0.1298 -0.0876  0.1496
 2679TIP3    H129452   0.421   6.760  13.141  0.8671 -0.0081  0.6677
 2679TIP3    H229453   0.526   6.654  13.118 -0.5847 -0.8365 -2.4047
 2680TIP3   OH229454   1.160   1.033  12.842  0.3649  0.0026  0.0695
 2680TIP3    H129455   1.109   1.028  12.923  2.3150  0.8838  1.3917
 2680TIP3    H229456   1.166   0.942  12.811 -0.7809 -0.2750  0.6626
 2681TIP3   OH229457   3.291   4.195  11.311 -0.2859  0.1178 -0.3804
 2681TIP3    H129458   3.353   4.235  11.373 -2.2845  2.9006 -0.0811
 2681TIP3    H229459   3.340   4.190  11.229  1.4865 -1.0735  0.6986
 2682TIP3   OH229460   1.905   4.595  12.956  0.5324 -0.2948 -0.1691
 2682TIP3    H129461   1.909   4.657  13.029  1.4085 -0.0416 -0.4207
 2682TIP3    H229462   1.820   4.611  12.915  0.5387  0.3791  0.0819
 2683TIP3   OH229463   4.410   2.206  11.946 -0.4532 -0.1481  0.5795
 2683TIP3    H129464   4.458   2.205  12.029 -1.5185  1.0608  1.2240
 2683TIP3    H229465   4.364   2.122  11.944  1.9218 -1.4672 -0.1985
 2684TIP3   OH229466   5.144   4.626  10.293  1.1662  1.0532  0.4304
 2684TIP3    H129467   5.132   4.690  10.362  0.2519  1.8211 -0.4306
 2684TIP3    H229468   5.156   4.677  10.213  2.4067  0.1831  0.0258
 2685TIP3   OH229469   0.387   4.792   1.394  0.2341 -0.0923  0.6740
 2685TIP3    H129470   0.446   4.844   1.339  1.4502 -0.0198  2.0251
 2685TIP3    H229471   0.315   4.852   1.414 -0.4408 -0.2468 -1.1532
 2686TIP3   OH229472   6.256   7.128  11.114 -0.5927 -0.0982 -0.0159
 2686TIP3    H129473   6.348   7.128  11.087 -0.1892  2.0828  1.2186
 2686TIP3    H229474   6.211   7.181  11.048 -0.6924  0.0565  0.1749
 2687TIP3   OH229475   2.096   0.102  11.678  0.5614 -0.8665  0.2385
 2687TIP3    H129476   2.145   0.182  11.659 -0.2481 -0.1433  1.1308
 2687TIP3    H229477   2.084   0.102  11.773 -0.1787 -1.6077  0.1564
 2688TIP3   OH229478   4.541   5.707  14.404  0.4061 -0.4059  0.1993
 2688TIP3    H129479   4.530   5.632  14.345 -1.3853 -1.0070  1.2681
 2688TIP3    H229480   4.608   5.761  14.361 -0.4967 -1.0627 -2.1368
 2689TIP3   OH229481   1.379   0.611  13.031  0.0764 -0.3411 -0.1730
 2689TIP3    H129482   1.370   0.538  12.970 -0.8433  1.4924 -2.3085
 2689TIP3    H229483   1.464   0.597  13.074  1.6189 -0.7127 -3.2254
 2690TIP3   OH229484   6.342   6.988  10.358  0.4402 -0.1910  0.2516
 2690TIP3    H129485   6.257   6.953  10.384  0.0751 -0.2458 -0.9680
 2690TIP3    H229486   6.389   6.913  10.321 -0.2507  0.5142 -2.1351
 2691TIP3   OH229487   7.145   5.598  10.389  0.2280 -0.4344  0.1831
 2691TIP3    H129488   7.056   5.624  10.364  0.1896  1.1872  1.8562
 2691TIP3    H229489   7.149   5.615  10.483  2.2761 -0.5866  0.1437
 2692TIP3   OH229490   1.710   6.893  11.775 -0.2588 -0.0504  0.6234
 2692TIP3    H129491   1.761   6.970  11.800  0.6264 -0.3120 -0.3706
 2692TIP3    H229492   1.713   6.892  11.679  0.1909 -1.6371  0.6472
 2693TIP3   OH229493   0.007   5.508  10.707  0.2108 -0.3687  0.1321
 2693TIP3    H129494   0.099   5.535  10.702 -0.3974  1.3159 -2.8294
 2693TIP3    H229495  -0.016   5.521  10.799  2.5724  0.4582  0.6393
 2694TIP3   OH229496   3.862   5.253  12.508  0.3152  0.3280  0.1417
 2694TIP3    H129497   3.821   5.267  12.423  0.9955  1.4135 -0.0151
 2694TIP3    H229498   3.953   5.280  12.497  0.9859 -1.6416  0.6141
 2695TIP3   OH229499   3.313   6.134  11.764  0.3911  0.1243  0.1599
 2695TIP3    H129500   3.290   6.042  11.780 -2.2780  0.3325 -2.0435
 2695TIP3    H229501   3.237   6.183  11.794  0.5435  1.3737 -1.4423
 2696TIP3   OH229502   4.418   7.011  10.475 -0.4341  0.5222 -0.3505
 2696TIP3    H129503   4.510   6.986  10.483 -0.5372 -0.3155 -1.6555
 2696TIP3    H229504   4.370   6.940  10.518 -0.4136  1.6974  1.6680
 2697TIP3   OH229505   2.035   7.150  11.356  0.2188  0.0543 -0.2140
 2697TIP3    H129506   1.966   7.173  11.419  0.4523 -0.3623  0.1963
 2697TIP3    H229507   1.998   7.172  11.270  0.1743  1.3156  0.1200
 2698TIP3   OH229508   2.774   3.510  10.556 -0.1340  0.0410  0.1626
 2698TIP3    H129509   2.738   3.598  10.566  0.0484  0.2863 -1.1580
 2698TIP3    H229510   2.835   3.500  10.629  1.0685  1.6614 -0.5732
 2699TIP3   OH229511   5.969   4.265  11.224  0.1003 -0.3566 -0.0012
 2699TIP3    H129512   6.057   4.289  11.250 -0.0262 -0.5252  0.5865
 2699TIP3    H229513   5.923   4.349  11.213  0.3154 -0.2715 -0.2545
 2700TIP3   OH229514   6.465   2.567  10.955  0.8455  0.3349  0.2974
 2700TIP3    H129515   6.438   2.623  11.028  1.0140 -0.4570  0.9823
 2700TIP3    H229516   6.458   2.622  10.877  1.3715  1.4143  1.0066
 2701TIP3   OH229517   5.289   0.657   9.683  0.1956 -0.0403 -0.4234
 2701TIP3    H129518   5.251   0.615   9.605 -0.0563  1.3703 -1.0753
 2701TIP3    H229519   5.215   0.669   9.742 -0.0046  0.8439 -0.8524
 2702TIP3   OH229520   5.914   0.066  10.207 -0.1692  0.1815  0.7469
 2702TIP3    H129521   5.893   0.112  10.126 -2.2672 -0.2250  1.0342
 2702TIP3    H229522   5.984   0.118  10.247 -0.9026  1.8218 -0.0667
 2703TIP3   OH229523   5.211   5.963  11.368 -0.6319 -0.3946  0.3864
 2703TIP3    H129524   5.216   6.019  11.291  1.6636 -0.3166  0.5734
 2703TIP3    H229525   5.161   5.887  11.338 -0.5324  0.0459 -0.9261
 2704TIP3   OH229526   5.174   6.125  10.460  0.0046 -0.5892  0.5475
 2704TIP3    H129527   5.236   6.052  10.462 -0.4849 -1.0231 -0.2440
 2704TIP3    H229528   5.178   6.158  10.370 -0.8201 -0.5358  0.5256
 2705TIP3   OH229529   3.986   1.177  13.020 -0.6807  0.7116 -0.1069
 2705TIP3    H129530   3.988   1.093  13.066  2.0387  0.3703 -0.7494
 2705TIP3    H229531   4.030   1.238  13.079  0.4462  0.8683 -1.0852
 2706TIP3   OH229532   4.802   4.221  11.189 -0.7195  0.3037 -0.2494
 2706TIP3    H129533   4.887   4.259  11.213 -0.8982  0.9603 -0.6493
 2706TIP3    H229534   4.765   4.192  11.272  0.8175 -1.9198 -0.2920
 2707TIP3   OH229535   2.398   2.007  14.710  0.4054 -0.3927  0.4319
 2707TIP3    H129536   2.456   2.069  14.754  0.1638 -0.0123  0.2176
 2707TIP3    H229537   2.444   1.986  14.629 -1.2817  2.5352 -1.3808
 2708TIP3   OH229538   2.050   5.035  10.825 -0.5515 -0.0315  0.1301
 2708TIP3    H129539   2.099   4.961  10.789  0.4916  0.6602  0.1164
 2708TIP3    H229540   2.111   5.109  10.819 -2.1213  1.1850 -1.3577
 2709TIP3   OH229541   0.777   6.754  14.006  0.0051 -0.4201 -0.0155
 2709TIP3    H129542   0.844   6.716  14.063 -0.6231  0.9543  1.6940
 2709TIP3    H229543   0.764   6.843  14.039  1.6672  1.4659 -4.1384
 2710TIP3   OH229544   2.458   5.380  13.917 -0.0966 -0.2230  0.1712
 2710TIP3    H129545   2.468   5.461  13.965  2.1658 -0.5515  0.2835
 2710TIP3    H229546   2.454   5.406  13.825  0.7025  0.0065  0.2035
 2711TIP3   OH229547   7.076   5.611  13.475  0.0119  0.5610 -0.0528
 2711TIP3    H129548   7.083   5.679  13.409 -1.2873  0.1409 -0.6423
 2711TIP3    H229549   7.163   5.572  13.480  1.3449  3.6140  1.7763
 2712TIP3   OH229550   5.361   6.650  13.753 -0.3909 -0.2103  0.1802
 2712TIP3    H129551   5.284   6.692  13.791  0.3499  0.1868  1.2618
 2712TIP3    H229552   5.424   6.721  13.743  0.5338 -0.8750  1.1579
 2713TIP3   OH229553   1.775   7.099  13.698  0.2525  0.1478  0.2913
 2713TIP3    H129554   1.696   7.057  13.662  0.6090 -1.8561  1.7895
 2713TIP3    H229555   1.825   7.126  13.621 -1.2193  0.1629 -0.6770
 2714TIP3   OH229556   3.570   5.861  10.751 -0.1364  0.5528 -0.4058
 2714TIP3    H129557   3.499   5.816  10.704  0.8673 -0.0881 -1.3557
 2714TIP3    H229558   3.529   5.940  10.786 -1.0126  0.8739 -2.0807
 2715TIP3   OH229559   0.636   5.891  10.357  0.2531 -0.0458  0.4563
 2715TIP3    H129560   0.716   5.839  10.355 -1.1528 -2.3027 -3.6278
 2715TIP3    H229561   0.566   5.825  10.361 -1.4970  1.6942 -0.7342
 2716TIP3   OH229562   6.921   6.567  10.667 -0.2118  0.7327  0.3140
 2716TIP3    H129563   6.885   6.615  10.593 -0.5791  0.1765  0.1301
 2716TIP3    H229564   6.969   6.633  10.717  0.7040  0.9394 -0.8374
 2717TIP3   OH229565   1.549   7.130  12.632  0.0486 -0.0145 -0.6923
 2717TIP3    H129566   1.479   7.065  12.644 -0.9868  0.8499 -1.8866
 2717TIP3    H229567   1.563   7.132  12.537  0.5249  1.0395 -0.5997
 2718TIP3   OH229568   0.350   0.065  11.082 -0.0535  0.4221  0.1796
 2718TIP3    H129569   0.285   0.003  11.116  0.8873 -0.2414  0.7786
 2718TIP3    H229570   0.423   0.010  11.053  0.1970  1.1547 -0.6001
 2719TIP3   OH229571   1.401   5.476  11.390  0.1900  0.6203 -0.2970
 2719TIP3    H129572   1.423   5.383  11.394  2.4405  1.1636  0.3326
 2719TIP3    H229573   1.400   5.504  11.482  1.6041  1.6865 -0.6001
 2720TIP3   OH229574   5.198   3.955  10.683  0.0551 -0.1881  0.2564
 2720TIP3    H129575   5.289   3.941  10.655  0.4242 -2.0081  2.2072
 2720TIP3    H229576   5.196   4.046  10.713  1.0952  0.0200 -0.2784
 2721TIP3   OH229577   2.915   5.295  12.613  0.1236  0.4787 -0.7100
 2721TIP3    H129578   2.939   5.355  12.683 -0.1212  0.9506 -1.0289
 2721TIP3    H229579   2.891   5.352  12.540 -1.5583  0.0102 -0.5359
 2722TIP3   OH229580   2.664   6.693  11.911 -0.0075 -0.4860 -1.0526
 2722TIP3    H129581   2.707   6.657  11.989  1.2829  0.2794 -1.3946
 2722TIP3    H229582   2.576   6.717  11.940  1.1805  1.8548  0.7293
 2723TIP3   OH229583   3.089   6.645  13.477 -0.0586 -0.0092 -0.2083
 2723TIP3    H129584   3.105   6.729  13.520  0.4970 -0.7834  1.1218
 2723TIP3    H229585   3.171   6.597  13.487 -0.6244 -1.0071 -0.2714
 2724TIP3   OH229586   6.631   5.888  12.285  0.4088 -0.0225 -0.3081
 2724TIP3    H129587   6.613   5.833  12.209  0.0216  1.1075 -1.0436
 2724TIP3    H229588   6.548   5.931  12.305  0.8213  0.6685 -0.0447
 2725TIP3   OH229589   3.046   1.750  12.876 -0.5939 -0.3207  0.2264
 2725TIP3    H129590   2.978   1.799  12.831 -0.3432  0.3811  0.5964
 2725TIP3    H229591   3.012   1.737  12.965 -0.4047 -0.2871  0.3045
 2726TIP3   OH229592   2.677   0.945  12.583 -0.1624  0.3524  0.0821
 2726TIP3    H129593   2.646   0.914  12.498  0.0922 -0.1106  0.1512
 2726TIP3    H229594   2.676   1.040  12.576  0.8666  0.3190 -0.8163
 2727TIP3   OH229595   1.857   0.607  10.049 -0.2604  0.3793 -0.8379
 2727TIP3    H129596   1.877   0.673   9.982 -0.2942  0.4912 -0.7383
 2727TIP3    H229597   1.868   0.523  10.004  1.8047  0.3990 -0.4104
 2728TIP3   OH229598   2.484   1.149  12.157  0.3179 -0.6379  0.0087
 2728TIP3    H129599   2.568   1.113  12.129  1.8750  3.3876 -0.9204
 2728TIP3    H229600   2.422   1.078  12.145  3.3869 -3.3796 -0.3557
 2729TIP3   OH229601   5.765   3.841  10.826  0.1638 -0.1226  0.4152
 2729TIP3    H129602   5.780   3.855  10.920 -0.0058  1.0035  0.2759
 2729TIP3    H229603   5.733   3.751  10.821  0.9898 -0.4827  1.3495
 2730TIP3   OH229604   1.796   4.116  10.629 -0.5811 -0.3405 -0.3997
 2730TIP3    H129605   1.732   4.149  10.565 -1.8365  0.9032  1.4674
 2730TIP3    H229606   1.877   4.163  10.607 -0.3074 -1.7833 -2.6487
 2731TIP3   OH229607   0.659   3.329  10.745  0.1159 -0.3530 -0.7397
 2731TIP3    H129608   0.718   3.279  10.802  0.3211 -0.5917 -1.1579
 2731TIP3    H229609   0.672   3.291  10.658  0.7240  0.8222 -1.1772
 2732TIP3   OH229610   1.764   3.830  10.122  0.3240 -0.6431  0.3590
 2732TIP3    H129611   1.798   3.803  10.037 -0.8092 -0.3380 -0.2128
 2732TIP3    H229612   1.784   3.923  10.127 -0.3526 -0.4688  0.0324
 2733TIP3   OH229613   5.295   1.789  12.360  0.1265  0.3356  0.4055
 2733TIP3    H129614   5.241   1.713  12.337  1.1166 -0.6336  1.2807
 2733TIP3    H229615   5.236   1.864  12.347 -0.7578 -0.5419 -0.7636
 2734TIP3   OH229616   2.640   4.393  11.084  0.2604  0.0031 -0.8105
 2734TIP3    H129617   2.564   4.450  11.068  0.7812  1.0331  0.3413
 2734TIP3    H229618   2.669   4.416  11.172  2.6538  0.4682 -1.6917
 2735TIP3   OH229619   2.052   4.681   9.330 -0.1249 -0.0396  0.4151
 2735TIP3    H129620   1.972   4.675   9.382  0.1999  0.0095  0.9311
 2735TIP3    H229621   2.076   4.774   9.334  0.3452 -0.1717  0.8701
 2736TIP3   OH229622   3.073   1.290  13.154 -0.6611 -0.0535  0.0104
 2736TIP3    H129623   3.068   1.319  13.244 -2.1368 -0.7260  0.1616
 2736TIP3    H229624   3.041   1.199  13.156 -3.4172  0.8142 -1.5804
 2737TIP3   OH229625   0.479   1.553  10.583 -0.3052  0.7928 -0.1139
 2737TIP3    H129626   0.404   1.568  10.641  0.6012  0.4239  1.1825
 2737TIP3    H229627   0.544   1.509  10.639 -0.0748 -1.1691 -1.8754
 2738TIP3   OH229628   6.620   4.006  11.538 -0.4503  0.0269  0.0786
 2738TIP3    H129629   6.709   4.020  11.570 -0.9954  2.1360  0.7890
 2738TIP3    H229630   6.572   3.971  11.613 -1.4325  3.8292  1.3608
 2739TIP3   OH229631   4.401   3.881   9.928  0.0563 -0.2999  0.1565
 2739TIP3    H129632   4.367   3.829  10.000  1.2258  0.3208  1.1714
 2739TIP3    H229633   4.495   3.869   9.932  0.4623  2.6898  1.0696
 2740TIP3   OH229634   0.680   5.249  10.636  0.3973 -0.3565  0.0392
 2740TIP3    H129635   0.741   5.191  10.592  1.5942 -0.2798  1.5572
 2740TIP3    H229636   0.730   5.286  10.709 -2.3474 -2.8580  3.3741
 2741TIP3   OH229637   2.450   2.230  11.715 -0.5420 -0.0559 -0.5974
 2741TIP3    H129638   2.369   2.189  11.683  0.2628 -1.3923 -0.9500
 2741TIP3    H229639   2.456   2.202  11.806 -0.4173 -0.0697 -0.6085
 2742TIP3   OH229640   1.349   5.781  10.120  0.2229 -0.1374 -0.7077
 2742TIP3    H129641   1.334   5.688  10.140  0.5349  0.1402  0.8412
 2742TIP3    H229642   1.350   5.784  10.024 -1.7878 -1.4129 -0.8051
 2743TIP3   OH229643   3.955   6.323  10.053  0.1944 -0.4294  0.0163
 2743TIP3    H129644   3.995   6.249  10.008  0.4863  0.0917 -0.5976
 2743TIP3    H229645   4.023   6.356  10.111 -0.2741 -1.2806  1.0843
 2744TIP3   OH229646   2.854   5.854  13.207  0.0335  0.1396 -0.2525
 2744TIP3    H129647   2.759   5.855  13.193 -0.0066  1.1137  0.0864
 2744TIP3    H229648   2.868   5.911  13.282  0.8009 -0.7793  0.3110
 2745TIP3   OH229649   2.817   6.802  10.641 -0.4262  0.1535  0.2944
 2745TIP3    H129650   2.894   6.859  10.649 -0.7430  0.5706  0.4046
 2745TIP3    H229651   2.745   6.863  10.625 -0.6206 -0.2843 -0.5234
 2746TIP3   OH229652   2.914   6.031  15.525 -0.0078  0.0768  0.7640
 2746TIP3    H129653   2.888   6.104  15.469 -0.4368 -1.0369 -0.5149
 2746TIP3    H229654   2.837   5.974  15.528  1.0503 -1.4568 -0.1336
 2747TIP3   OH229655   5.180   6.872  10.296 -0.5319  0.9489 -0.6344
 2747TIP3    H129656   5.267   6.906  10.274 -0.4845  1.4680  0.3079
 2747TIP3    H229657   5.184   6.780  10.272  0.9570  0.4940  1.1990
 2748TIP3   OH229658   1.984   4.979  10.530 -0.0731  0.1588  0.3792
 2748TIP3    H129659   2.028   5.064  10.534 -3.2296  2.1670 -3.5369
 2748TIP3    H229660   2.019   4.938  10.451 -0.9355 -0.7325  0.4540
 2749TIP3   OH229661   4.950   0.387  10.271  1.3537  0.0475 -0.2542
 2749TIP3    H129662   5.015   0.410  10.206  1.4948 -0.1761 -0.1933
 2749TIP3    H229663   4.984   0.307  10.311 -1.0806 -2.5923 -3.2285
 2750TIP3   OH229664   5.504   1.662  11.229 -0.2400 -0.2011  0.4554
 2750TIP3    H129665   5.457   1.599  11.174 -1.2593 -0.6511  1.8094
 2750TIP3    H229666   5.436   1.718  11.264  0.3579 -0.1535  1.5513
 2751TIP3   OH229667   0.543   7.104  12.308 -0.5090 -0.6536  0.1870
 2751TIP3    H129668   0.578   7.181  12.263 -2.3593 -0.1702 -0.4853
 2751TIP3    H229669   0.615   7.073  12.363  2.2073 -1.9530 -3.9197
 2752TIP3   OH229670   2.524   0.109  10.631  0.8342 -0.2553 -0.0118
 2752TIP3    H129671   2.485   0.193  10.655  2.5135  0.6511 -0.3666
 2752TIP3    H229672   2.466   0.043  10.669  0.0369  1.0736  1.1075
 2753TIP3   OH229673   1.909   6.346  12.313 -0.0331 -0.3393  0.0119
 2753TIP3    H129674   1.925   6.440  12.314 -0.4766 -0.2725  0.4502
 2753TIP3    H229675   1.834   6.335  12.255 -0.2727 -0.3849  0.3353
 2754TIP3   OH229676   1.397   4.089  10.629  0.4274 -0.3424  0.4165
 2754TIP3    H129677   1.408   4.171  10.582  2.0716  0.2340  1.7628
 2754TIP3    H229678   1.455   4.097  10.706 -1.9603 -1.3653  2.3937
 2755TIP3   OH229679   5.807   5.624   9.885  0.7855  0.4573 -0.1793
 2755TIP3    H129680   5.829   5.649   9.795 -2.7892 -1.1368 -1.5749
 2755TIP3    H229681   5.758   5.698   9.919  1.5095  0.7550  0.2271
 2756TIP3   OH229682   3.211   3.910  10.605  0.0801  0.2104 -0.0325
 2756TIP3    H129683   3.205   3.889  10.512  1.6259 -0.5419  0.0365
 2756TIP3    H229684   3.120   3.909  10.635 -0.3858 -0.0345 -1.4183
 2757TIP3   OH229685   1.977   6.601  10.119  0.7433  0.1681  0.4353
 2757TIP3    H129686   1.965   6.592  10.024 -0.2529 -0.9150  0.6615
 2757TIP3    H229687   1.907   6.660  10.147  1.1793  0.6762  0.4775
 2758TIP3   OH229688   0.745   3.889  12.788  0.9170 -0.5817  0.2478
 2758TIP3    H129689   0.801   3.949  12.837  0.6567 -0.7812  0.7864
 2758TIP3    H229690   0.741   3.810  12.842  0.2140 -0.6162  0.1473
 2759TIP3   OH229691   2.080   6.448  11.818  0.0874  0.0289 -0.5700
 2759TIP3    H129692   2.082   6.536  11.782  1.0193  1.2284  2.2172
 2759TIP3    H229693   2.139   6.452  11.894 -0.3482 -2.8115 -0.0096
 2760TIP3   OH229694   3.632   1.717  10.122 -0.1175 -0.1874 -0.5584
 2760TIP3    H129695   3.565   1.783  10.140  0.3826 -0.4480  2.7234
 2760TIP3    H229696   3.715   1.765  10.127  0.1597 -0.7287  0.1478
 2761TIP3   OH229697   2.583   0.466  10.666  0.4182 -0.3770 -0.5259
 2761TIP3    H129698   2.510   0.410  10.694  0.9324 -0.3725  0.8844
 2761TIP3    H229699   2.627   0.490  10.748 -0.1122  2.5231 -1.0206
 2762TIP3   OH229700   1.254   2.440  11.367 -0.4649  0.7993 -0.4657
 2762TIP3    H129701   1.211   2.415  11.449 -0.7099  3.9221  0.4268
 2762TIP3    H229702   1.296   2.524  11.387 -0.7294  1.7337 -3.6374
 2763TIP3   OH229703   5.249   6.434  10.482 -0.5756  0.1468  0.5107
 2763TIP3    H129704   5.201   6.372  10.536 -0.7526  0.2361  0.4567
 2763TIP3    H229705   5.328   6.387  10.455 -0.7982 -0.1150  0.3171
 2764TIP3   OH229706   0.189   0.382  10.494  0.8578  0.5766  0.0647
 2764TIP3    H129707   0.131   0.401  10.568 -0.7119 -2.4146 -0.2963
 2764TIP3    H229708   0.261   0.331  10.532 -0.9308 -2.6422 -0.6470
 2765TIP3   OH229709   1.674   1.287  11.132  0.1774 -0.0763 -0.1870
 2765TIP3    H129710   1.601   1.232  11.159  0.0765 -0.7615 -1.7535
 2765TIP3    H229711   1.727   1.230  11.076  1.3701  0.7075  0.1260
 2766TIP3   OH229712   3.485   5.131  11.564  0.0283  0.4039 -0.1348
 2766TIP3    H129713   3.481   5.207  11.623 -0.2677 -0.0182  0.3863
 2766TIP3    H229714   3.577   5.108  11.561  0.0744  0.5674 -0.0201
 2767TIP3   OH229715   1.754   6.107  12.800 -0.0581  0.6532 -0.0955
 2767TIP3    H129716   1.758   6.187  12.852  1.9962  1.1207 -0.9294
 2767TIP3    H229717   1.772   6.135  12.710  2.3512 -0.9459 -0.1487
 2768TIP3   OH229718   3.285   2.957  12.269 -0.2874 -0.8291 -0.0407
 2768TIP3    H129719   3.361   2.983  12.216  0.7444 -0.0796  1.7814
 2768TIP3    H229720   3.320   2.946  12.357 -2.3163 -0.3771  0.8449
 2769TIP3   OH229721   1.887   0.192  13.989  0.3372  0.5498  0.0880
 2769TIP3    H129722   1.908   0.210  13.898  0.4766  0.5448  0.1186
 2769TIP3    H229723   1.800   0.229  14.002 -0.1684 -0.4820 -0.3504
 2770TIP3   OH229724   1.134   6.260  10.484  0.5385 -0.0644 -0.3434
 2770TIP3    H129725   1.120   6.239  10.576 -1.1977 -0.0732 -0.5871
 2770TIP3    H229726   1.050   6.242  10.442  0.9555  1.0630 -1.7186
 2771TIP3   OH229727   3.119   6.749  10.409  0.2239 -0.1978  0.5954
 2771TIP3    H129728   3.037   6.707  10.385  1.1921 -0.8072 -1.7414
 2771TIP3    H229729   3.151   6.697  10.483 -0.7948 -0.8078  0.6247
 2772TIP3   OH229730   5.119   4.793  14.004  0.4614  0.2360 -0.4029
 2772TIP3    H129731   5.132   4.879  14.044  1.0008  0.3651 -0.8467
 2772TIP3    H229732   5.195   4.742  14.034 -1.3666 -1.0378  2.3436
 2773TIP3   OH229733   2.783   2.829  13.003 -0.3566  0.0428 -0.3750
 2773TIP3    H129734   2.701   2.878  13.000  0.0987  0.9481  1.4344
 2773TIP3    H229735   2.799   2.814  13.096  0.1371 -2.5204 -0.8331
 2774TIP3   OH229736   2.741   2.044  14.995  0.0583  0.0682 -0.1085
 2774TIP3    H129737   2.819   2.013  14.949 -0.0024 -1.3943  0.7312
 2774TIP3    H229738   2.775   2.091  15.071  0.1441  1.3628 -0.9450
 2775TIP3   OH229739   3.937   3.144  12.421 -0.0204  0.1073 -0.2365
 2775TIP3    H129740   3.844   3.140  12.399 -0.2001  0.1526  0.4929
 2775TIP3    H229741   3.939   3.181  12.509  0.6713 -0.2406 -0.1003
 2776TIP3   OH229742   2.748   3.770  12.500  0.3555  0.1553  0.3965
 2776TIP3    H129743   2.843   3.769  12.483  0.3861  1.3617  0.3855
 2776TIP3    H229744   2.709   3.789  12.415  0.2232  1.5008  0.7418
 2777TIP3   OH229745   4.139   3.956  11.793 -0.3532 -0.2206  0.0928
 2777TIP3    H129746   4.066   3.949  11.855  0.0740 -1.6564  0.4518
 2777TIP3    H229747   4.199   3.886  11.818 -0.0997 -0.7381 -1.8387
 2778TIP3   OH229748   6.072   5.797   9.883 -0.2211  0.4088  0.4090
 2778TIP3    H129749   6.060   5.721   9.940  0.4854 -0.0201 -0.0147
 2778TIP3    H229750   5.993   5.798   9.829 -1.0459  1.0070  1.5974
 2779TIP3   OH229751   5.044   5.518  13.981  0.0628 -0.2155  0.6246
 2779TIP3    H129752   5.040   5.440  14.036 -0.8994  0.6913  1.8920
 2779TIP3    H229753   4.976   5.504  13.915 -1.8596  0.6404  2.3744
 2780TIP3   OH229754   2.180   4.098  10.457  0.2275  0.1254  0.5303
 2780TIP3    H129755   2.112   4.042  10.419  0.2154  0.3177  0.2626
 2780TIP3    H229756   2.240   4.038  10.500 -0.1364 -0.0416  0.8015
 2781TIP3   OH229757   5.876   4.256  11.985  0.2016  0.5574  0.4483
 2781TIP3    H129758   5.851   4.207  12.063  0.7412  0.8705  0.8184
 2781TIP3    H229759   5.827   4.214  11.914  0.1833 -0.1187  0.8563
 2782TIP3   OH229760   2.323   4.481  13.817  0.0752  0.3214  0.3401
 2782TIP3    H129761   2.274   4.511  13.740  0.7105  2.1839  0.6318
 2782TIP3    H229762   2.257   4.440  13.873 -0.4069 -0.9991 -1.1521
 2783TIP3   OH229763   4.586   7.160  11.159 -0.5815 -0.6559 -0.0159
 2783TIP3    H129764   4.495   7.138  11.141 -0.9498  0.9780 -0.2443
 2783TIP3    H229765   4.618   7.088  11.213 -2.2012 -0.8970  0.6496
 2784TIP3   OH229766   6.656   6.630  14.856  0.1293 -0.0471  0.0590
 2784TIP3    H129767   6.664   6.611  14.763 -0.3635 -0.2218  0.0478
 2784TIP3    H229768   6.616   6.716  14.860  1.1235  0.4169  0.1108
 2785TIP3   OH229769   1.323   3.049  13.748  0.2534 -0.3186  0.0136
 2785TIP3    H129770   1.278   3.039  13.665  3.9203 -2.7889 -1.8224
 2785TIP3    H229771   1.317   2.963  13.790  1.1113  0.0070  0.8447
 2786TIP3   OH229772   3.043   0.776  13.315 -0.0302 -0.9520 -0.1094
 2786TIP3    H129773   3.021   0.809  13.402  0.8664  1.3458 -0.7053
 2786TIP3    H229774   3.138   0.785  13.309 -0.1213 -0.6840 -1.4669
 2787TIP3   OH229775   4.500   7.068  11.514 -0.0092  0.3940  0.1462
 2787TIP3    H129776   4.587   7.030  11.521 -0.9816 -1.4678  2.8365
 2787TIP3    H229777   4.494   7.128  11.588 -1.1661  0.1975  0.2161
 2788TIP3   OH229778   4.075   4.107  12.899  0.4051 -0.8464 -0.0171
 2788TIP3    H129779   4.077   4.203  12.899 -1.4161 -0.7832 -0.0767
 2788TIP3    H229780   4.048   4.084  12.810 -0.1779 -1.3662  0.2890
 2789TIP3   OH229781   1.575   2.407  12.362  0.4005 -0.5500 -0.2123
 2789TIP3    H129782   1.492   2.423  12.406  1.2773  0.9157  0.9724
 2789TIP3    H229783   1.639   2.404  12.432  1.7134  0.9686 -1.2939
 2790TIP3   OH229784   6.835   5.859  10.686  0.4715  0.0529  0.0744
 2790TIP3    H129785   6.823   5.900  10.600  1.5810  0.4873  0.1203
 2790TIP3    H229786   6.929   5.840  10.690  0.3115 -0.5715  0.9245
 2791TIP3   OH229787   3.847   6.081  14.199 -0.0083  0.9293 -0.1729
 2791TIP3    H129788   3.909   6.152  14.216  0.7719 -0.0876  1.2695
 2791TIP3    H229789   3.767   6.126  14.171  0.1881  2.4366  1.6224
 2792TIP3   OH229790   2.343   6.686   0.907  1.1216 -0.1413 -0.1381
 2792TIP3    H129791   2.379   6.772   0.926  0.0575  0.5074 -1.0159
 2792TIP3    H229792   2.397   6.652   0.836 -0.1402  0.9513 -1.6532
 2793TIP3   OH229793   5.778   4.766  13.634 -0.0010 -0.6786  0.6644
 2793TIP3    H129794   5.834   4.743  13.708 -0.9584 -1.2922  1.2008
 2793TIP3    H229795   5.754   4.683  13.594  0.9089 -0.3316 -0.6489
 2794TIP3   OH229796   4.711   5.159  13.207 -0.4706  0.4951 -0.2263
 2794TIP3    H129797   4.661   5.232  13.171 -0.2322 -0.8372 -3.4146
 2794TIP3    H229798   4.736   5.107  13.131  1.5357 -1.5570  1.7460
 2795TIP3   OH229799   0.433   5.437  12.489 -0.9198  0.1376 -0.4660
 2795TIP3    H129800   0.472   5.380  12.423  0.5567  0.6319 -0.0553
 2795TIP3    H229801   0.394   5.509  12.438  0.7838  0.8558 -0.7925
 2796TIP3   OH229802   3.886   4.833  14.807  0.4818  0.0420  0.1243
 2796TIP3    H129803   3.899   4.927  14.790  0.6397  0.2731  1.4588
 2796TIP3    H229804   3.848   4.830  14.895  2.5309 -1.2657  0.9775
 2797TIP3   OH229805   6.183   1.121  12.436 -0.1807 -0.8010 -0.5163
 2797TIP3    H129806   6.233   1.092  12.360  0.0308 -1.1806 -0.2341
 2797TIP3    H229807   6.205   1.058  12.505 -0.7831 -0.7670 -0.2908
 2798TIP3   OH229808   4.437   6.798  11.290 -0.4020  0.7884 -0.5345
 2798TIP3    H129809   4.423   6.891  11.275 -0.3950  0.6405 -1.5571
 2798TIP3    H229810   4.531   6.789  11.304 -0.2967  0.8527 -1.1624
 2799TIP3   OH229811   5.489   3.329  12.643 -0.0527 -0.2123 -0.0305
 2799TIP3    H129812   5.414   3.292  12.596  0.3397 -1.2812  0.1630
 2799TIP3    H229813   5.561   3.269  12.622  0.4654  0.1475  0.7364
 2800TIP3   OH229814   3.247   0.568   9.949  0.0031  0.4251 -0.0283
 2800TIP3    H129815   3.239   0.473   9.949 -0.0744  0.4323  0.4736
 2800TIP3    H229816   3.339   0.585   9.927 -0.4291  0.2747 -2.0824
 2801TIP3   OH229817   4.184   2.128  10.212 -0.5236  0.3261 -0.1908
 2801TIP3    H129818   4.161   2.055  10.269 -0.4886 -0.4567 -1.1854
 2801TIP3    H229819   4.268   2.104  10.173 -0.3874  1.0065 -0.3248
 2802TIP3   OH229820   5.681   7.036  10.715 -0.0942 -0.6103  0.4849
 2802TIP3    H129821   5.695   6.966  10.651  0.5765 -0.4658  0.4734
 2802TIP3    H229822   5.768   7.055  10.749  0.2132  2.4440 -1.8434
 2803TIP3   OH229823   3.324   4.638   9.836  0.8215 -0.4927 -0.1922
 2803TIP3    H129824   3.404   4.669   9.880  1.2911 -0.9371 -0.7272
 2803TIP3    H229825   3.334   4.543   9.832  0.8726 -0.4426 -1.4225
 2804TIP3   OH229826   3.421   4.302  11.955 -0.4476  0.0886 -0.3993
 2804TIP3    H129827   3.353   4.245  11.919  0.0354 -0.3004 -0.7043
 2804TIP3    H229828   3.446   4.260  12.038 -0.1744 -0.0839 -0.5673
 2805TIP3   OH229829   1.903   0.019  11.108 -0.4392  0.3855 -0.2686
 2805TIP3    H129830   1.853   0.006  11.027  2.5075 -1.4906 -1.8458
 2805TIP3    H229831   1.988  -0.022  11.092  0.7387  1.2064  3.2872
 2806TIP3   OH229832   4.152   2.018  10.894 -1.0422  0.0479 -0.2633
 2806TIP3    H129833   4.173   1.969  10.974 -0.5232  0.3848 -0.1961
 2806TIP3    H229834   4.120   1.951  10.833  1.1008 -0.6105 -0.7085
 2807TIP3   OH229835   2.596   5.038  10.843 -0.3949 -0.7818  0.3141
 2807TIP3    H129836   2.574   4.952  10.880 -0.6781 -1.0214 -0.4020
 2807TIP3    H229837   2.520   5.060  10.788 -0.4125  0.0236  0.6648
 2808TIP3   OH229838   5.662   7.002  11.176  0.2227  0.0323  0.3665
 2808TIP3    H129839   5.696   6.934  11.234  0.7561 -0.6173 -0.6945
 2808TIP3    H229840   5.660   7.081  11.230  1.5739 -0.3609  1.0161
 2809TIP3   OH229841   0.231   3.406   9.996  0.6479  0.4257  0.1923
 2809TIP3    H129842   0.185   3.476   9.950  0.1779  0.3979  0.6162
 2809TIP3    H229843   0.278   3.359   9.927 -1.6617 -0.8597 -0.5647
 2810TIP3   OH229844   2.776   1.798  10.265  0.1439 -0.4697  0.0413
 2810TIP3    H129845   2.792   1.852  10.342 -0.6286 -1.2934  0.7955
 2810TIP3    H229846   2.774   1.860  10.192 -1.0168  0.5659  0.9311
 2811TIP3   OH229847   6.281   2.859  11.396  0.2252 -0.3291 -0.3650
 2811TIP3    H129848   6.219   2.899  11.335 -1.1930  0.1701  1.3593
 2811TIP3    H229849   6.360   2.845  11.344 -0.5741  1.1191 -2.0302
 2812TIP3   OH229850   1.668   4.813  10.339 -0.0358  0.2079  0.8148
 2812TIP3    H129851   1.593   4.766  10.301  1.7505 -1.9300 -0.1627
 2812TIP3    H229852   1.700   4.756  10.408  1.6102  0.4074  0.2364
 2813TIP3   OH229853   2.276   0.651  10.503 -0.4609  0.9072 -0.2642
 2813TIP3    H129854   2.335   0.658  10.428 -1.3210 -1.8562 -1.2619
 2813TIP3    H229855   2.209   0.717  10.488  0.7270  2.0441 -0.6407
 2814TIP3   OH229856   6.364   4.700  10.155 -0.4396  0.0508  0.3083
 2814TIP3    H129857   6.412   4.618  10.163 -0.8885 -0.1598  0.8797
 2814TIP3    H229858   6.405   4.759  10.217  0.0925  0.3663 -0.3340
 2815TIP3   OH229859   5.076   0.921  11.512  0.1211 -0.6512  0.2734
 2815TIP3    H129860   5.089   0.863  11.437  0.3973 -0.2895  0.0353
 2815TIP3    H229861   5.105   1.007  11.481 -0.5561 -0.3229  0.5244
 2816TIP3   OH229862   3.113   1.385  10.936  0.3375  0.5136  0.3395
 2816TIP3    H129863   3.191   1.418  10.890 -0.1255  1.1664  0.0076
 2816TIP3    H229864   3.040   1.423  10.888 -0.1708  0.5137  1.1115
 2817TIP3   OH229865   1.599   7.005   9.714 -0.5496  0.4565 -0.8430
 2817TIP3    H129866   1.627   7.097   9.712  0.8829  0.0159 -1.9654
 2817TIP3    H229867   1.630   6.972   9.798 -2.8603  1.5122  0.4842
 2818TIP3   OH229868   3.290   5.667   9.700 -0.1855 -0.1922  0.1414
 2818TIP3    H129869   3.345   5.589   9.687 -0.0805  0.1624 -1.6944
 2818TIP3    H229870   3.201   5.637   9.681  0.0050  0.4113 -1.7517
 2819TIP3   OH229871   7.158   5.060  12.939  0.0283  0.5123  0.1503
 2819TIP3    H129872   7.096   5.131  12.950  0.6066  1.1856 -0.8631
 2819TIP3    H229873   7.143   5.002  13.014 -3.5138 -0.6312 -1.3364
 2820TIP3   OH229874   4.809   6.470  13.416  0.4869  0.1930 -0.0361
 2820TIP3    H129875   4.899   6.473  13.385 -0.1332 -0.0954 -1.9059
 2820TIP3    H229876   4.815   6.492  13.509  2.4022  0.8514 -0.2986
 2821TIP3   OH229877   1.223   5.761  11.828  0.0367 -0.1805  0.2841
 2821TIP3    H129878   1.137   5.733  11.796  0.0071 -0.0171  0.2195
 2821TIP3    H229879   1.209   5.783  11.920  0.7806 -3.6817  1.2944
 2822TIP3   OH229880   2.555   2.934  11.181  0.1984 -0.0307  0.4663
 2822TIP3    H129881   2.509   2.910  11.262  1.5625 -1.3937  0.8422
 2822TIP3    H229882   2.610   3.008  11.206 -1.7129  1.6041  0.0194
 2823TIP3   OH229883   2.750   2.730  10.211 -0.3921 -0.2791 -0.5561
 2823TIP3    H129884   2.830   2.783  10.204 -0.1223 -0.6571 -0.3556
 2823TIP3    H229885   2.691   2.783  10.264 -0.4069  0.1634 -1.0063
 2824TIP3   OH229886   3.220   5.166   9.700 -0.2320  0.0140  0.7650
 2824TIP3    H129887   3.144   5.225   9.691 -1.5349 -1.5568  1.2452
 2824TIP3    H229888   3.181   5.079   9.710  1.6845 -1.2841 -2.3089
 2825TIP3   OH229889   2.389   5.789   9.531 -0.3831  0.2578  0.2751
 2825TIP3    H129890   2.305   5.784   9.576 -0.3384  0.1422  0.3459
 2825TIP3    H229891   2.442   5.849   9.585 -1.2557  2.3478 -1.1095
 2826TIP3   OH229892   2.492   2.653  11.856 -0.3161  0.0531 -0.1592
 2826TIP3    H129893   2.571   2.652  11.909  0.1455 -0.8331 -0.8374
 2826TIP3    H229894   2.455   2.565  11.866 -0.2484 -0.1137 -1.2403
 2827TIP3   OH229895   1.777   5.157  10.697  0.1253  0.2521  0.5497
 2827TIP3    H129896   1.870   5.137  10.690  0.2305  1.0505 -0.5611
 2827TIP3    H229897   1.737   5.114  10.622 -0.7048 -1.6383  2.0277
 2828TIP3   OH229898   4.524   3.122  11.394  0.5174  0.3024 -0.0729
 2828TIP3    H129899   4.544   3.070  11.472  0.8800  0.5644  0.0101
 2828TIP3    H229900   4.563   3.073  11.322 -1.1947 -0.7612 -0.2954
 2829TIP3   OH229901   1.226   1.676  14.410 -0.0310 -0.3585 -0.1700
 2829TIP3    H129902   1.212   1.733  14.333 -1.1859 -0.4149 -0.0018
 2829TIP3    H229903   1.230   1.737  14.484  0.7521 -0.3322 -0.2327
 2830TIP3   OH229904   2.872   0.074  10.230  0.5471 -0.4652 -0.0783
 2830TIP3    H129905   2.914   0.068  10.145  0.6215  1.1460 -0.1777
 2830TIP3    H229906   2.943   0.064  10.293  0.6968 -0.2600 -0.2168
 2831TIP3   OH229907   3.227   0.902  12.758  0.2671  0.2173 -0.2484
 2831TIP3    H129908   3.283   0.971  12.722  1.7393 -1.0341 -0.3707
 2831TIP3    H229909   3.180   0.946  12.830  0.9410  1.4390 -0.5323
 2832TIP3   OH229910   5.181   5.910  13.532  0.2391  1.0359  0.0665
 2832TIP3    H129911   5.225   5.865  13.460 -0.0779 -2.4885  1.9638
 2832TIP3    H229912   5.251   5.939  13.589  0.3598  0.3550  0.2750
 2833TIP3   OH229913   3.911   4.804  10.915 -0.6476  0.6839  0.0099
 2833TIP3    H129914   4.001   4.773  10.908 -0.4473  1.2834 -0.0850
 2833TIP3    H229915   3.868   4.769  10.836 -0.1330  1.6094 -0.6934
 2834TIP3   OH229916   6.644   4.106  12.195  0.7373  0.1733 -0.3789
 2834TIP3    H129917   6.586   4.031  12.210 -1.2958  1.4157 -1.6776
 2834TIP3    H229918   6.622   4.167  12.266  1.3881  0.1108 -0.1257
 2835TIP3   OH229919   2.792   6.367  10.798 -0.6308  0.0110 -0.2269
 2835TIP3    H129920   2.871   6.413  10.824 -0.8832  0.6793 -0.6154
 2835TIP3    H229921   2.795   6.365  10.702 -2.0314  1.7698 -0.3352
 2836TIP3   OH229922   1.680   5.496  10.484  0.4527 -0.3534  0.5207
 2836TIP3    H129923   1.607   5.471  10.542  0.3276  1.5083  1.2328
 2836TIP3    H229924   1.751   5.518  10.544  0.4463  1.2336 -0.0226
 2837TIP3   OH229925   4.778   4.799  10.766  0.6085 -0.3276 -0.8870
 2837TIP3    H129926   4.765   4.889  10.797  2.1156 -0.3516 -0.1317
 2837TIP3    H229927   4.692   4.773  10.733 -0.4399  0.5889  1.0172
 2838TIP3   OH229928   6.622   5.766  10.377 -0.6944 -0.0251  0.3453
 2838TIP3    H129929   6.545   5.783  10.322 -0.5884 -0.3933  0.0810
 2838TIP3    H229930   6.586   5.728  10.457 -0.7719 -0.4750  0.1032
 2839TIP3   OH229931   2.346   0.674  12.555  0.4146  0.3288 -0.6983
 2839TIP3    H129932   2.346   0.769  12.541  0.4713  0.6001  1.0189
 2839TIP3    H229933   2.380   0.638  12.474  0.0954  1.7692 -1.4836
 2840TIP3   OH229934   3.498   0.378   9.927 -0.3074  0.2197  0.3708
 2840TIP3    H129935   3.410   0.346   9.943 -0.1593  0.4580  1.7539
 2840TIP3    H229936   3.553   0.299   9.923 -0.6544  0.0326 -1.1019
 2841TIP3   OH229937   3.844   4.259  10.361  0.2165 -0.0597 -0.3558
 2841TIP3    H129938   3.781   4.259  10.289  0.4122 -1.0829 -0.5377
 2841TIP3    H229939   3.886   4.174  10.355  0.1749 -0.1861  1.0271
 2842TIP3   OH229940   5.407   3.781   9.837 -0.1623 -0.5557  0.8841
 2842TIP3    H129941   5.385   3.862   9.884 -0.4960 -0.7371  1.0456
 2842TIP3    H229942   5.409   3.714   9.905  2.4708 -0.2727  1.1135
 2843TIP3   OH229943   5.822   5.107  12.517 -0.5022 -0.0578  0.4236
 2843TIP3    H129944   5.882   5.170  12.477 -2.3460  2.1154  0.9293
 2843TIP3    H229945   5.736   5.133  12.485 -1.2394 -2.9264 -0.0533
 2844TIP3   OH229946   5.491   6.265  10.417  0.2400 -0.1978  0.0806
 2844TIP3    H129947   5.573   6.314  10.408  0.0899  0.0771  0.1906
 2844TIP3    H229948   5.510   6.179  10.380 -0.2231  0.7261 -2.3782
 2845TIP3   OH229949   1.632   0.061  10.940 -0.1517 -0.0845 -0.6952
 2845TIP3    H129950   1.550   0.013  10.954 -0.7047  1.2365  0.6771
 2845TIP3    H229951   1.628   0.134  11.002  0.9114  1.4539 -2.4202
 2846TIP3   OH229952   4.303   6.093  12.718  0.2301  0.0116 -0.0985
 2846TIP3    H129953   4.288   6.091  12.813 -0.1052  1.0170 -0.1272
 2846TIP3    H229954   4.255   6.017  12.685 -0.1485  0.0015  0.4691
 2847TIP3   OH229955   5.175   0.610  10.536  0.3304  0.0990  0.7361
 2847TIP3    H129956   5.157   0.696  10.574 -0.2592  1.8702 -3.3637
 2847TIP3    H229957   5.257   0.621  10.488 -0.3300 -1.3277 -0.7576
 2848TIP3   OH229958   3.138   1.386  12.881 -0.1142 -0.0478  0.7568
 2848TIP3    H129959   3.211   1.448  12.887 -1.2887  1.3964  0.5303
 2848TIP3    H229960   3.102   1.382  12.969  1.5232 -2.4019  1.3605
 2849TIP3   OH229961   3.149   3.893  10.341 -0.4231  0.0021  0.6231
 2849TIP3    H129962   3.135   3.981  10.307 -0.7386 -0.1776  0.2940
 2849TIP3    H229963   3.235   3.868  10.307 -1.1474 -0.5499 -0.8336
 2850TIP3   OH229964   6.546   0.217  13.603 -0.5442 -0.1960 -0.1614
 2850TIP3    H129965   6.480   0.148  13.595 -1.0586  0.1856  0.5951
 2850TIP3    H229966   6.630   0.173  13.594 -0.7820 -1.3021  2.4962
 2851TIP3   OH229967   2.964   0.239   9.900  0.1778 -0.3099 -0.4626
 2851TIP3    H129968   2.913   0.271   9.826  0.5917  1.1575 -0.1362
 2851TIP3    H229969   2.953   0.144   9.899 -1.4271 -0.1186 -1.2194
 2852TIP3   OH229970   0.777   6.466  11.969  0.6580 -0.2364 -0.0627
 2852TIP3    H129971   0.767   6.376  11.999  1.2318 -0.2426  0.1255
 2852TIP3    H229972   0.739   6.467  11.882 -0.7067 -0.3057  0.5257
 2853TIP3   OH229973   2.778   4.286  14.994 -0.8033  0.1004 -0.7707
 2853TIP3    H129974   2.853   4.345  14.994 -1.2532  0.6710 -1.0830
 2853TIP3    H229975   2.784   4.241  15.079 -1.2994  1.6651  0.1124
 2854TIP3   OH229976   1.759   0.331  10.194 -0.1287  0.0492  0.4891
 2854TIP3    H129977   1.675   0.368  10.164  0.3135  0.2193 -0.5747
 2854TIP3    H229978   1.814   0.408  10.209  0.5641 -0.1257 -1.0373
 2855TIP3   OH229979   4.041   2.280  13.002  0.0754 -0.2040  0.1610
 2855TIP3    H129980   4.128   2.312  12.982 -0.0503  0.1730  0.2067
 2855TIP3    H229981   4.011   2.238  12.921  0.5590 -0.9322  0.3528
 2856TIP3   OH229982   6.335   0.899  11.706 -0.5199 -0.0019  0.5678
 2856TIP3    H129983   6.421   0.912  11.665 -1.3696  0.1467 -1.1948
 2856TIP3    H229984   6.329   0.804  11.719 -1.3429 -0.3818 -2.1799
 2857TIP3   OH229985   4.621   6.985   9.767  0.9193 -0.4531  0.1380
 2857TIP3    H129986   4.567   6.975   9.845  1.5143  1.0230  0.7679
 2857TIP3    H229987   4.655   6.897   9.750  1.3752 -0.6542  1.9726
 2858TIP3   OH229988   6.378   0.446  12.224 -0.0281  0.2252  0.2097
 2858TIP3    H129989   6.337   0.375  12.175  0.0367 -0.6501  1.3748
 2858TIP3    H229990   6.465   0.456  12.184  0.3906 -1.1333  0.7460
 2859TIP3   OH229991   6.810   5.406  11.934  0.4458 -0.1130  0.1316
 2859TIP3    H129992   6.844   5.404  11.845  1.3210  0.6482  0.4407
 2859TIP3    H229993   6.768   5.492  11.942  1.9674  0.5713  1.0248
 2860TIP3   OH229994   0.748   6.609  10.954 -0.2759  0.5738  0.3049
 2860TIP3    H129995   0.814   6.544  10.932 -1.4064 -0.1171 -1.0639
 2860TIP3    H229996   0.712   6.579  11.038 -1.5982 -1.2173 -0.8743
 2861TIP3   OH229997   5.342   3.401  12.002 -0.7086  0.3681  0.4794
 2861TIP3    H129998   5.283   3.347  12.055  0.7665  0.4653  2.2536
 2861TIP3    H229999   5.307   3.490  12.011 -1.8262  0.0573 -0.6344
 2862TIP3   OH230000   2.685   3.058   0.456 -0.6012 -0.7232  0.3658
 2862TIP3    H130001   2.702   3.153   0.450 -0.6716 -0.7597 -0.3941
 2862TIP3    H230002   2.626   3.039   0.383 -0.6931 -1.3337  0.5971
 2863TIP3   OH230003   2.787   2.048   0.690  0.5513 -0.6573  0.1951
 2863TIP3    H130004   2.847   2.111   0.650  0.6354 -0.4477  0.6492
 2863TIP3    H230005   2.815   2.044   0.782 -0.1365 -0.5423  0.4128
 2864TIP3   OH230006   3.928   5.918  10.791  0.1884  0.2143 -0.2400
 2864TIP3    H130007   3.858   5.983  10.802  0.7719  0.6641  0.9405
 2864TIP3    H230008   3.891   5.853  10.732 -0.5608  1.4034 -1.1127
 2865TIP3   OH230009   0.004   4.305  12.155  0.5421 -0.1711 -0.2425
 2865TIP3    H130010   0.090   4.271  12.130  0.2861 -0.7128 -0.3941
 2865TIP3    H230011  -0.056   4.233  12.138  0.4246 -0.7071  2.3651
 2866TIP3   OH230012   6.224   3.657  11.386 -0.0835  0.4804 -0.1309
 2866TIP3    H130013   6.300   3.641  11.330 -0.2756 -0.6197 -0.1017
 2866TIP3    H230014   6.222   3.751  11.399  1.2330  0.5201 -0.1978
 2867TIP3   OH230015   4.666   4.754   9.599  0.5654 -0.1943  0.0005
 2867TIP3    H130016   4.593   4.740   9.659 -0.4993 -0.6359 -1.3561
 2867TIP3    H230017   4.644   4.835   9.553 -1.0244 -2.2924 -3.1087
 2868TIP3   OH230018   1.763   4.668  10.917 -0.5520 -0.6394  0.0490
 2868TIP3    H130019   1.750   4.586  10.870  0.7845 -0.7969 -0.0627
 2868TIP3    H230020   1.734   4.736  10.856 -1.6347 -1.0163  0.1343
 2869TIP3   OH230021   4.363   6.875  11.971 -0.0324 -0.4399  0.2928
 2869TIP3    H130022   4.361   6.823  12.052 -1.0400 -0.6306  0.1523
 2869TIP3    H230023   4.278   6.857  11.930  0.5368 -0.4647 -0.8792
 2870TIP3   OH230024   5.353   2.385  15.506  0.1076  0.1910  0.0837
 2870TIP3    H130025   5.414   2.459  15.505  0.1248  0.1845  0.4997
 2870TIP3    H230026   5.379   2.334  15.583  1.2585 -1.2355 -1.2161
 2871TIP3   OH230027   2.140   5.536  10.544  0.2140 -0.2229  0.3703
 2871TIP3    H130028   2.181   5.620  10.564  0.0866  0.1005 -0.6827
 2871TIP3    H230029   2.146   5.529  10.448  1.2527 -1.9338  0.5413
 2872TIP3   OH230030   4.450   1.403  11.899  0.1162  0.5178 -0.4239
 2872TIP3    H130031   4.383   1.380  11.964  1.0836  0.7376  0.6658
 2872TIP3    H230032   4.533   1.383  11.943  0.7764  0.4347 -1.6918
 2873TIP3   OH230033   4.198   4.094  13.957  0.4276 -0.0998 -0.6241
 2873TIP3    H130034   4.188   4.112  13.864  0.9656 -0.9992 -0.8557
 2873TIP3    H230035   4.280   4.139  13.981 -0.3132  1.1260 -0.3141
 2874TIP3   OH230036   2.980   6.999  10.342 -0.2071  0.2811 -0.6293
 2874TIP3    H130037   2.966   6.987  10.436  0.0993 -2.2212 -0.8805
 2874TIP3    H230038   3.060   6.951  10.323 -0.0351  1.1315 -2.1061
 2875TIP3   OH230039   0.906   3.000  11.480 -0.2422  0.7048  0.8858
 2875TIP3    H130040   0.842   3.007  11.409 -0.8026 -0.2347  1.2893
 2875TIP3    H230041   0.857   2.962  11.553  1.5057 -3.2458  0.1698
 2876TIP3   OH230042   5.807   7.045   9.861 -0.5420 -0.0439  0.6798
 2876TIP3    H130043   5.769   7.133   9.866  0.2430  0.5077 -1.9019
 2876TIP3    H230044   5.873   7.052   9.792  0.5917 -2.3021  1.4862
 2877TIP3   OH230045   1.866   6.312  12.920 -0.6857  0.0611  0.0593
 2877TIP3    H130046   1.858   6.404  12.893  1.3881  0.6364  1.2897
 2877TIP3    H230047   1.836   6.311  13.011  1.5159  0.0126  0.8251
 2878TIP3   OH230048   2.498   2.169  10.760  0.0638  0.0628 -0.7139
 2878TIP3    H130049   2.491   2.168  10.856  0.3869 -2.4426 -0.6834
 2878TIP3    H230050   2.575   2.223  10.742 -0.4920  1.2536  0.3886
 2879TIP3   OH230051   3.396   3.187   9.792  0.5498 -0.0624 -0.2961
 2879TIP3    H130052   3.322   3.248   9.794  0.0326 -0.6936  0.2864
 2879TIP3    H230053   3.391   3.146   9.705  0.1077 -0.2312 -0.1930
 2880TIP3   OH230054   5.296   3.973  11.684 -0.4944 -0.6433  0.2104
 2880TIP3    H130055   5.319   4.012  11.600 -0.1751 -2.0842 -0.3880
 2880TIP3    H230056   5.203   3.990  11.694 -0.0229  1.7309  0.7661
 2881TIP3   OH230057   4.491   1.735  13.585 -0.2623  0.0655 -0.4181
 2881TIP3    H130058   4.470   1.684  13.663 -3.5627 -0.4048 -1.5444
 2881TIP3    H230059   4.587   1.739  13.584 -0.0818 -2.2518  2.1327
 2882TIP3   OH230060   0.424   6.361  12.361 -0.3082 -0.4401  0.2390
 2882TIP3    H130061   0.472   6.306  12.300  0.3823  2.2571 -1.7406
 2882TIP3    H230062   0.334   6.359  12.329 -0.2824 -0.4201  0.1644
 2883TIP3   OH230063   2.443   4.269  10.775 -0.2076  0.1448 -0.5187
 2883TIP3    H130064   2.496   4.302  10.847  1.6802 -2.3081 -0.7235
 2883TIP3    H230065   2.429   4.345  10.719  0.2142  1.5796  1.2698
 2884TIP3   OH230066   7.046   4.393  11.221 -0.1340  0.0151 -0.2599
 2884TIP3    H130067   6.997   4.338  11.283  1.4565  1.5378  2.4526
 2884TIP3    H230068   7.107   4.333  11.179 -2.0325 -1.2641 -1.2466
 2885TIP3   OH230069   5.519   7.012   9.784  0.1491  0.7569  0.1115
 2885TIP3    H130070   5.511   7.106   9.765 -0.4312  0.6111 -0.4017
 2885TIP3    H230071   5.609   6.990   9.760 -0.1504  0.8846 -1.1509
 2886TIP3   OH230072   5.094   0.194  10.410  0.3258  0.7089  0.5142
 2886TIP3    H130073   5.141   0.231  10.335 -0.4671  3.0892  1.1523
 2886TIP3    H230074   5.158   0.136  10.452 -0.0219 -2.7360 -3.4277
 2887TIP3   OH230075   3.575   3.859  13.081 -0.3146 -0.6810 -0.0625
 2887TIP3    H130076   3.566   3.764  13.069 -0.6997 -0.7990  1.1245
 2887TIP3    H230077   3.497   3.884  13.130 -0.6715  0.4051 -1.1572
 2888TIP3   OH230078   6.129   3.498  11.786 -0.8202  0.0294  0.1416
 2888TIP3    H130079   6.048   3.485  11.737 -2.2011 -2.9535  3.0861
 2888TIP3    H230080   6.103   3.546  11.864  0.8059  1.7897 -0.3565
 2889TIP3   OH230081   5.301   5.170  10.316 -0.6547 -0.1871 -0.1857
 2889TIP3    H130082   5.310   5.257  10.355  0.0284 -0.8972  1.2929
 2889TIP3    H230083   5.383   5.157  10.268 -0.7115 -0.0489 -0.3183
 2890TIP3   OH230084   4.995   2.084  10.312  0.4065 -0.9490 -0.7955
 2890TIP3    H130085   4.911   2.057  10.349  0.1463  0.8382 -0.0501
 2890TIP3    H230086   4.998   2.041  10.226 -0.9969 -1.5199 -0.5726
 2891TIP3   OH230087   1.669   0.443  10.935  0.1541 -0.4060  0.5282
 2891TIP3    H130088   1.750   0.396  10.919 -0.0494 -0.8359  0.7501
 2891TIP3    H230089   1.617   0.430  10.856  0.5220  0.3412  0.1562
 2892TIP3   OH230090   2.590   0.078  12.490 -0.2921 -0.0626  0.1344
 2892TIP3    H130091   2.626   0.140  12.427 -1.2141 -0.8307 -1.1581
 2892TIP3    H230092   2.666   0.046  12.539  0.5155 -0.0072 -1.0708
 2893TIP3   OH230093   1.178   6.203  14.342  0.3488  0.4966  0.5556
 2893TIP3    H130094   1.173   6.231  14.251  0.7471  1.0433  0.6994
 2893TIP3    H230095   1.188   6.108  14.337 -0.1082  0.4730  0.0445
 2894TIP3   OH230096   6.706   1.823  10.713  0.2729 -0.0061 -0.6484
 2894TIP3    H130097   6.738   1.881  10.644 -0.9631  0.7480 -0.6093
 2894TIP3    H230098   6.691   1.881  10.788  1.0634 -0.7284  0.0794
 2895TIP3   OH230099   5.790   6.871  11.371  0.7205 -0.0892  0.1328
 2895TIP3    H130100   5.831   6.908  11.449  0.4318 -1.1346  0.7905
 2895TIP3    H230101   5.851   6.804  11.341  0.2925 -0.4728  0.1198
 2896TIP3   OH230102   6.240   4.288  10.218  0.8159 -0.5985 -0.0463
 2896TIP3    H130103   6.332   4.278  10.240 -0.0077 -0.3076  3.9049
 2896TIP3    H230104   6.206   4.198  10.216  0.6794 -0.5858  1.0967
 2897TIP3   OH230105   1.531   5.766  10.826  0.0404  0.1532  0.0792
 2897TIP3    H130106   1.530   5.862  10.820  0.5968  0.2218  0.9005
 2897TIP3    H230107   1.593   5.738  10.758 -0.8893  0.3124 -0.8375
 2898TIP3   OH230108   6.325   2.700  10.682 -0.0888  1.0635 -0.2454
 2898TIP3    H130109   6.382   2.771  10.650  0.6467  0.8881  0.6357
 2898TIP3    H230110   6.350   2.624  10.629  1.5283  0.6305  1.0819
 2899TIP3   OH230111   6.591   6.849  10.663 -0.5216  0.3247  0.0724
 2899TIP3    H130112   6.625   6.796  10.735  0.2350  0.8936  0.1396
 2899TIP3    H230113   6.546   6.922  10.706 -3.0682 -1.1551  0.0042
 2900TIP3   OH230114   6.698   5.109  13.425  0.0856 -0.0978  0.4492
 2900TIP3    H130115   6.676   5.136  13.336 -1.5362  1.5986  1.3250
 2900TIP3    H230116   6.741   5.024  13.415  3.1753  1.6848 -2.2389
 2901TIP3   OH230117   0.490   2.203  11.358  0.5624 -0.6110 -0.2304
 2901TIP3    H130118   0.398   2.216  11.333  0.7625 -0.5899 -0.9559
 2901TIP3    H230119   0.539   2.261  11.300  0.8331  1.7272  2.2003
 2902TIP3   OH230120   4.550   6.940  12.382  0.4367  0.3762 -0.9338
 2902TIP3    H130121   4.537   6.971  12.471 -0.6715 -1.9070 -0.2611
 2902TIP3    H230122   4.561   7.019  12.330 -0.6069  1.7959  0.9653
 2903TIP3   OH230123   2.302   4.484  11.167 -0.4121  0.0165  0.3585
 2903TIP3    H130124   2.325   4.559  11.223 -1.8213  1.0563 -0.4312
 2903TIP3    H230125   2.351   4.411  11.205  0.2966  1.1395  1.6844
 2904TIP3   OH230126   5.667   4.343  10.117 -0.2743  0.0507 -0.4074
 2904TIP3    H130127   5.700   4.302  10.037  0.4087 -1.1918  0.5167
 2904TIP3    H230128   5.572   4.349  10.103 -0.0837  0.4516 -1.5871
 2905TIP3   OH230129   5.198   1.873  10.743 -0.4162 -0.5369 -0.2400
 2905TIP3    H130130   5.109   1.844  10.720 -0.6043 -0.5261  0.4597
 2905TIP3    H230131   5.255   1.824  10.685 -0.7716 -1.8927  0.5371
 2906TIP3   OH230132   6.051   0.417  10.495  0.2951  0.2411  0.2223
 2906TIP3    H130133   5.989   0.464  10.440 -0.0608 -1.4844 -0.8871
 2906TIP3    H230134   6.005   0.404  10.578 -0.2675  0.2613 -0.0867
 2907TIP3   OH230135   2.932   6.459  11.855 -0.0858 -0.2035 -0.1652
 2907TIP3    H130136   2.960   6.500  11.774 -1.1032  3.2497  1.1391
 2907TIP3    H230137   2.841   6.432  11.839  0.3106 -1.2166 -0.7480
 2908TIP3   OH230138   4.000   6.199  11.710  0.0122 -0.2667 -0.0377
 2908TIP3    H130139   4.082   6.172  11.751 -0.7581  0.8337  2.3311
 2908TIP3    H230140   4.025   6.270  11.650  0.8670 -0.3255  0.2413
 2909TIP3   OH230141   5.163   4.458  11.092  0.0303 -0.4890 -0.2168
 2909TIP3    H130142   5.139   4.502  11.173 -1.6131  0.7995 -1.3580
 2909TIP3    H230143   5.209   4.525  11.041  2.2470 -1.6775  0.1823
 2910TIP3   OH230144   2.670   5.924  13.470  0.0086 -0.5632  0.0242
 2910TIP3    H130145   2.726   5.987  13.514  0.3619  0.4284 -1.7982
 2910TIP3    H230146   2.709   5.839  13.491 -0.1242 -0.1759  1.9997
 2911TIP3   OH230147   1.872   3.369  11.521 -0.3152  0.2918  0.0954
 2911TIP3    H130148   1.865   3.433  11.591  2.1120 -0.5696  1.1750
 2911TIP3    H230149   1.957   3.387  11.480 -0.1068 -1.4989 -0.3139
 2912TIP3   OH230150   4.111   5.897   9.653  0.1885 -0.3486  0.2131
 2912TIP3    H130151   4.051   5.913   9.580 -0.4012  0.0823  0.7865
 2912TIP3    H230152   4.141   5.807   9.640 -0.7138 -0.6205  0.0127
 2913TIP3   OH230153   4.081   6.817  11.883 -0.6658 -0.7855 -0.3122
 2913TIP3    H130154   4.058   6.743  11.828 -2.3382 -0.6863  0.2094
 2913TIP3    H230155   4.037   6.892  11.842  1.0276 -0.0724 -0.8504
 2914TIP3   OH230156   2.686   0.910  12.267  0.5805  0.2045  0.5507
 2914TIP3    H130157   2.716   1.000  12.283  0.4771  0.1420  1.1112
 2914TIP3    H230158   2.609   0.920  12.211  2.5257  0.2928 -2.1827
 2915TIP3   OH230159   3.562   6.523   9.632  0.5107  0.1165 -0.2242
 2915TIP3    H130160   3.636   6.557   9.581 -0.0445  1.7526  0.0463
 2915TIP3    H230161   3.565   6.573   9.714 -1.1559  0.4953 -0.3888
 2916TIP3   OH230162   3.457   3.172  14.021  0.6758 -0.2880  0.2218
 2916TIP3    H130163   3.486   3.178  14.112 -0.0569 -3.1999  0.7173
 2916TIP3    H230164   3.363   3.189  14.025  0.7578  0.2197 -0.0762
 2917TIP3   OH230165   3.566   1.960  14.756 -0.4319  0.1999 -0.0162
 2917TIP3    H130166   3.655   1.925  14.763 -0.2243  0.1073 -2.4703
 2917TIP3    H230167   3.523   1.934  14.837  0.4331 -3.6935 -0.7176
 2918TIP3   OH230168   5.067   4.902  12.210  0.3931 -0.3724  0.4132
 2918TIP3    H130169   5.025   4.913  12.125  0.7746 -1.1161  0.1234
 2918TIP3    H230170   4.994   4.890  12.271  0.0809  1.0602  0.3431
 2919TIP3   OH230171   3.228   3.569  10.406  0.0349 -0.7461  0.0018
 2919TIP3    H130172   3.305   3.525  10.441 -1.3835 -2.4142  1.1230
 2919TIP3    H230173   3.214   3.528  10.321  2.0972  1.6584 -1.5640
 2920TIP3   OH230174   4.007   4.627   0.176 -0.2112  0.3431  0.2534
 2920TIP3    H130175   3.957   4.643   0.096  0.3886 -1.2143 -0.4519
 2920TIP3    H230176   4.089   4.674   0.163 -0.8920  1.6992  0.7931
 2921TIP3   OH230177   4.536   5.158  11.330 -0.0775  0.3352  0.4046
 2921TIP3    H130178   4.553   5.251  11.343 -0.9193  0.5809 -0.1977
 2921TIP3    H230179   4.461   5.139  11.386 -0.0872  0.0867  0.3096
 2922TIP3   OH230180   5.060   3.841  14.082 -0.1450 -1.3026 -0.7307
 2922TIP3    H130181   4.969   3.836  14.055 -0.1676 -0.0624 -0.9304
 2922TIP3    H230182   5.059   3.895  14.162  0.1726 -3.0780  0.4939
 2923TIP3   OH230183   4.993   5.154  11.830 -0.2202 -0.0900  0.7410
 2923TIP3    H130184   5.027   5.117  11.912 -2.1793 -1.6273  0.9114
 2923TIP3    H230185   5.026   5.096  11.762 -0.3142 -0.0327  0.6473
 2924TIP3   OH230186   4.148   1.855  14.437 -0.5182 -0.6358  0.5850
 2924TIP3    H130187   4.210   1.927  14.426 -0.6083 -0.6712 -0.1882
 2924TIP3    H230188   4.200   1.785  14.476 -0.5856  0.0637  1.9558
 2925TIP3   OH230189   3.583   0.660  11.227  0.1134  0.0408 -0.6849
 2925TIP3    H130190   3.674   0.688  11.235  0.1775 -0.2528 -0.3707
 2925TIP3    H230191   3.562   0.672  11.135  0.2053  0.9303 -0.5895
 2926TIP3   OH230192   5.634   4.904  12.005 -0.3000 -0.0549  0.2126
 2926TIP3    H130193   5.623   4.809  12.003 -1.3500  0.0366  1.0774
 2926TIP3    H230194   5.546   4.938  12.024 -0.1297  1.1379 -1.0303
 2927TIP3   OH230195   6.488   6.280  11.328 -0.0386  0.3786 -0.0476
 2927TIP3    H130196   6.459   6.249  11.414  1.6818  1.3951  0.9131
 2927TIP3    H230197   6.564   6.226  11.307 -0.6739 -0.1160 -1.1177
 2928TIP3   OH230198   6.286   4.923  10.895 -0.2739  0.2977 -0.2829
 2928TIP3    H130199   6.352   4.983  10.930 -0.4894  0.9560 -0.9764
 2928TIP3    H230200   6.203   4.955  10.933 -0.1385 -0.9161  1.0992
 2929TIP3   OH230201   5.791   5.406  13.783  0.2104  0.1004 -0.9035
 2929TIP3    H130202   5.870   5.456  13.805 -0.3592 -0.2148  2.1935
 2929TIP3    H230203   5.720   5.455  13.825 -0.6907 -1.8238 -0.1145
 2930TIP3   OH230204   1.279   4.295  11.582  0.3553  0.5789  0.1643
 2930TIP3    H130205   1.276   4.309  11.677  1.2999  0.4077  0.2281
 2930TIP3    H230206   1.189   4.278  11.557  0.4791 -2.1531  1.4541
 2931TIP3   OH230207   1.595   2.589  11.046 -0.1581 -0.2553 -0.3644
 2931TIP3    H130208   1.654   2.532  11.095  0.1962  1.3279  1.0990
 2931TIP3    H230209   1.509   2.550  11.057 -0.0087 -0.1873  1.1324
 2932TIP3   OH230210   6.193   6.712  11.545 -0.2337 -0.5441 -0.1977
 2932TIP3    H130211   6.194   6.679  11.634 -0.3479  0.6458  0.2557
 2932TIP3    H230212   6.213   6.636  11.490 -1.8271 -1.6393  0.7185
 2933TIP3   OH230213   4.103   2.527   9.808  0.1123 -0.0139 -0.0775
 2933TIP3    H130214   4.183   2.480   9.782  1.0378  0.9736  0.9508
 2933TIP3    H230215   4.119   2.618   9.782  0.0430  0.5202  1.7099
 2934TIP3   OH230216   5.360   6.668  10.025  0.5350 -0.4373 -0.3628
 2934TIP3    H130217   5.443   6.707  10.052  0.1605  0.5773 -0.6767
 2934TIP3    H230218   5.330   6.621  10.103  1.2271 -0.5130 -0.1383
 2935TIP3   OH230219   2.297   5.224  12.733 -0.0694  0.2287 -0.3505
 2935TIP3    H130220   2.246   5.205  12.655 -0.2202  3.0791 -1.0229
 2935TIP3    H230221   2.249   5.295  12.776  0.8689 -0.2115  1.4806
 2936TIP3   OH230222   5.282   6.398  11.120  0.2283  0.3100  0.1775
 2936TIP3    H130223   5.295   6.406  11.026 -1.5239  0.6091 -0.0545
 2936TIP3    H230224   5.195   6.435  11.136  0.7831  0.9116  2.0087
 2937TIP3   OH230225   2.603   3.934  10.489  0.1758  0.2819  0.8080
 2937TIP3    H130226   2.630   3.916  10.399 -0.2419 -0.0836  0.7568
 2937TIP3    H230227   2.630   3.857  10.539  0.6000  0.5758  1.0372
 2938TIP3   OH230228   5.169   5.983   3.133 -0.3332 -0.6028  0.8599
 2938TIP3    H130229   5.172   6.060   3.190 -0.2505 -0.7267  1.0240
 2938TIP3    H230230   5.108   5.923   3.176 -0.3994 -0.6272  0.7313
 2939TIP3   OH230231   3.214   4.562  10.688 -0.2943  1.0676  0.5106
 2939TIP3    H130232   3.124   4.576  10.658  0.8316  1.0233 -3.1244
 2939TIP3    H230233   3.230   4.469  10.672  0.7549  1.3198  0.1065
 2940TIP3   OH230234   0.429   6.161  11.262 -0.3600 -0.1768  0.1391
 2940TIP3    H130235   0.474   6.076  11.260  0.8011  0.4106  0.6443
 2940TIP3    H230236   0.474   6.210  11.331 -0.9061  0.9120 -0.2703
 2941TIP3   OH230237   3.622   3.262  11.902  0.1125  0.0598 -0.9452
 2941TIP3    H130238   3.614   3.174  11.867 -0.0103 -0.6104  0.7352
 2941TIP3    H230239   3.654   3.314  11.828  3.7629 -2.0948 -0.9967
 2942TIP3   OH230240   3.249   2.366  13.793  0.5211 -0.1714  0.3949
 2942TIP3    H130241   3.238   2.461  13.794  0.2875 -0.1744 -0.9187
 2942TIP3    H230242   3.183   2.334  13.854  2.2928  0.6497  2.8422
 2943TIP3   OH230243   4.021   2.932  11.233 -0.2085  0.2034  0.1861
 2943TIP3    H130244   4.105   2.955  11.194  0.0854  0.3788  0.9126
 2943TIP3    H230245   4.025   2.837  11.245  1.1972  0.5710  3.1719
 2944TIP3   OH230246   5.595   1.375  13.880  0.4985 -0.1801 -0.3635
 2944TIP3    H130247   5.588   1.470  13.879  1.6816 -0.0845  0.0820
 2944TIP3    H230248   5.513   1.345  13.920 -0.0330  0.6322 -0.8438
 2945TIP3   OH230249   4.944   3.071  12.860  0.3019  0.4375 -0.3262
 2945TIP3    H130250   4.959   2.984  12.896  0.1353  0.2872 -0.6142
 2945TIP3    H230251   4.988   3.130  12.921  0.4817  0.1472 -0.1701
 2946TIP3   OH230252   2.980   4.740  12.841 -0.1378  0.3111 -0.4673
 2946TIP3    H130253   3.046   4.684  12.801  0.1917 -0.5336  1.2333
 2946TIP3    H230254   2.901   4.687  12.843 -0.1526  0.3518  0.0148
 2947TIP3   OH230255   6.411   0.430  13.869 -0.2464 -0.0564  0.2099
 2947TIP3    H130256   6.499   0.416  13.833 -0.5920 -0.3637 -0.5402
 2947TIP3    H230257   6.422   0.421  13.963  0.7226  0.9529  0.2133
 2948TIP3   OH230258   6.649   1.681   9.566  0.1900 -0.6006 -0.1721
 2948TIP3    H130259   6.682   1.722   9.646  0.8215  2.7508 -2.0576
 2948TIP3    H230260   6.574   1.735   9.542  0.4788 -1.1017 -2.2435
 2949TIP3   OH230261   2.827   6.363  10.534  0.0610 -0.5785 -0.0920
 2949TIP3    H130262   2.848   6.450  10.501 -0.6001  0.2236  1.5573
 2949TIP3    H230263   2.765   6.327  10.470 -1.4103  1.0540  0.3613
 2950TIP3   OH230264   4.407   5.554  10.089 -0.5556 -0.3691 -0.2773
 2950TIP3    H130265   4.447   5.526  10.006  0.3451  0.4287 -0.1159
 2950TIP3    H230266   4.313   5.557  10.070 -0.3651 -0.3143 -1.2366
 2951TIP3   OH230267   1.822   3.951  11.708  0.2608 -0.4629  0.4449
 2951TIP3    H130268   1.916   3.949  11.692  0.0668 -0.6967 -0.7356
 2951TIP3    H230269   1.802   4.044  11.721  0.6394 -0.4029  0.5991
 2952TIP3   OH230270   4.782   1.139   9.688 -0.1437  0.3105  0.1258
 2952TIP3    H130271   4.858   1.081   9.679  1.6575  2.5613  0.2175
 2952TIP3    H230272   4.751   1.123   9.777  0.7867 -0.0095  0.4064
 2953TIP3   OH230273   5.032   6.321  10.627 -0.2542 -0.3177 -0.4168
 2953TIP3    H130274   5.025   6.266  10.705  1.4798 -0.3564 -0.2698
 2953TIP3    H230275   5.004   6.264  10.555  0.8775 -1.2011 -0.1759
 2954TIP3   OH230276   5.630   4.816  12.524 -0.2531  0.5002 -0.0095
 2954TIP3    H130277   5.699   4.826  12.458 -1.4452  2.1327 -1.0581
 2954TIP3    H230278   5.584   4.737  12.497  0.1379  0.3745 -0.3257
 2955TIP3   OH230279   3.458   4.142  12.180  0.0041 -0.6981  0.4302
 2955TIP3    H130280   3.551   4.120  12.182  0.2430  0.2135 -0.6393
 2955TIP3    H230281   3.435   4.154  12.273  1.2604  0.3703  0.6209
 2956TIP3   OH230282   2.576   0.313  11.040  0.2798 -0.3649 -0.4084
 2956TIP3    H130283   2.617   0.394  11.070 -2.5868  0.7879  0.5551
 2956TIP3    H230284   2.602   0.247  11.104  1.8934 -0.0142 -0.6897
 2957TIP3   OH230285   0.061   2.139  13.758 -0.5498  0.1586 -0.2653
 2957TIP3    H130286   0.010   2.157  13.837 -1.5603  0.6526 -1.0159
 2957TIP3    H230287   0.138   2.092  13.789 -1.7124 -1.0463  0.8244
 2958TIP3   OH230288   4.948   6.033  12.437  0.4006 -0.2113  0.3483
 2958TIP3    H130289   4.908   6.118  12.458  0.1109 -0.5165  1.0190
 2958TIP3    H230290   5.027   6.056  12.389  0.2794  0.4421  0.4503
 2959TIP3   OH230291   4.474   6.247  10.885  0.5059 -0.2510  0.3641
 2959TIP3    H130292   4.462   6.332  10.844 -1.5415 -0.3388  0.7108
 2959TIP3    H230293   4.523   6.196  10.821 -0.8081  0.2842 -1.0881
 2960TIP3   OH230294   4.444   0.161  11.879 -0.2864  0.4492 -0.0919
 2960TIP3    H130295   4.358   0.191  11.905  0.6161  1.8388  1.3502
 2960TIP3    H230296   4.475   0.226  11.816  0.1740  0.5719  0.2574
 2961TIP3   OH230297   5.474   4.982  10.152 -0.2797 -0.0909 -0.3252
 2961TIP3    H130298   5.436   4.969  10.066 -0.9335 -0.5849  0.0302
 2961TIP3    H230299   5.556   4.931  10.150  0.5593  1.2812 -1.2112
 2962TIP3   OH230300   6.117   0.743  10.197 -0.0205 -0.0237  0.1336
 2962TIP3    H130301   6.197   0.718  10.244  0.3278  0.0805 -0.4053
 2962TIP3    H230302   6.054   0.675  10.221 -0.0931  0.4646  1.3957
 2963TIP3   OH230303   6.733   0.014  10.181 -0.0073 -0.1132 -0.1291
 2963TIP3    H130304   6.725   0.055  10.095 -1.2210  0.6366  0.3307
 2963TIP3    H230305   6.810  -0.043  10.173 -0.2701 -0.2727 -1.7929
 2964TIP3   OH230306   2.848   0.808  10.843 -0.2872  0.3304 -0.6295
 2964TIP3    H130307   2.817   0.895  10.868 -1.1191  0.4059 -1.8774
 2964TIP3    H230308   2.933   0.799  10.886 -0.6760  1.3384  0.3584
 2965TIP3   OH230309   5.044   6.505  11.289 -0.2749 -0.0639  0.3229
 2965TIP3    H130310   5.086   6.567  11.347  1.5986 -1.1597  0.1900
 2965TIP3    H230311   5.035   6.425  11.341  0.3192 -0.6771 -0.4936
 2966TIP3   OH230312   2.294   5.290  10.177  0.1218  0.0108 -0.1474
 2966TIP3    H130313   2.355   5.338  10.122 -1.1620  0.2837 -1.3694
 2966TIP3    H230314   2.246   5.233  10.116 -0.2562 -0.8265  0.9024
 2967TIP3   OH230315   5.969   5.385   9.632 -0.0793  1.1311 -0.2425
 2967TIP3    H130316   5.942   5.467   9.590  1.3526  2.0938  0.6565
 2967TIP3    H230317   6.033   5.412   9.698  1.1224 -0.7945 -0.5670
 2968TIP3   OH230318   1.323   6.023  10.619 -0.0223 -0.4631 -0.1238
 2968TIP3    H130319   1.268   5.988  10.550  0.1241 -1.9728  0.5120
 2968TIP3    H230320   1.301   6.117  10.622 -0.5377 -0.5271 -1.7095
 2969TIP3   OH230321   5.500   7.154  10.544  0.1753  0.2159  0.5036
 2969TIP3    H130322   5.568   7.102  10.588 -1.4151 -2.3991  0.0101
 2969TIP3    H230323   5.530   7.161  10.453  1.4920  2.1378  1.0672
 2970TIP3   OH230324   3.626   3.412  10.721 -0.4163 -0.3624 -0.2226
 2970TIP3    H130325   3.676   3.462  10.657 -1.0777 -0.8888 -1.1719
 2970TIP3    H230326   3.657   3.323  10.711  1.2650 -0.0389  1.9694
 2971TIP3   OH230327   1.146   5.069  13.055  0.3755  0.0766 -0.0072
 2971TIP3    H130328   1.082   5.057  12.985  0.1585 -0.2198  0.2429
 2971TIP3    H230329   1.143   4.987  13.104 -1.2418  1.1817  1.8268
 2972TIP3   OH230330   0.576   3.594  11.881 -0.3550  0.5715 -0.1994
 2972TIP3    H130331   0.580   3.646  11.962 -0.9201  0.9760 -0.4215
 2972TIP3    H230332   0.627   3.644  11.818 -0.7978  0.7941 -0.3811
 2973TIP3   OH230333   3.932   4.140  13.272  0.4523  0.3247 -0.4182
 2973TIP3    H130334   3.953   4.049  13.257 -0.6841 -0.3858  1.9831
 2973TIP3    H230335   3.851   4.155  13.221  1.8458  0.6593 -2.6051
 2974TIP3   OH230336   2.048   0.200  13.774 -0.6890 -0.0545  0.1808
 2974TIP3    H130337   1.988   0.194  13.700  0.0496  1.3560 -0.5346
 2974TIP3    H230338   2.102   0.122  13.767 -0.8311 -0.0887 -0.5804
 2975TIP3   OH230339   0.328   4.792  11.852 -0.0939 -0.0941 -0.5019
 2975TIP3    H130340   0.265   4.795  11.924 -0.1597  0.1215 -0.5700
 2975TIP3    H230341   0.280   4.828  11.777 -0.2311 -0.8796 -0.8026
 2976TIP3   OH230342   0.698   1.394  13.047  0.7057  0.1284  0.5627
 2976TIP3    H130343   0.711   1.345  13.128  1.1297  1.8717  1.5739
 2976TIP3    H230344   0.659   1.477  13.075 -1.0526 -0.0477 -1.2233
 2977TIP3   OH230345   4.120   5.838   9.969 -0.0457  0.0934  0.2957
 2977TIP3    H130346   4.156   5.835   9.880 -0.4565  0.9589  0.0920
 2977TIP3    H230347   4.041   5.783   9.964 -0.2659  0.4327  0.0349
 2978TIP3   OH230348   0.660   5.756   0.821  0.1518 -0.1026  0.1497
 2978TIP3    H130349   0.565   5.765   0.828  0.1957 -0.7815  2.1626
 2978TIP3    H230350   0.673   5.672   0.777 -0.1781 -0.0985  0.0435
 2979TIP3   OH230351   1.214   5.154  10.753  0.1861  0.3433  0.1495
 2979TIP3    H130352   1.243   5.194  10.671 -0.9449 -0.7091 -0.7891
 2979TIP3    H230353   1.192   5.064  10.729  0.1074 -0.0525  1.6718
 2980TIP3   OH230354   5.413   3.108  11.266  0.1084 -0.3150 -0.4448
 2980TIP3    H130355   5.361   3.188  11.258  1.9838  1.1933  1.9255
 2980TIP3    H230356   5.472   3.110  11.190 -0.3407  0.1368 -0.7889
 2981TIP3   OH230357   6.056   4.991  10.999  0.0889  0.2609  0.6389
 2981TIP3    H130358   5.992   4.920  10.996  0.8608 -0.4146 -0.1159
 2981TIP3    H230359   6.068   5.008  11.093 -1.0735  0.2800  0.7829
 2982TIP3   OH230360   5.945   3.735  15.543  0.0176  0.2641  0.7658
 2982TIP3    H130361   5.873   3.672  15.545  1.4790 -1.4448  0.8765
 2982TIP3    H230362   5.906   3.816  15.510 -2.2144 -0.2666  2.0466
 2983TIP3   OH230363   5.989   5.486  13.189  0.1163  0.5657  0.4284
 2983TIP3    H130364   6.018   5.437  13.266  1.4786  1.3795  0.4500
 2983TIP3    H230365   6.026   5.573  13.200  0.7811  0.5424 -1.4103
 2984TIP3   OH230366   0.059   5.396  11.478  0.3145 -0.1257  0.0951
 2984TIP3    H130367  -0.029   5.399  11.440  1.0293 -0.4534 -1.6782
 2984TIP3    H230368   0.081   5.488  11.491  0.6587  0.1060 -1.8534
 2985TIP3   OH230369   1.475   0.091   9.858 -0.0226 -0.9407  0.1428
 2985TIP3    H130370   1.546   0.100   9.795  0.3215 -0.1477  0.6308
 2985TIP3    H230371   1.397   0.123   9.812 -0.3825 -3.2968 -0.9306
 2986TIP3   OH230372   5.637   4.230  15.125  0.3426 -0.6106 -0.5580
 2986TIP3    H130373   5.601   4.301  15.073  3.6818 -0.3718 -2.7088
 2986TIP3    H230374   5.565   4.202  15.182 -2.4801  1.2158 -3.1094
 2987TIP3   OH230375   0.344   6.263  12.600  0.2966 -0.1054  0.3648
 2987TIP3    H130376   0.359   6.307  12.516 -0.0939  0.2092  0.4568
 2987TIP3    H230377   0.299   6.328  12.654 -1.8315 -1.1668 -0.0663
 2988TIP3   OH230378   1.829   1.011  12.672 -0.6348  0.2292  0.3792
 2988TIP3    H130379   1.924   1.007  12.663 -0.5626  1.9572  0.2460
 2988TIP3    H230380   1.801   0.919  12.669  1.0409 -0.3159  0.7063
 2989TIP3   OH230381   0.310   5.791  11.293 -0.0150 -0.5229 -0.3915
 2989TIP3    H130382   0.315   5.784  11.198  0.4090 -0.6379 -0.3629
 2989TIP3    H230383   0.395   5.826  11.319 -0.3969  0.2142 -0.1134
 2990TIP3   OH230384   3.424   6.119  11.497 -0.1000  0.7063  0.5414
 2990TIP3    H130385   3.384   6.153  11.578 -0.1149  2.7182 -0.2895
 2990TIP3    H230386   3.510   6.161  11.494 -0.0178  0.4639 -0.3851
 2991TIP3   OH230387   0.120   3.047  10.570  0.1409  0.1768 -0.2112
 2991TIP3    H130388   0.094   2.969  10.618  0.6659  2.3539  3.8388
 2991TIP3    H230389   0.214   3.055  10.584  0.3006  0.8891 -1.5843
 2992TIP3   OH230390   3.482   5.204  10.059  0.1119  0.5180  0.0666
 2992TIP3    H130391   3.523   5.215  10.145  0.6923  0.3135 -0.1756
 2992TIP3    H230392   3.485   5.109  10.044  0.3321  0.5857 -0.3271
 2993TIP3   OH230393   3.811   0.161   9.862  0.2407 -0.5655  0.4707
 2993TIP3    H130394   3.727   0.147   9.905 -1.4756  1.5159 -2.0946
 2993TIP3    H230395   3.848   0.238   9.905 -1.0099  0.9102 -1.0741
 2994TIP3   OH230396   6.010   3.223  10.242 -0.2601 -0.0376 -0.4060
 2994TIP3    H130397   6.068   3.222  10.165 -1.7004 -0.3294 -1.5053
 2994TIP3    H230398   6.004   3.315  10.267  1.4837 -0.1074  0.3456
 2995TIP3   OH230399   6.803   6.226  10.238 -0.6166 -0.6175  0.2196
 2995TIP3    H130400   6.762   6.167  10.175 -0.5473 -0.2155 -0.2149
 2995TIP3    H230401   6.797   6.312  10.196 -2.6216  0.0327  1.7698
 2996TIP3   OH230402   1.327   0.570  11.713 -0.0214 -0.1324  0.4166
 2996TIP3    H130403   1.294   0.644  11.662 -0.0023  0.3418  1.0869
 2996TIP3    H230404   1.417   0.594  11.735 -1.0408  1.1819  3.4779
 2997TIP3   OH230405   4.735   5.030  12.932 -0.5861 -0.1912 -0.2801
 2997TIP3    H130406   4.663   5.091  12.950  0.1970  0.9280 -0.9249
 2997TIP3    H230407   4.691   4.946  12.919 -1.7468  0.3801 -0.1837
 2998TIP3   OH230408   0.240   3.951   9.915 -0.0443 -0.1589  0.3012
 2998TIP3    H130409   0.298   3.894   9.865 -1.0844 -1.1889  0.2389
 2998TIP3    H230410   0.226   3.905   9.998 -1.9339 -0.6566 -0.2603
 2999TIP3   OH230411   5.580   6.110  10.026 -0.0153 -0.3739 -0.4753
 2999TIP3    H130412   5.506   6.171  10.031  0.1901 -0.1534 -0.1209
 2999TIP3    H230413   5.616   6.110  10.114  1.6405  1.0398 -1.1356
 3000TIP3   OH230414   6.314   0.229   9.751 -0.1078  0.0773  0.1658
 3000TIP3    H130415   6.266   0.184   9.821  0.8268  0.8381  1.3226
 3000TIP3    H230416   6.401   0.189   9.751  0.1674  0.6674  0.0158
 3001TIP3   OH230417   3.043   1.794  15.028 -0.1332 -0.1330 -0.1743
 3001TIP3    H130418   3.099   1.752  14.963 -0.9363 -0.9393 -0.3476
 3001TIP3    H230419   3.049   1.887  15.007 -1.0248 -0.4519 -1.9296
 3002TIP3   OH230420   6.181   5.509  13.855  0.3800  0.4372 -0.3422
 3002TIP3    H130421   6.140   5.522  13.769  1.6032  0.2213 -0.9726
 3002TIP3    H230422   6.272   5.534  13.841  1.0080 -1.3710  0.4221
 3003TIP3   OH230423   2.133   3.293   1.035  0.1268 -0.3427 -0.8151
 3003TIP3    H130424   2.150   3.356   1.105 -1.7964  0.6583 -1.2068
 3003TIP3    H230425   2.097   3.216   1.080  1.4058 -0.7344 -0.4499
 3004TIP3   OH230426   6.013   2.072  10.221  0.4233 -0.0609  0.0428
 3004TIP3    H130427   5.944   2.103  10.280  0.5135 -1.6277  0.9970
 3004TIP3    H230428   6.042   2.151  10.175 -1.3438  0.7704  0.3167
 3005TIP3   OH230429   6.064   5.799  10.193 -0.2255 -0.7457 -0.0073
 3005TIP3    H130430   5.980   5.845  10.197 -0.9194 -2.0560  0.9407
 3005TIP3    H230431   6.095   5.813  10.103 -0.7591  0.9465  0.0566
 3006TIP3   OH230432   2.189   2.486  13.301 -0.1350  0.1820 -0.2653
 3006TIP3    H130433   2.284   2.490  13.310 -0.1488  0.8234 -0.3776
 3006TIP3    H230434   2.160   2.577  13.310 -0.5895  0.2195 -2.0405
 3007TIP3   OH230435   0.690   6.737  11.412 -0.1053  0.0383 -0.0289
 3007TIP3    H130436   0.706   6.648  11.440 -0.3765  0.5175  1.7040
 3007TIP3    H230437   0.628   6.729  11.339  0.5736 -1.2161 -0.4759
 3008TIP3   OH230438   2.754   5.941  10.128  0.2668 -0.3404  0.1675
 3008TIP3    H130439   2.688   5.943  10.059 -0.8154 -0.0556  1.2030
 3008TIP3    H230440   2.800   6.025  10.119  0.2690 -0.3969 -0.3474
 3009TIP3   OH230441   3.983   3.666  12.806  0.2403 -0.5814 -0.6558
 3009TIP3    H130442   4.024   3.719  12.874  0.8215  0.2631 -1.6655
 3009TIP3    H230443   3.923   3.609  12.854  0.0007  0.6064  0.4833
 3010TIP3   OH230444   2.393   5.476  11.718 -0.2842  0.2541 -0.5986
 3010TIP3    H130445   2.401   5.468  11.623 -0.0693 -0.3912 -0.5316
 3010TIP3    H230446   2.303   5.506  11.732 -1.1094 -1.9761 -0.9019
 3011TIP3   OH230447   1.097   6.372  12.558  0.3752  0.0522  0.0762
 3011TIP3    H130448   1.003   6.373  12.577 -0.0508  1.9207 -1.8564
 3011TIP3    H230449   1.134   6.311  12.621 -1.7523  1.3919  2.7314
 3012TIP3   OH230450   5.154   4.213  10.872  0.2126 -0.1396  0.0011
 3012TIP3    H130451   5.097   4.240  10.944  1.3107 -1.2786  1.3373
 3012TIP3    H230452   5.182   4.294  10.830 -1.4920  0.4749  0.0259
 3013TIP3   OH230453   6.813   6.775  10.481 -0.7932  0.8212  0.5653
 3013TIP3    H130454   6.843   6.836  10.413 -1.6432  0.6248  0.0123
 3013TIP3    H230455   6.739   6.819  10.522 -0.6835  0.6554  0.9471
 3014TIP3   OH230456   3.000   0.648  11.175  0.3703  0.0957 -0.3429
 3014TIP3    H130457   3.057   0.725  11.186 -0.6141  1.0810 -1.8439
 3014TIP3    H230458   3.050   0.576  11.211  1.7748  1.2753  0.1340
 3015TIP3   OH230459   5.423   5.717   9.509  0.3151  0.4204  0.2200
 3015TIP3    H130460   5.444   5.699   9.417  1.8749  0.7216  0.4968
 3015TIP3    H230461   5.342   5.769   9.505  0.5161  0.6706 -0.9998
 3016TIP3   OH230462   2.847   5.957  11.184  0.4176 -0.9041 -0.2256
 3016TIP3    H130463   2.918   6.013  11.217 -0.7303 -0.4014  1.4815
 3016TIP3    H230464   2.805   6.009  11.115 -0.5230  0.3183  1.2169
 3017TIP3   OH230465   6.385   5.450   9.530 -0.2255 -0.5774  0.1419
 3017TIP3    H130466   6.418   5.452   9.440  0.8788  0.4789  0.5563
 3017TIP3    H230467   6.412   5.364   9.563 -0.6656 -0.9855 -0.5329
 3018TIP3   OH230468   3.018   5.836  11.983 -0.2174  0.1013  0.0642
 3018TIP3    H130469   3.073   5.866  11.910  0.4239 -0.2740  0.3814
 3018TIP3    H230470   3.016   5.741  11.973 -0.3397  0.0705  0.3816
 3019TIP3   OH230471   4.499   6.702  12.190 -0.0472  0.1440  0.0216
 3019TIP3    H130472   4.560   6.664  12.253 -1.1129 -0.4674  0.6839
 3019TIP3    H230473   4.452   6.770  12.238 -1.6354 -1.0572  0.2196
 3020TIP3   OH230474   2.191   2.211  10.745 -0.3871 -0.2085  0.4870
 3020TIP3    H130475   2.283   2.211  10.718 -0.2184 -0.1801  1.0391
 3020TIP3    H230476   2.193   2.250  10.833 -0.8210 -0.9721  0.8353
 3021TIP3   OH230477   4.679   4.765  12.174  0.7993  0.4190  0.0926
 3021TIP3    H130478   4.707   4.753  12.265 -1.7824  0.7103  0.9629
 3021TIP3    H230479   4.595   4.719  12.169  1.1294  0.0118 -2.2887
 3022TIP3   OH230480   2.733   1.012  13.008  0.7845 -0.3076  0.1756
 3022TIP3    H130481   2.715   0.973  12.923  1.2042  2.0803 -1.0263
 3022TIP3    H230482   2.678   1.090  13.011  2.3750  0.7883  1.2322
 3023TIP3   OH230483   6.669   5.751  10.044  0.1748  0.0748  0.2940
 3023TIP3    H130484   6.606   5.809  10.002 -0.4052 -0.3431  0.5856
 3023TIP3    H230485   6.616   5.686  10.089  0.7867  0.4188  1.5446
 3024TIP3   OH230486   0.114   2.960  10.931 -0.4348  0.3647  0.7609
 3024TIP3    H130487   0.121   2.877  10.979 -2.0205 -0.6570 -0.6965
 3024TIP3    H230488   0.025   2.960  10.897  0.1008  1.8957 -0.6948
 3025TIP3   OH230489   6.158   6.355  11.657 -0.4303  0.3447 -0.5346
 3025TIP3    H130490   6.159   6.321  11.568 -2.6960  1.4978 -1.0474
 3025TIP3    H230491   6.067   6.382  11.672 -0.2000 -0.2274  2.2859
 3026TIP3   OH230492   5.885   6.070  13.342 -0.2770  0.2973  0.0953
 3026TIP3    H130493   5.839   6.147  13.374 -0.4943  0.1149  0.2241
 3026TIP3    H230494   5.905   6.020  13.421 -0.0540  0.2694  0.0200
 3027TIP3   OH230495   4.595   1.331   9.580 -0.1482 -0.2861 -0.6850
 3027TIP3    H130496   4.590   1.332   9.484  2.5137  1.8494 -0.8646
 3027TIP3    H230497   4.618   1.241   9.602  0.8740 -0.4051 -2.1769
 3028TIP3   OH230498   0.903   6.062  12.877  0.1186  0.7375  0.2638
 3028TIP3    H130499   0.890   5.986  12.935 -0.3075  2.1098  2.0144
 3028TIP3    H230500   0.911   6.024  12.789 -1.4709 -1.2238  0.9270
 3029TIP3   OH230501   1.590   0.219  10.398 -0.3107 -0.0953  0.2959
 3029TIP3    H130502   1.675   0.262  10.402  0.3662 -1.1956 -1.7108
 3029TIP3    H230503   1.568   0.218  10.305 -1.2752 -2.1958  0.5207
 3030TIP3   OH230504   5.416   7.069  12.548 -0.3451 -0.4303 -0.7371
 3030TIP3    H130505   5.425   7.063  12.453  0.1805  0.1295 -0.7275
 3030TIP3    H230506   5.361   7.146  12.562  1.0442  0.5357 -0.5289
 3031TIP3   OH230507   3.603   5.881  12.418 -0.1648  0.4294  0.5123
 3031TIP3    H130508   3.632   5.925  12.498 -0.4373  1.3710  0.1039
 3031TIP3    H230509   3.507   5.884  12.422 -0.2049 -0.8862  0.8832
 3032TIP3   OH230510   6.829   2.986  10.980 -0.0593 -0.3261  0.5748
 3032TIP3    H130511   6.772   3.021  10.912  0.4916 -1.5253 -0.5101
 3032TIP3    H230512   6.869   3.063  11.020 -2.3006  0.5309  1.2635
 3033TIP3   OH230513   0.245   4.971  13.736  0.0561 -0.0678  0.1960
 3033TIP3    H130514   0.228   4.940  13.647 -0.0572 -0.6657  0.4247
 3033TIP3    H230515   0.253   5.066  13.727  0.3982 -0.1602 -0.5072
 3034TIP3   OH230516   6.606   4.642  11.205  0.1497 -0.6858  0.1968
 3034TIP3    H130517   6.533   4.699  11.180  0.2473 -0.0436  1.3540
 3034TIP3    H230518   6.640   4.609  11.121 -0.2751  0.4950 -0.4542
 3035TIP3   OH230519   5.754   3.502  10.781 -0.6981  0.8394 -0.3355
 3035TIP3    H130520   5.788   3.413  10.776 -1.1376  0.6990 -0.8636
 3035TIP3    H230521   5.721   3.520  10.693 -0.2542  1.6653 -0.3439
 3036TIP3   OH230522   4.674   0.914  15.457  0.2896  0.3779  0.3433
 3036TIP3    H130523   4.714   0.993  15.494  0.4496 -0.2070  1.4665
 3036TIP3    H230524   4.603   0.946  15.401  1.9472  1.4083 -1.2203
 3037TIP3   OH230525   3.880   6.606  13.518 -0.1099  0.4325  0.4283
 3037TIP3    H130526   3.911   6.696  13.522 -0.1497  0.4566  0.2109
 3037TIP3    H230527   3.827   6.602  13.439  0.3188  0.0890  0.1534
 3038TIP3   OH230528   1.610   5.043  11.013 -0.2302 -0.0890  0.7310
 3038TIP3    H130529   1.611   5.087  11.098 -1.0384  1.1211  0.1271
 3038TIP3    H230530   1.689   5.074  10.970 -0.9894  1.0792  0.1611
 3039TIP3   OH230531   3.286   6.385  10.471 -0.5096 -0.0947  0.0661
 3039TIP3    H130532   3.215   6.415  10.528 -1.2365 -0.2686 -0.7334
 3039TIP3    H230533   3.314   6.464  10.425 -1.6507 -0.3967 -1.1954
 3040TIP3   OH230534   6.613   6.551   9.597 -0.4500 -0.0342  0.2644
 3040TIP3    H130535   6.592   6.641   9.571 -0.3548 -0.1812 -0.3455
 3040TIP3    H230536   6.547   6.498   9.552  0.2847 -0.3724 -0.4337
 3041TIP3   OH230537   5.573   4.652  11.574 -0.0559 -0.0254 -0.3733
 3041TIP3    H130538   5.559   4.653  11.479  0.9158  2.2088 -0.5398
 3041TIP3    H230539   5.641   4.586  11.588 -1.0643 -1.2178 -1.0936
 3042TIP3   OH230540   4.743   5.776   9.713 -0.8981 -0.5916  0.3333
 3042TIP3    H130541   4.815   5.781   9.651 -0.1633 -1.7742  1.0809
 3042TIP3    H230542   4.701   5.862   9.708  2.8801  1.5108  2.6797
 3043TIP3   OH230543   0.562   7.084   9.906 -0.4555 -0.3382 -0.3187
 3043TIP3    H130544   0.567   7.016   9.973 -3.2218 -0.1891  0.0912
 3043TIP3    H230545   0.594   7.041   9.827 -0.8082 -1.7011  0.2502
 3044TIP3   OH230546   1.235   4.478  10.118  0.1791 -0.2878 -0.0695
 3044TIP3    H130547   1.190   4.443  10.195 -1.2715  1.2586 -0.1790
 3044TIP3    H230548   1.192   4.435  10.043 -0.2805  0.2624 -0.1227
 3045TIP3   OH230549   1.650   4.924  12.069  0.0397 -0.1601 -0.1982
 3045TIP3    H130550   1.671   4.890  12.155  0.2927  1.0849  0.2376
 3045TIP3    H230551   1.734   4.929  12.024 -0.3295 -2.9460 -1.3469
 3046TIP3   OH230552   0.383   4.516  12.983 -0.2528  0.1855  0.3949
 3046TIP3    H130553   0.475   4.544  12.979 -0.2632 -0.0153 -1.8488
 3046TIP3    H230554   0.344   4.573  13.050  1.2703  0.9211  0.6988
 3047TIP3   OH230555   2.537   4.336  12.633  0.3754  1.0134 -0.0941
 3047TIP3    H130556   2.548   4.420  12.589  1.0278  0.9298 -0.1015
 3047TIP3    H230557   2.625   4.298  12.634  0.2347  0.6919  0.6344
 3048TIP3   OH230558   5.551   5.932   9.301 -0.1649  0.4374  0.1593
 3048TIP3    H130559   5.622   5.875   9.272 -0.5144  0.9634 -1.8344
 3048TIP3    H230560   5.471   5.885   9.276 -0.4891  0.8773  0.3577
 3049TIP3   OH230561   5.248   3.531  11.108 -0.3546 -0.0097  0.3603
 3049TIP3    H130562   5.198   3.606  11.141  1.0573  1.4323 -0.6802
 3049TIP3    H230563   5.195   3.496  11.037 -0.3089  0.9903 -0.1804
 3050TIP3   OH230564   6.680   3.616  10.854  0.2159  0.7334 -0.0568
 3050TIP3    H130565   6.723   3.693  10.893 -1.9483  1.0079  1.9439
 3050TIP3    H230566   6.715   3.542  10.903  3.1515  0.2575 -2.7415
 3051TIP3   OH230567   0.581   0.751  11.541 -0.0034  0.4689 -0.1517
 3051TIP3    H130568   0.536   0.670  11.516  0.1951  0.3812 -0.2293
 3051TIP3    H230569   0.644   0.766  11.471  0.3922  0.3522  0.1766
 3052TIP3   OH230570   6.996   3.846  10.437 -0.0660 -0.2781 -0.1209
 3052TIP3    H130571   7.062   3.777  10.448 -0.4862 -0.5317  0.9084
 3052TIP3    H230572   7.028   3.899  10.364  0.4535 -1.3414 -0.6694
 3053TIP3   OH230573   4.845   7.103  12.471 -0.0490 -0.3764  0.0282
 3053TIP3    H130574   4.830   7.090  12.564  1.0606 -0.2189  0.2329
 3053TIP3    H230575   4.903   7.179  12.466 -0.4424 -0.1172 -0.8137
 3054TIP3   OH230576   7.160   5.057  10.756  0.1919  0.9978 -0.3434
 3054TIP3    H130577   7.224   5.119  10.721  0.7460  0.4113 -0.3574
 3054TIP3    H230578   7.159   4.985  10.693  1.0293  0.0370  0.7336
 3055TIP3   OH230579   1.395   1.036  11.665  0.5106  0.4758  0.4948
 3055TIP3    H130580   1.316   1.073  11.706  0.0323 -1.0588  0.9820
 3055TIP3    H230581   1.438   0.988  11.736  1.0138 -0.0709 -0.1785
 3056TIP3   OH230582   1.374   0.368  14.276 -0.4217 -0.3807  0.2989
 3056TIP3    H130583   1.440   0.329  14.219  1.3521  0.5534  1.6487
 3056TIP3    H230584   1.367   0.308  14.350 -0.2555  0.0744  0.6903
 3057TIP3   OH230585   5.413   6.310  10.081 -0.1567 -0.1706  0.1601
 3057TIP3    H130586   5.339   6.279  10.134  0.0929  0.2394  0.7452
 3057TIP3    H230587   5.377   6.317   9.993 -0.8145 -0.0124  0.4370
 3058TIP3   OH230588   0.587   5.041  11.691  0.2007 -0.0271 -0.4683
 3058TIP3    H130589   0.602   5.132  11.664 -1.0150  0.1388 -0.6153
 3058TIP3    H230590   0.521   5.047  11.760 -0.1696 -0.8185 -0.7399
 3059TIP3   OH230591   1.133   5.108  11.013 -0.1516  0.0166 -0.3520
 3059TIP3    H130592   1.120   5.184  11.069  0.8912  1.1995 -1.6679
 3059TIP3    H230593   1.183   5.141  10.938  2.1664 -2.3772  0.0410
 3060TIP3   OH230594   4.262   3.630  13.122  0.6651  0.3247 -0.9017
 3060TIP3    H130595   4.247   3.659  13.212 -1.9008  3.0428 -2.0966
 3060TIP3    H230596   4.244   3.536  13.123 -1.1512  0.6604  1.0665
 3061TIP3   OH230597   0.133   3.596  10.704  0.2297 -0.3485  0.0254
 3061TIP3    H130598   0.207   3.593  10.765  0.3699 -0.3145 -0.1410
 3061TIP3    H230599   0.128   3.508  10.668  1.8109  0.2749 -1.8675
 3062TIP3   OH230600   5.794   5.102  11.879 -0.1594 -0.2805 -0.7039
 3062TIP3    H130601   5.862   5.158  11.917  1.4259 -0.9258 -2.4831
 3062TIP3    H230602   5.766   5.045  11.951  0.1491  0.9670  0.4179
 3063TIP3   OH230603   5.797   1.119  11.008  0.1231 -0.1576  0.4050
 3063TIP3    H130604   5.779   1.062  11.083 -2.2179  0.5128  0.3791
 3063TIP3    H230605   5.887   1.148  11.021 -0.0644 -0.5294  2.6325
 3064TIP3   OH230606   5.901   6.196  10.011 -0.2566  0.2695  0.4696
 3064TIP3    H130607   5.971   6.189   9.947 -0.9671 -0.4531 -0.2345
 3064TIP3    H230608   5.858   6.279   9.990 -0.5367 -0.0026 -0.0355
 3065TIP3   OH230609   1.438   0.531  12.704 -0.3528  0.4112  0.1504
 3065TIP3    H130610   1.383   0.482  12.765  0.1300  0.1439  0.3738
 3065TIP3    H230611   1.512   0.472  12.686  1.1178  1.7099  1.7339
 3066TIP3   OH230612   3.490   1.376  11.208 -0.5911  0.4400  0.3380
 3066TIP3    H130613   3.507   1.306  11.145  1.3901  0.4572  0.7981
 3066TIP3    H230614   3.395   1.387  11.208 -0.9614 -2.4063  0.4087
 3067TIP3   OH230615   6.560   5.501  10.142 -0.6159 -0.0779  0.0525
 3067TIP3    H130616   6.601   5.481  10.226 -1.0105 -1.1260  0.0043
 3067TIP3    H230617   6.609   5.448  10.079 -1.6481 -0.8735 -0.0870
 3068TIP3   OH230618   1.552   5.987  13.894 -0.0177 -0.3973  0.5324
 3068TIP3    H130619   1.611   5.998  13.819  2.1660 -0.4948  2.2151
 3068TIP3    H230620   1.499   6.067  13.895  2.1590  1.0698  0.7980
 3069TIP3   OH230621   1.382   6.095  12.523 -0.3568  0.2226  0.4020
 3069TIP3    H130622   1.293   6.061  12.516  0.4975 -2.1109  0.3636
 3069TIP3    H230623   1.419   6.050  12.599  1.2767 -0.0020 -0.4920
 3070TIP3   OH230624   2.262   4.788  11.012 -0.3353  0.2271  0.2227
 3070TIP3    H130625   2.213   4.709  11.035 -0.8422  0.4511 -0.0895
 3070TIP3    H230626   2.218   4.821  10.934 -0.9246  1.5443  1.1060
 3071TIP3   OH230627   5.199   6.158  10.179 -0.3972 -0.1196 -0.4153
 3071TIP3    H130628   5.123   6.166  10.121  0.8715 -0.6260 -2.1625
 3071TIP3    H230629   5.233   6.070  10.162  0.1942 -0.1545  0.8719
 3072TIP3   OH230630   6.039   6.316   9.482  0.2561 -0.3145  0.1552
 3072TIP3    H130631   6.071   6.399   9.519  0.0817 -0.0651 -0.2511
 3072TIP3    H230632   6.117   6.274   9.446  0.4509 -0.6172  0.9078
 3073TIP3   OH230633   3.575   5.360  12.466 -0.1749  0.5703  0.1900
 3073TIP3    H130634   3.624   5.406  12.534 -0.2763 -1.1241  1.4370
 3073TIP3    H230635   3.496   5.329  12.511 -0.8059  0.4522 -0.9894
 3074TIP3   OH230636   6.513   4.448  10.173  0.3213  0.3122  0.1872
 3074TIP3    H130637   6.513   4.355  10.195 -0.7095  0.4159  0.6784
 3074TIP3    H230638   6.604   4.469  10.156  0.6059 -0.7092  0.4333
 3075TIP3   OH230639   0.085   4.719  10.729 -0.2217 -0.1954 -0.0706
 3075TIP3    H130640   0.071   4.625  10.730  1.5374 -0.4809  2.1229
 3075TIP3    H230641   0.055   4.749  10.815  0.6097  1.0250 -0.1815
 3076TIP3   OH230642   3.339   4.484  14.261  0.1942 -0.7565 -0.8601
 3076TIP3    H130643   3.342   4.391  14.283 -0.7375 -0.4462  0.6362
 3076TIP3    H230644   3.271   4.521  14.318  0.7314  0.8903 -1.2384
 3077TIP3   OH230645   6.745   6.039  10.040 -0.1106 -0.4920  0.3685
 3077TIP3    H130646   6.683   6.009   9.973 -2.0109  3.9551 -0.0038
 3077TIP3    H230647   6.830   6.040   9.995 -1.5583  3.6790 -2.5468
 3078TIP3   OH230648   5.946   2.600   9.999  0.4903 -0.1071 -0.1250
 3078TIP3    H130649   5.894   2.564  10.071  0.2976  2.6012  1.1310
 3078TIP3    H230650   6.035   2.603  10.034  0.6741 -0.2323 -0.5759
 3079TIP3   OH230651   5.200   5.500  10.979 -0.4021  0.2410  0.4439
 3079TIP3    H130652   5.293   5.485  10.996  0.0484  1.6794 -0.6622
 3079TIP3    H230653   5.182   5.585  11.018 -1.2672 -0.0699  0.7169
 3080TIP3   OH230654   4.403   3.195  10.330 -0.0198  0.1035  0.2331
 3080TIP3    H130655   4.387   3.245  10.249 -0.1574 -2.0735 -1.1250
 3080TIP3    H230656   4.449   3.116  10.301  0.5143 -0.4117  2.3843
 3081TIP3   OH230657   7.080   5.922  10.204  0.4601 -0.2786 -0.2820
 3081TIP3    H130658   7.171   5.940  10.228  0.4084 -0.6443  0.1950
 3081TIP3    H230659   7.062   5.982  10.132  0.7065  0.6437  0.4123
 3082TIP3   OH230660   6.712   5.694  11.947  0.0559 -0.1468  0.3919
 3082TIP3    H130661   6.746   5.747  11.875 -0.2208  1.0190  1.0938
 3082TIP3    H230662   6.618   5.709  11.945 -0.0363 -0.7156  0.5215
 3083TIP3   OH230663   5.494   5.506   9.292 -0.1507 -0.7120  0.7248
 3083TIP3    H130664   5.584   5.475   9.278 -0.0573 -0.7406  1.3536
 3083TIP3    H230665   5.462   5.454   9.366 -0.8111 -0.9481  0.2744
 3084TIP3   OH230666   6.772   5.343   9.941 -0.0628 -0.4229 -0.0808
 3084TIP3    H130667   6.757   5.278   9.873  0.5155 -0.1348 -0.4855
 3084TIP3    H230668   6.862   5.328   9.970  0.6995  1.3619 -1.4354
 3085TIP3   OH230669   7.029   1.193  10.567 -0.2672 -0.2382 -0.5227
 3085TIP3    H130670   6.987   1.269  10.527  0.2279  0.0149 -0.5639
 3085TIP3    H230671   6.995   1.192  10.657  0.3877  0.5354 -0.2649
 3086TIP3   OH230672   6.297   6.158   9.424  0.4471 -0.0617 -0.0118
 3086TIP3    H130673   6.354   6.236   9.427 -0.3171  0.5083 -0.0948
 3086TIP3    H230674   6.289   6.138   9.331 -1.6247  1.4700 -0.2059
 3087TIP3   OH230675   6.036   0.422   9.538  0.7725 -0.1472 -0.1051
 3087TIP3    H130676   6.050   0.357   9.469 -1.2682 -1.3322  0.5217
 3087TIP3    H230677   6.058   0.376   9.619 -1.2371 -0.3041  0.3959
 3088TIP3   OH230678   4.355   4.179  12.266  0.5401  0.2422  0.0015
 3088TIP3    H130679   4.442   4.141  12.275  0.2844 -0.6117 -1.0125
 3088TIP3    H230680   4.335   4.172  12.173 -0.3326  1.0673  0.1156
 3089TIP3   OH230681   0.712   0.587  11.224 -0.1475 -0.1142  0.0306
 3089TIP3    H130682   0.720   0.664  11.281 -1.5055 -1.8981  2.7512
 3089TIP3    H230683   0.644   0.612  11.161  0.3260  1.3787  0.0884
 3090TIP3   OH230684   6.156   5.319  12.083 -0.2902 -0.0673 -0.0628
 3090TIP3    H130685   6.133   5.396  12.135 -1.1283 -1.3004  1.4270
 3090TIP3    H230686   6.160   5.351  11.993 -3.2270  1.1802  0.2075
 3091TIP3   OH230687   1.099   2.005  12.954 -0.1039  0.4218 -0.8508
 3091TIP3    H130688   1.164   1.948  12.994 -0.2243 -1.1393 -2.8066
 3091TIP3    H230689   1.146   2.087  12.938  0.8736 -0.0802 -0.6044
 3092TIP3   OH230690   1.100   5.849  12.101 -0.7344  0.4530  0.3973
 3092TIP3    H130691   1.083   5.919  12.164 -1.1333 -0.8803  1.7960
 3092TIP3    H230692   1.054   5.772  12.137 -0.9967 -0.3299 -1.5245
 3093TIP3   OH230693   6.647   0.029  13.971  0.0005 -0.3834  0.0045
 3093TIP3    H130694   6.631  -0.064  13.959  1.6477 -0.6580 -0.2064
 3093TIP3    H230695   6.742   0.036  13.982 -0.2583  1.0996  1.6021
 3094TIP3   OH230696   5.477   0.888  10.951  0.1436  0.1996  0.6762
 3094TIP3    H130697   5.571   0.878  10.969 -0.0195  0.2966  1.6043
 3094TIP3    H230698   5.447   0.800  10.932  1.0902  0.5989 -3.0211
 3095TIP3   OH230699   1.914   0.079  12.485 -0.7431  0.1840 -0.3180
 3095TIP3    H130700   1.917   0.169  12.452  1.1314 -0.1325 -1.0976
 3095TIP3    H230701   2.005   0.059  12.505 -1.1536 -1.5342 -0.1377
 3096TIP3   OH230702   0.536   3.929  11.740  0.2635  0.2637 -0.5454
 3096TIP3    H130703   0.446   3.963  11.744  0.2384  0.7659 -3.8183
 3096TIP3    H230704   0.588   3.994  11.788 -0.9136  0.7041  0.1690
 3097TIP3   OH230705   4.792   5.953   9.434 -0.2932 -0.0578 -0.3958
 3097TIP3    H130706   4.702   5.981   9.452 -0.1574  1.2300 -1.6195
 3097TIP3    H230707   4.842   5.981   9.511 -1.1912 -2.1508  0.9860
 3098TIP3   OH230708   6.012   6.088  12.890 -0.1715 -0.4193 -0.2749
 3098TIP3    H130709   5.976   6.116  12.805 -0.5202  0.9083  0.2944
 3098TIP3    H230710   5.974   6.149  12.953  2.2096  0.3122  0.4857
 3099TIP3   OH230711   4.745   6.143  10.182  0.3414  0.1169  0.2352
 3099TIP3    H130712   4.716   6.199  10.110  2.9201 -0.4928 -1.3663
 3099TIP3    H230713   4.807   6.082  10.141  1.5284 -0.5237  2.8803
 3100TIP3   OH230714   0.036   1.478  13.005 -0.2022 -0.5706  0.4323
 3100TIP3    H130715   0.122   1.438  13.019  0.3066 -0.3719 -1.9131
 3100TIP3    H230716  -0.026   1.406  13.020  0.5939 -1.7394 -1.6186
 3101TIP3   OH230717   4.716   5.424  12.874  0.1526  0.4301  0.2487
 3101TIP3    H130718   4.777   5.394  12.941  0.6909 -0.0773 -0.4616
 3101TIP3    H230719   4.663   5.491  12.918  1.5266  1.2183  0.7505
 3102TIP3   OH230720   5.424   5.274  12.542  0.3348  0.2479  0.1065
 3102TIP3    H130721   5.450   5.219  12.616  1.3927  1.1235  0.4010
 3102TIP3    H230722   5.447   5.223  12.465  0.8378  0.0620  0.3804
 3103TIP3   OH230723   0.359   5.201   9.352 -0.6605  0.1036 -0.0661
 3103TIP3    H130724   0.429   5.171   9.410 -1.0256 -0.1240  0.2595
 3103TIP3    H230725   0.331   5.285   9.389 -1.5576 -0.5037  0.6603
 3104TIP3   OH230726   1.429   3.259   0.307 -0.1152 -0.1377  0.6121
 3104TIP3    H130727   1.361   3.323   0.330 -1.1657 -0.4262 -1.5539
 3104TIP3    H230728   1.430   3.258   0.212 -1.3107 -4.5318  0.4978
 3105TIP3   OH230729   0.636   5.370   9.891  0.1213  0.8765 -0.2166
 3105TIP3    H130730   0.545   5.343   9.881 -0.0927  1.9719 -1.3188
 3105TIP3    H230731   0.631   5.456   9.933  0.7236  0.1367  1.4185
 3106TIP3   OH230732   4.226   2.201  10.599 -0.4619  0.1033  0.3031
 3106TIP3    H130733   4.293   2.171  10.661  1.1315  0.8488 -1.0048
 3106TIP3    H230734   4.196   2.121  10.556  0.5902 -0.1149 -0.0546
 3107TIP3   OH230735   4.067   3.643  10.302 -0.2740 -0.7579 -0.4373
 3107TIP3    H130736   4.115   3.602  10.230 -0.5418 -0.7802 -0.6068
 3107TIP3    H230737   4.040   3.570  10.358 -1.3652 -0.8910 -1.1146
 3108TIP3   OH230738   4.241   5.518  11.097  0.0037  0.1850 -0.2828
 3108TIP3    H130739   4.233   5.496  11.190 -0.5984  0.0901 -0.3542
 3108TIP3    H230740   4.327   5.559  11.089 -1.2954  3.2190  0.9168
 3109TIP3   OH230741   2.264   2.616  13.789 -0.4580 -0.1756  0.1032
 3109TIP3    H130742   2.175   2.650  13.780 -0.7906 -0.6061  1.6495
 3109TIP3    H230743   2.312   2.686  13.832 -0.5648 -0.7314  1.1422
 3110TIP3   OH230744   1.521   0.150  11.335 -0.1752 -0.1738  0.2261
 3110TIP3    H130745   1.504   0.209  11.261 -1.0145  0.5725  0.9942
 3110TIP3    H230746   1.578   0.082  11.299  1.5893  1.6083 -0.4402
 3111TIP3   OH230747   7.071   6.635  12.583 -0.3377  0.4928 -0.2728
 3111TIP3    H130748   7.085   6.722  12.620  1.0957 -0.2094  0.8912
 3111TIP3    H230749   7.042   6.581  12.657  0.9249 -0.5314 -0.5093
 3112TIP3   OH230750   5.659   6.042  11.155  0.0109 -0.5270  0.0846
 3112TIP3    H130751   5.600   5.971  11.131 -2.5444  1.2719  0.9049
 3112TIP3    H230752   5.626   6.118  11.109  1.6776  0.5506  0.6119
 3113TIP3   OH230753   7.042   5.884   9.468  0.3842  0.3825  0.1596
 3113TIP3    H130754   7.008   5.927   9.546  0.8596 -1.5369  1.4561
 3113TIP3    H230755   7.123   5.841   9.496  0.3116 -0.7460 -1.2420
 3114TIP3   OH230756   0.374   4.557   9.593  0.7743 -0.3802 -0.4554
 3114TIP3    H130757   0.353   4.468   9.565  0.6822 -0.6812  0.5782
 3114TIP3    H230758   0.296   4.608   9.574  0.1044 -0.9290  0.8059
 3115TIP3   OH230759   0.482   2.429  10.459  0.3686 -0.4270 -0.8267
 3115TIP3    H130760   0.558   2.412  10.515  2.2635  2.1265 -2.4796
 3115TIP3    H230761   0.474   2.351  10.404  0.3981 -1.6410  0.8608
 3116TIP3   OH230762   1.343   6.177  11.486  0.3538  0.3683  0.7397
 3116TIP3    H130763   1.372   6.260  11.525  1.4739 -0.9897  2.8890
 3116TIP3    H230764   1.424   6.134  11.457 -0.1868 -0.1475 -0.0214
 3117TIP3   OH230765   6.570   0.022  10.970  0.7879  0.1704  0.3425
 3117TIP3    H130766   6.569  -0.059  11.021  1.3152 -0.1872 -0.2140
 3117TIP3    H230767   6.563  -0.006  10.879  0.6894  0.7649  0.1603
 3118TIP3   OH230768   4.197   4.054  11.078 -0.1198  0.4566  0.6090
 3118TIP3    H130769   4.105   4.057  11.049  0.3291  2.6380 -0.7116
 3118TIP3    H230770   4.243   4.009  11.007  0.1892  1.3838  0.2173
 3119TIP3   OH230771   0.653   1.627  10.321 -0.0532  0.3167 -0.5703
 3119TIP3    H130772   0.606   1.631  10.404 -2.8693  0.5291 -2.1089
 3119TIP3    H230773   0.674   1.718  10.300  1.0327  0.2254  0.0956
 3120TIP3   OH230774   3.575   3.363  12.898  0.2262  0.0612 -0.5555
 3120TIP3    H130775   3.528   3.309  12.961 -2.0125  0.2667 -1.9893
 3120TIP3    H230776   3.573   3.451  12.935  0.6534 -0.1602  0.0087
 3121TIP3   OH230777   3.963   5.334   9.882  0.6351 -0.4385  0.2346
 3121TIP3    H130778   3.933   5.377   9.802  1.4303  0.3825  0.3687
 3121TIP3    H230779   4.037   5.388   9.912 -0.8142  0.3563  2.5340
 3122TIP3   OH230780   4.828   2.700  14.731  0.0160 -0.2747 -0.4849
 3122TIP3    H130781   4.854   2.791  14.719 -2.2574  0.3746 -0.5877
 3122TIP3    H230782   4.873   2.673  14.812 -1.8311  1.9417  1.3542
 3123TIP3   OH230783   5.753   0.460   9.581 -0.3997  0.2984 -0.9086
 3123TIP3    H130784   5.742   0.388   9.642 -2.1797  1.7730  0.5648
 3123TIP3    H230785   5.848   0.469   9.571 -0.1280 -0.7365  0.6949
 3124TIP3   OH230786   0.198   1.304  10.620  0.6585  0.2822  0.0653
 3124TIP3    H130787   0.128   1.360  10.585  0.5151  1.0336  1.5035
 3124TIP3    H230788   0.185   1.307  10.715  2.3189 -0.0097  0.3144
 3125TIP3   OH230789   5.736   2.204   1.967 -0.2619  0.1464  0.1783
 3125TIP3    H130790   5.736   2.155   2.050 -1.2415  1.5427  1.0347
 3125TIP3    H230791   5.652   2.182   1.927 -1.1498  1.8854  1.0490
 3126TIP3   OH230792   6.647   3.460  11.208  0.0080  0.2334  0.3767
 3126TIP3    H130793   6.564   3.507  11.195  1.3327  2.5283  0.1275
 3126TIP3    H230794   6.648   3.440  11.302 -1.3854 -0.9576  0.1766
 3127TIP3   OH230795   3.451   6.519  13.014 -0.3383  0.0220  0.6945
 3127TIP3    H130796   3.359   6.506  13.040 -0.2166  2.5541  2.6757
 3127TIP3    H230797   3.455   6.487  12.924 -2.9037 -1.1661  0.9446
 3128TIP3   OH230798   5.406   4.624   9.315 -0.4834 -0.0190 -0.0778
 3128TIP3    H130799   5.327   4.674   9.297  0.3839  1.0329 -1.0157
 3128TIP3    H230800   5.388   4.537   9.278 -2.1931 -0.6053  2.0321
 3129TIP3   OH230801   5.578   5.549   9.649 -0.1850 -0.0581 -0.2253
 3129TIP3    H130802   5.548   5.620   9.591  1.1684  0.8008  0.0952
 3129TIP3    H230803   5.538   5.569   9.733 -1.2742 -0.7021 -0.5795
 3130TIP3   OH230804   6.015   6.920  11.566 -0.2093  0.1785  0.4083
 3130TIP3    H130805   6.065   6.979  11.510 -2.6941  1.1074 -0.8837
 3130TIP3    H230806   6.061   6.836  11.559  2.4693  1.5563  1.0629
 3131TIP3   OH230807   1.079   5.346  11.136 -0.1264 -0.1075 -0.2027
 3131TIP3    H130808   0.995   5.375  11.101  0.1067 -0.0478 -0.7202
 3131TIP3    H230809   1.091   5.398  11.216  0.4865  1.5206 -1.3416
 3132TIP3   OH230810   0.162   5.000   9.380 -0.8881  0.9083  0.1942
 3132TIP3    H130811   0.201   5.082   9.409  1.6956 -0.8443  1.9148
 3132TIP3    H230812   0.222   4.966   9.315  0.5775 -1.7872  2.8073
 3133TIP3   OH230813   7.028   4.794  10.504 -0.1201  0.1945  0.5840
 3133TIP3    H130814   6.975   4.874  10.497  0.6680  0.7188  0.4961
 3133TIP3    H230815   7.011   4.746  10.424  0.0223  0.6698  0.2682
 3134TIP3   OH230816   0.812   4.526  10.771 -0.4175 -0.4058 -0.0452
 3134TIP3    H130817   0.852   4.523  10.858 -1.4660 -2.0905  0.3956
 3134TIP3    H230818   0.748   4.597  10.776  0.2645  0.1980  0.2199
 3135TIP3   OH230819   5.269   1.870  13.408  0.1314 -0.4339  0.9804
 3135TIP3    H130820   5.349   1.913  13.378 -1.2417  0.7710 -1.1186
 3135TIP3    H230821   5.298   1.787  13.445  2.1967 -0.9358 -1.6014
 3136TIP3   OH230822   0.227   5.121   9.124 -0.3452  0.2186 -0.0835
 3136TIP3    H130823   0.277   5.158   9.196 -0.9692  1.5053 -0.2947
 3136TIP3    H230824   0.254   5.029   9.120 -0.8109 -0.0542  2.2405
 3137TIP3   OH230825   2.327   4.903  13.972  0.7917 -0.2538 -0.2557
 3137TIP3    H130826   2.327   4.875  14.063 -0.5478 -0.8753 -0.4300
 3137TIP3    H230827   2.330   4.999  13.976 -0.6343 -0.2340  0.4702
 3138TIP3   OH230828   6.607   1.912  11.309 -0.1370 -0.2348  0.9313
 3138TIP3    H130829   6.533   1.929  11.367 -0.4777 -0.9091  0.7094
 3138TIP3    H230830   6.577   1.940  11.222  0.6892  1.6017  1.2168
 3139TIP3   OH230831   2.543   1.896  11.514 -0.2928 -0.1868  1.0015
 3139TIP3    H130832   2.480   1.931  11.451  0.0221 -2.2370 -0.4856
 3139TIP3    H230833   2.628   1.929  11.484 -0.1153 -1.3594  0.2065
 3140TIP3   OH230834   2.610   2.034  12.757  0.4932  0.1737 -0.0763
 3140TIP3    H130835   2.530   1.997  12.718  0.0879 -0.1224  1.0085
 3140TIP3    H230836   2.586   2.123  12.781  0.9792  0.6129 -1.2051
 3141TIP3   OH230837   6.860   2.361  15.295  0.4513 -0.9119 -0.6423
 3141TIP3    H130838   6.834   2.325  15.379  1.2013  0.1756  0.0731
 3141TIP3    H230839   6.861   2.286  15.235 -2.6644 -1.2594 -0.3376
 3142TIP3   OH230840   7.118   1.518  12.694  0.2206  0.4300 -0.5465
 3142TIP3    H130841   7.094   1.610  12.688 -0.7553  0.0767 -2.0637
 3142TIP3    H230842   7.109   1.497  12.787 -0.1674  1.6880 -0.2968
 3143TIP3   OH230843   5.035   0.775  10.741 -0.0100 -0.3296 -0.2371
 3143TIP3    H130844   4.999   0.863  10.751  1.4351  0.5493 -2.4545
 3143TIP3    H230845   4.958   0.718  10.737 -0.9822  0.9399  0.1038
 3144TIP3   OH230846   2.800   4.954  12.917 -0.1006 -0.0482  0.6424
 3144TIP3    H130847   2.878   4.906  12.890 -0.0996 -0.0266  0.6088
 3144TIP3    H230848   2.729   4.890  12.909 -0.3200  0.3565 -0.7425
 3145TIP3   OH230849   5.036   4.592  12.166  0.0625 -0.3640  0.0097
 3145TIP3    H130850   4.959   4.591  12.223 -0.4368  0.4563 -0.6429
 3145TIP3    H230851   5.058   4.685  12.159  0.2492 -0.4815 -0.9630
 3146TIP3   OH230852   1.331   5.159  12.056  0.2204  0.0073 -0.2223
 3146TIP3    H130853   1.299   5.213  11.984  0.0631 -1.1581 -1.0388
 3146TIP3    H230854   1.260   5.161  12.121 -1.2733 -1.9879 -1.7223
 3147TIP3   OH230855   2.414   6.647  10.401  0.4542 -0.6304 -0.3897
 3147TIP3    H130856   2.501   6.650  10.361  1.6618  2.0106  2.2453
 3147TIP3    H230857   2.355   6.679  10.333  1.8896 -0.1253 -1.4154
 3148TIP3   OH230858   2.961   0.093  13.015 -0.1621 -0.3081 -0.8007
 3148TIP3    H130859   2.908   0.157  12.968  1.0518  0.0151 -1.7512
 3148TIP3    H230860   3.051   0.126  13.008  0.2348 -1.0906  0.3845
 3149TIP3   OH230861   5.918   2.911  12.621  0.6043  0.0798 -0.4013
 3149TIP3    H130862   5.876   2.831  12.588 -0.4155  0.5704 -0.2940
 3149TIP3    H230863   6.001   2.880  12.658  0.4199 -0.8721 -0.7615
 3150TIP3   OH230864   3.374   6.924  14.813  1.2425  0.2446 -0.0523
 3150TIP3    H130865   3.409   6.992  14.871  1.4532 -0.2881  0.4543
 3150TIP3    H230866   3.442   6.857  14.811  0.2631 -0.8037  0.9357
 3151TIP3   OH230867   0.811   1.364  12.018 -0.3728  0.9026 -0.2909
 3151TIP3    H130868   0.787   1.351  11.927  2.1255  1.1491 -1.0310
 3151TIP3    H230869   0.778   1.286  12.064  0.0362 -0.1213 -1.7303
 3152TIP3   OH230870   1.367   0.241  10.934 -0.1258  0.5167  0.5632
 3152TIP3    H130871   1.358   0.146  10.942 -2.0683  0.6872  0.4595
 3152TIP3    H230872   1.422   0.253  10.857 -0.0315 -0.5083  0.4649
 3153TIP3   OH230873   2.484   5.635  14.010  0.4122  0.0624 -0.1868
 3153TIP3    H130874   2.508   5.727  14.004  0.1445  0.1825  0.5134
 3153TIP3    H230875   2.451   5.625  14.099  2.1054 -1.0941  0.3492
 3154TIP3   OH230876   0.723   0.274  10.086  0.0139 -0.6516 -0.0082
 3154TIP3    H130877   0.693   0.189  10.119  0.5761 -0.8209  0.0719
 3154TIP3    H230878   0.773   0.252  10.007 -0.0101 -0.3787 -0.0985
 3155TIP3   OH230879   6.429   2.041  12.561  0.0539 -0.8710  0.4412
 3155TIP3    H130880   6.336   2.052  12.539  0.0501 -0.3792  0.6953
 3155TIP3    H230881   6.444   1.947  12.554 -0.5236 -0.9825  0.6353
 3156TIP3   OH230882   4.152   1.089  11.382  0.0622 -0.0429  0.0719
 3156TIP3    H130883   4.158   0.996  11.402 -2.8688 -0.0062  1.2568
 3156TIP3    H230884   4.162   1.132  11.467 -0.8338  0.6216 -0.1535
 3157TIP3   OH230885   2.986   2.414  13.272 -0.0840 -0.0664 -0.2795
 3157TIP3    H130886   3.036   2.376  13.199 -0.0159 -1.0452  0.2753
 3157TIP3    H230887   3.041   2.401  13.349 -0.8152 -0.3984  0.1967
 3158TIP3   OH230888   2.011   0.904  10.711  0.2038 -0.5060 -0.4678
 3158TIP3    H130889   1.939   0.868  10.763 -2.6468  1.9243 -2.5191
 3158TIP3    H230890   2.061   0.957  10.772 -1.4965  0.0977  0.4359
 3159TIP3   OH230891   5.012   4.898  13.277 -0.0975 -0.0840  0.0979
 3159TIP3    H130892   5.008   4.806  13.305 -0.1542  0.0854  0.6475
 3159TIP3    H230893   4.961   4.900  13.196  1.0748 -0.8167 -0.6808
 3160TIP3   OH230894   7.004   0.221  11.609  0.0774  0.2319  0.3176
 3160TIP3    H130895   7.075   0.189  11.554 -0.1873  0.7912 -0.3717
 3160TIP3    H230896   7.045   0.286  11.667  0.1594  0.4493  0.0182
 3161TIP3   OH230897   2.824   1.720  11.391 -0.0363  0.0305 -0.1598
 3161TIP3    H130898   2.805   1.814  11.382  0.6294  0.2255  0.4006
 3161TIP3    H230899   2.890   1.703  11.324 -0.4568 -0.1217 -0.5310
 3162TIP3   OH230900   1.254   2.781  12.147  0.3723 -0.0009 -0.1938
 3162TIP3    H130901   1.178   2.810  12.098  0.5707  0.5040 -0.2063
 3162TIP3    H230902   1.306   2.730  12.084  0.0557 -0.3317 -0.1881
 3163TIP3   OH230903   2.000   0.325  12.371 -0.3980 -0.3277  0.0625
 3163TIP3    H130904   1.976   0.413  12.400 -0.5741 -0.3036 -0.1583
 3163TIP3    H230905   2.093   0.317  12.394  0.2327  0.7674 -2.0098
 3164TIP3   OH230906   0.825   5.615  13.910  0.0193  0.0313 -0.0163
 3164TIP3    H130907   0.734   5.617  13.940  0.0123 -1.6438  0.1017
 3164TIP3    H230908   0.877   5.624  13.990 -0.0334  0.1699  0.0022
 3165TIP3   OH230909   4.647   1.350  14.466  0.5517 -0.1474 -0.2750
 3165TIP3    H130910   4.734   1.311  14.463  0.7195  0.0960  0.9122
 3165TIP3    H230911   4.652   1.413  14.538 -0.1942  0.8822 -1.1058
 3166TIP3   OH230912   5.188   4.725  12.740  0.0382  0.0837  0.1326
 3166TIP3    H130913   5.196   4.766  12.653 -3.5581  1.2729  0.2630
 3166TIP3    H230914   5.243   4.779  12.797 -0.0965  1.2608 -0.8163
 3167TIP3   OH230915   3.019   6.272  13.894  0.4599 -0.3372  0.6728
 3167TIP3    H130916   3.054   6.308  13.813 -1.0018 -1.2730 -0.3939
 3167TIP3    H230917   3.068   6.191  13.908 -0.5649 -1.1307 -0.2824
 3168TIP3   OH230918   0.387   1.441  13.349  0.5512 -0.1817  0.8353
 3168TIP3    H130919   0.353   1.413  13.434  0.3099 -1.3227  0.3665
 3168TIP3    H230920   0.341   1.523  13.332  0.3732 -0.0970  1.6599
 3169TIP3   OH230921   2.190   6.430  12.360  0.4935 -0.2488  0.6306
 3169TIP3    H130922   2.136   6.471  12.293  2.4749 -1.0756 -1.5896
 3169TIP3    H230923   2.272   6.479  12.357  0.7711 -0.6165  2.1077
 3170TIP3   OH230924   3.242   0.394  11.651  0.3232 -0.2231 -0.2012
 3170TIP3    H130925   3.300   0.318  11.638  0.1796 -0.0843 -1.7606
 3170TIP3    H230926   3.299   0.470  11.637  0.0495 -0.0732 -0.5215
 3171TIP3   OH230927   4.411   6.893  13.082 -0.1998 -0.7855 -0.2768
 3171TIP3    H130928   4.484   6.855  13.034  1.1675 -1.0727  1.9895
 3171TIP3    H230929   4.344   6.824  13.083  0.0621 -1.0500 -1.0845
 3172TIP3   OH230930   6.656   5.064  12.564  0.3195 -0.3041 -0.1970
 3172TIP3    H130931   6.719   5.086  12.495  0.0409 -0.8133 -0.6190
 3172TIP3    H230932   6.657   5.139  12.622  1.5554 -0.4443 -0.0294
 3173TIP3   OH230933   2.476   3.942  10.819 -0.2323  0.0091  0.0312
 3173TIP3    H130934   2.407   3.947  10.752 -0.1297  2.2980  0.0595
 3173TIP3    H230935   2.503   4.033  10.832  2.0286 -0.7539  0.8338
 3174TIP3   OH230936   0.679   0.708  10.092 -0.6826  0.1082  0.1829
 3174TIP3    H130937   0.615   0.689  10.024  0.6738 -0.2775 -1.0077
 3174TIP3    H230938   0.640   0.674  10.172 -1.5033 -1.0804 -0.7055
 3175TIP3   OH230939   1.853   3.861  10.690  0.0805 -0.0668  0.0742
 3175TIP3    H130940   1.850   3.953  10.663  1.5680  0.4099  1.4726
 3175TIP3    H230941   1.885   3.815  10.612 -2.8118  0.2647 -1.3698
 3176TIP3   OH230942   1.479   3.362  13.467  0.2421 -0.4892 -0.6059
 3176TIP3    H130943   1.521   3.408  13.540 -0.3096  0.9743 -1.1918
 3176TIP3    H230944   1.536   3.287  13.450  1.9194  0.7470 -0.5549
 3177TIP3   OH230945   5.572   1.158  11.737 -0.0545 -0.2258 -0.5862
 3177TIP3    H130946   5.560   1.095  11.666 -0.4460 -0.8539  0.0329
 3177TIP3    H230947   5.657   1.137  11.775  0.0283 -0.0720 -0.6851
 3178TIP3   OH230948   0.693   6.586  13.590 -0.1311 -0.3321  0.3568
 3178TIP3    H130949   0.732   6.583  13.678  1.0608 -0.1736 -0.1607
 3178TIP3    H230950   0.736   6.660  13.548  0.0557 -1.0519 -0.7217
 3179TIP3   OH230951   2.996   3.915  12.975  0.2250 -0.5555 -0.0273
 3179TIP3    H130952   3.017   3.988  13.033  1.1433 -0.2003 -0.7999
 3179TIP3    H230953   2.900   3.916  12.969  0.1415 -0.3969  1.2167
 3180TIP3   OH230954   3.754   2.537  10.605  0.4354  0.2091 -0.4679
 3180TIP3    H130955   3.824   2.482  10.568  1.4714  0.3326  1.2431
 3180TIP3    H230956   3.676   2.482  10.603  1.2351 -0.9636  0.2841
 3181TIP3   OH230957   1.214   0.020  11.003 -0.8684 -0.0854  0.3516
 3181TIP3    H130958   1.200  -0.055  10.945  0.4328 -2.0312  2.4574
 3181TIP3    H230959   1.128   0.038  11.041 -1.3861  0.1349 -0.9265
 3182TIP3   OH230960   3.682   0.999  11.268  0.8183  0.3599  0.1335
 3182TIP3    H130961   3.750   1.065  11.282  1.9823 -0.6625 -0.5750
 3182TIP3    H230962   3.665   1.001  11.174  1.2119 -0.6706  0.0292
 3183TIP3   OH230963   6.750   0.760  14.969 -0.5596 -0.2999 -0.1745
 3183TIP3    H130964   6.780   0.692  14.908  0.4577  0.7486 -0.8565
 3183TIP3    H230965   6.660   0.778  14.942 -0.8202 -1.3523 -0.0131
 3184TIP3   OH230966   3.367   2.356   1.217  0.0393 -0.2029 -0.4766
 3184TIP3    H130967   3.356   2.437   1.168  0.8462  0.2093  0.0185
 3184TIP3    H230968   3.442   2.313   1.176  1.1200  0.4422  0.7716
 3185TIP3   OH230969   1.672   2.818  11.702  0.1281 -0.3078 -0.2702
 3185TIP3    H130970   1.665   2.806  11.796  2.1662  1.4836  0.1495
 3185TIP3    H230971   1.746   2.762  11.676 -1.9981 -2.7567 -1.2432
 3186TIP3   OH230972   5.700   2.118  11.667 -0.3013  0.0539 -0.3948
 3186TIP3    H130973   5.785   2.116  11.712 -0.4363 -0.3213 -0.1538
 3186TIP3    H230974   5.673   2.026  11.664 -0.0237  0.0012 -1.7514
 3187TIP3   OH230975   1.012   0.077  13.671  0.5065  0.4112  0.1230
 3187TIP3    H130976   1.072   0.015  13.629  0.5170 -0.6188  1.5945
 3187TIP3    H230977   0.996   0.039  13.757 -2.0168  0.8485 -0.1233
 3188TIP3   OH230978   6.019   0.875  10.895  0.4238  0.3077  0.1624
 3188TIP3    H130979   6.087   0.856  10.830  1.1132 -0.0512  0.9852
 3188TIP3    H230980   6.035   0.966  10.920 -0.4358  0.7561 -0.8646
 3189TIP3   OH230981   2.980   5.865  10.571  0.2442 -0.0471  0.5495
 3189TIP3    H130982   2.986   5.960  10.563  1.3746 -0.0060  1.7012
 3189TIP3    H230983   3.009   5.847  10.660 -0.3645 -1.4445  0.4752
 3190TIP3   OH230984   4.987   3.482  11.935 -0.3257  0.0439  0.0867
 3190TIP3    H130985   4.973   3.444  12.022  0.5431 -1.0054 -0.2198
 3190TIP3    H230986   4.924   3.438  11.879  0.5503 -0.8132 -0.2304
 3191TIP3   OH230987   1.652   2.849  13.801  0.3894 -0.4174  0.0125
 3191TIP3    H130988   1.689   2.842  13.713 -0.5929  1.7203 -0.6246
 3191TIP3    H230989   1.701   2.786  13.853  2.6478 -0.0265 -1.5389
 3192TIP3   OH230990   1.100   1.479   9.584  0.1484  0.1050  0.2365
 3192TIP3    H130991   1.138   1.412   9.527  0.4107 -0.4278  1.0309
 3192TIP3    H230992   1.021   1.439   9.619 -0.3381  0.6557 -0.2207
 3193TIP3   OH230993   1.201   4.833  14.201  0.1177 -0.1299 -0.0941
 3193TIP3    H130994   1.226   4.818  14.110  0.4175  1.7170 -0.3274
 3193TIP3    H230995   1.275   4.879  14.240 -1.4005  2.2413  0.1270
 3194TIP3   OH230996   7.066   5.498  12.089 -0.2231 -0.2823 -0.3620
 3194TIP3    H130997   6.990   5.447  12.060 -0.3821  0.3336 -1.0376
 3194TIP3    H230998   7.030   5.583  12.113  0.1442 -0.2521  0.0881
 3195TIP3   OH230999   5.916   6.512  10.245  0.7270 -0.1230 -0.6809
 3195TIP3    H131000   5.879   6.588  10.289  1.3036 -0.6213  0.6842
 3195TIP3    H231001   5.862   6.501  10.166 -0.4755  0.6079  0.0275
 3196TIP3   OH231002   1.881   2.642  13.453 -0.0448  0.0937 -0.8527
 3196TIP3    H131003   1.976   2.645  13.465 -0.1368  1.7223 -0.4413
 3196TIP3    H231004   1.848   2.602  13.534  0.2531 -0.0160 -0.7868
 3197TIP3   OH231005   2.293   6.934  10.138 -0.2843 -0.2834 -0.7537
 3197TIP3    H131006   2.302   6.839  10.126  0.6828 -0.2904  0.0044
 3197TIP3    H231007   2.272   6.967  10.050  0.4936 -1.0641 -1.2409
 3198TIP3   OH231008   1.433   7.035  10.961 -0.4055  0.2928  0.9842
 3198TIP3    H131009   1.367   7.037  11.030 -0.3804  1.9966  0.9810
 3198TIP3    H231010   1.387   7.062  10.882  0.3928  2.0444  1.0911
 3199TIP3   OH231011   4.038   7.075  11.334 -0.8610 -0.6502 -0.3364
 3199TIP3    H131012   4.019   7.026  11.415  0.4756 -0.9715 -0.2007
 3199TIP3    H231013   4.043   7.166  11.362  1.9160 -0.9593  0.4358
 3200TIP3   OH231014   6.305   7.034  10.662  0.3834 -0.1854  0.2294
 3200TIP3    H131015   6.251   6.960  10.689  0.9151 -0.8508 -0.4944
 3200TIP3    H231016   6.272   7.056  10.575  2.8666 -2.1992 -1.2936
 3201TIP3   OH231017   0.506   5.278  12.274 -0.5457 -0.4330 -0.3101
 3201TIP3    H131018   0.427   5.227  12.257  0.1127 -1.0363 -1.6204
 3201TIP3    H231019   0.555   5.275  12.192 -0.2152  1.8257 -0.2231
 3202TIP3   OH231020   1.818   6.886  11.124  0.2157 -0.0839 -0.2853
 3202TIP3    H131021   1.791   6.830  11.051  0.7417  0.2378 -0.7283
 3202TIP3    H231022   1.903   6.921  11.097 -0.9154  2.3279 -0.7941
 3203TIP3   OH231023   3.853   3.125   0.488  0.5340 -0.4515 -0.2691
 3203TIP3    H131024   3.881   3.212   0.459  0.2885 -0.3791 -0.2902
 3203TIP3    H231025   3.758   3.126   0.479  0.4479 -0.4001  0.6260
 3204TIP3   OH231026   6.601   4.555   0.991  0.5797 -0.6287 -0.3827
 3204TIP3    H131027   6.658   4.603   0.931  1.1790 -0.0676  0.6271
 3204TIP3    H231028   6.512   4.578   0.963  0.8631  0.8081 -0.1175
 3205TIP3   OH231029   0.791   1.167  12.902  0.2941  0.4142  0.2766
 3205TIP3    H131030   0.850   1.147  12.974  1.1597  2.1945  0.0682
 3205TIP3    H231031   0.758   1.254  12.922 -1.5071 -0.1557 -0.1296
 3206TIP3   OH231032   0.482   7.162  13.027 -0.1930 -0.1494 -0.0227
 3206TIP3    H131033   0.503   7.249  12.993 -1.6766  0.2068 -0.0473
 3206TIP3    H231034   0.411   7.131  12.971  1.2698 -1.9877 -0.9330
 3207TIP3   OH231035   6.039   1.847  11.689 -0.3161 -0.1815 -0.0267
 3207TIP3    H131036   5.985   1.772  11.712  0.2690 -0.9374 -1.0390
 3207TIP3    H231037   6.000   1.881  11.609 -2.2310  2.3053  1.8991
 3208TIP3   OH231038   5.646   0.821  12.579 -0.2651 -0.6954  0.0450
 3208TIP3    H131039   5.741   0.828  12.572 -0.1976 -0.8989  0.6673
 3208TIP3    H231040   5.622   0.752  12.518 -0.1111 -0.0561 -0.7441
 3209TIP3   OH231041   7.039   0.513  13.278 -0.6158  1.1116  0.1871
 3209TIP3    H131042   7.110   0.526  13.340  0.3688 -1.8448 -0.2065
 3209TIP3    H231043   7.051   0.423  13.247 -3.2980  1.2612 -1.4651
 3210TIP3   OH231044   7.111   4.872  14.185 -0.2064 -0.4650  0.1302
 3210TIP3    H131045   7.183   4.889  14.246 -1.3234  0.4303  1.2274
 3210TIP3    H231046   7.100   4.953  14.137  0.7707 -1.2214 -1.3821
 3211TIP3   OH231047   3.494   4.335  11.497  0.5179  0.3058  0.4420
 3211TIP3    H131048   3.524   4.342  11.407  1.8290  0.8979  0.9209
 3211TIP3    H231049   3.539   4.258  11.532 -1.2625 -0.9309  0.1168
 3212TIP3   OH231050   2.744   2.290  13.517  0.0589  0.9333 -0.4139
 3212TIP3    H131051   2.814   2.231  13.544  1.5344  1.9927 -1.8655
 3212TIP3    H231052   2.673   2.274  13.580  1.0344 -1.2156  0.1685
 3213TIP3   OH231053   1.770   0.094  10.696 -0.1390 -0.1362 -0.3775
 3213TIP3    H131054   1.716   0.073  10.773  0.2033 -1.2734 -0.4331
 3213TIP3    H231055   1.831   0.160  10.727  0.1652 -0.7758  0.4113
 3214TIP3   OH231056   4.601   2.624  11.465  0.5063  0.1270  0.2462
 3214TIP3    H131057   4.666   2.679  11.421  0.4744  0.3892  0.5215
 3214TIP3    H231058   4.517   2.662  11.439  0.5145  1.0236  1.4757
 3215TIP3   OH231059   2.539   0.697  14.654 -0.6058 -0.1817  0.5262
 3215TIP3    H131060   2.626   0.737  14.661 -0.8125  0.8736 -2.2624
 3215TIP3    H231061   2.478   0.771  14.656 -1.3561 -0.8002  0.8936
 3216TIP3   OH231062   2.348   6.957  11.016 -0.1314 -0.2804  0.0557
 3216TIP3    H131063   2.369   6.915  11.099  1.0211 -2.3710 -1.2433
 3216TIP3    H231064   2.366   7.050  11.031  0.8609 -0.7447  1.8920
 3217TIP3   OH231065   4.440   1.165  11.061  0.7225 -0.0635 -0.8906
 3217TIP3    H131066   4.454   1.072  11.050  1.0218 -0.0363 -0.7337
 3217TIP3    H231067   4.527   1.204  11.057  0.5255  0.2992 -1.8133
 3218TIP3   OH231068   3.177   6.326  11.545  0.5984  0.1251 -0.5544
 3218TIP3    H131069   3.125   6.274  11.484  1.6062 -0.1959 -1.1604
 3218TIP3    H231070   3.124   6.404  11.563 -0.1488 -0.2764 -1.0278
 3219TIP3   OH231071   5.858   1.833  12.321  0.7406  0.3112 -0.1781
 3219TIP3    H131072   5.822   1.811  12.407 -0.2189 -1.9300 -1.0878
 3219TIP3    H231073   5.824   1.920  12.301 -1.2497 -0.2687  0.5709
 3220TIP3   OH231074   2.243   3.476  13.501 -0.2973  0.0147 -0.1575
 3220TIP3    H131075   2.301   3.462  13.426  1.0204 -1.3943  1.0997
 3220TIP3    H231076   2.279   3.552  13.546  0.2797 -0.5353  0.3212
 3221TIP3   OH231077   3.219   3.194  10.181 -0.0152  0.5046  0.0867
 3221TIP3    H131078   3.313   3.196  10.166  0.1014  0.1818  0.7572
 3221TIP3    H231079   3.181   3.223  10.098  0.6816  1.0872 -0.0328
 3222TIP3   OH231080   7.022   3.343  11.884 -0.2543  0.5783  0.6623
 3222TIP3    H131081   6.959   3.375  11.948  1.3153 -0.9432  3.0749
 3222TIP3    H231082   6.969   3.303  11.815 -1.9700  2.1285  1.0685
 3223TIP3   OH231083   5.905   1.215   9.730  0.1875 -0.2312  0.1793
 3223TIP3    H131084   5.815   1.236   9.754  0.0775 -0.8079  0.2766
 3223TIP3    H231085   5.911   1.237   9.637 -0.6174 -1.9937 -0.3222
 3224TIP3   OH231086   2.508   1.694  10.249  0.1129 -0.1723 -0.0891
 3224TIP3    H131087   2.576   1.717  10.186 -0.3111 -0.9481 -0.8330
 3224TIP3    H231088   2.548   1.629  10.306  0.1320 -0.3113 -0.2623
 3225TIP3   OH231089   1.172   5.391  13.134 -0.0183  0.7447 -0.1011
 3225TIP3    H131090   1.157   5.303  13.100 -1.3082  0.7194  0.4979
 3225TIP3    H231091   1.151   5.385  13.227  3.4212  0.8339  0.7480
 3226TIP3   OH231092   2.738   4.910  11.165 -0.0848  0.1994  0.3962
 3226TIP3    H131093   2.760   5.002  11.175  0.4496  0.1333 -0.1880
 3226TIP3    H231094   2.646   4.910  11.137  0.5286  0.6443 -1.7056
 3227TIP3   OH231095   1.236   6.746  11.168 -0.2612  0.2827  0.2325
 3227TIP3    H131096   1.267   6.816  11.226  3.3144 -0.6258 -0.4450
 3227TIP3    H231097   1.218   6.790  11.085  0.4654  0.6671  0.2716
 3228TIP3   OH231098   5.400   0.625  10.946 -0.1336 -0.1189  0.4259
 3228TIP3    H131099   5.317   0.602  10.986  0.3129  0.7847  1.9357
 3228TIP3    H231100   5.442   0.541  10.926 -0.0112 -0.6191  2.6557
 3229TIP3   OH231101   0.902   6.847  13.180  0.2272 -0.2544  0.4606
 3229TIP3    H131102   0.997   6.858  13.188  0.4028  0.1386 -1.7687
 3229TIP3    H231103   0.873   6.925  13.132 -0.5976 -2.3176 -2.5522
 3230TIP3   OH231104   0.949   1.660  10.200 -0.2023 -0.0188  0.1227
 3230TIP3    H131105   0.973   1.600  10.129  1.1624 -0.4148  0.8842
 3230TIP3    H231106   0.871   1.621  10.239  1.3760 -2.0384  1.4012
 3231TIP3   OH231107   0.220   4.058  12.372 -0.4399 -0.0817  0.1490
 3231TIP3    H131108   0.185   4.013  12.295 -1.0284 -2.3272  1.6781
 3231TIP3    H231109   0.312   4.030  12.376 -0.6215 -0.6076  0.7068
 3232TIP3   OH231110   5.456   6.159  11.971  0.7489 -0.2173 -0.0658
 3232TIP3    H131111   5.482   6.067  11.978  0.1834 -0.3332  0.6516
 3232TIP3    H231112   5.383   6.167  12.032  0.3847  0.5627 -0.6054
 3233TIP3   OH231113   4.325   3.407  14.094 -0.1254  0.1129 -0.3346
 3233TIP3    H131114   4.401   3.459  14.067  0.4958 -0.4249  0.3635
 3233TIP3    H231115   4.270   3.402  14.016 -1.2363  3.6257  0.1249
 3234TIP3   OH231116   2.604   3.159  13.513 -0.2136 -0.5298 -0.4724
 3234TIP3    H131117   2.539   3.103  13.471 -0.2246  0.2667 -1.5403
 3234TIP3    H231118   2.553   3.226  13.558 -0.1438  0.4926 -1.8690
 3235TIP3   OH231119   0.740   2.303  10.957 -0.5466 -0.5327 -0.3945
 3235TIP3    H131120   0.683   2.306  10.881  0.3571  0.2684 -1.0579
 3235TIP3    H231121   0.820   2.260  10.926  0.7463  1.8527 -0.5826
 3236TIP3   OH231122   2.004   6.810  10.398  0.0053  0.1238 -0.7481
 3236TIP3    H131123   1.963   6.772  10.476 -0.2229  2.5062  0.3451
 3236TIP3    H231124   1.933   6.814  10.333  0.2931 -2.2339 -1.2397
 3237TIP3   OH231125   1.517   6.411  12.732  0.2758  0.6189 -0.3004
 3237TIP3    H131126   1.600   6.440  12.768  0.9450 -1.1852 -0.3517
 3237TIP3    H231127   1.530   6.411  12.637 -0.3071  1.8514 -0.3937
 3238TIP3   OH231128   3.236   6.751  13.003 -0.1397  0.1643  0.2444
 3238TIP3    H131129   3.263   6.813  13.070 -0.0104 -0.3052  0.6280
 3238TIP3    H231130   3.140   6.751  13.007 -0.1386  0.3034  0.2714
 3239TIP3   OH231131   2.155   0.281  13.409 -0.0660  0.2231 -0.5937
 3239TIP3    H131132   2.064   0.310  13.415  0.2761  1.6332 -2.0405
 3239TIP3    H231133   2.183   0.305  13.321  1.7711 -0.0251 -0.1103
 3240TIP3   OH231134   3.968   5.919  11.111  0.6335  0.2207 -0.2425
 3240TIP3    H131135   3.985   5.955  11.024  0.6855  1.1116  0.1306
 3240TIP3    H231136   3.960   5.825  11.097 -2.0500  0.6031 -1.6322
 3241TIP3   OH231137   5.947   2.918   9.453 -0.1431 -0.5505  0.4429
 3241TIP3    H131138   5.935   2.823   9.457  1.4182 -0.7386  1.1466
 3241TIP3    H231139   6.031   2.930   9.407 -1.3372  0.5724 -1.5429
 3242TIP3   OH231140   0.267   6.214  10.914 -0.4493  0.2995 -0.2651
 3242TIP3    H131141   0.347   6.217  10.965  0.4765  1.6918 -1.7677
 3242TIP3    H231142   0.197   6.204  10.979  0.8110  0.6444  1.1510
 3243TIP3   OH231143   0.868   3.179  10.930 -0.4037 -0.3416 -0.7274
 3243TIP3    H131144   0.886   3.088  10.908  0.8627 -0.5081  0.8782
 3243TIP3    H231145   0.807   3.174  11.004  0.8251  0.0676  0.3348
 3244TIP3   OH231146   1.696   6.151  10.177  0.4394 -0.2637 -0.8230
 3244TIP3    H131147   1.617   6.097  10.181 -1.2017  2.0278 -0.9722
 3244TIP3    H231148   1.734   6.146  10.265  0.1184 -1.3667 -0.7473
 3245TIP3   OH231149   0.791   1.877  11.816  0.2008  0.3080  0.4288
 3245TIP3    H131150   0.881   1.893  11.788  0.3787  0.1874  0.9217
 3245TIP3    H231151   0.752   1.965  11.823  0.1978  0.3452 -0.0474
 3246TIP3   OH231152   1.564   6.710  11.984  0.3881  0.5091 -0.3346
 3246TIP3    H131153   1.631   6.643  11.998  0.2345  0.2101 -0.9602
 3246TIP3    H231154   1.481   6.665  12.002  0.4527  1.5518  2.8940
 3247TIP3   OH231155   4.433   2.724  10.103  0.4710  0.0762 -0.0781
 3247TIP3    H131156   4.411   2.656  10.166 -2.0288 -0.3626 -1.3538
 3247TIP3    H231157   4.455   2.677  10.023 -0.2767  0.7226 -0.6728
 3248TIP3   OH231158   2.969   1.452   9.732 -0.1306 -0.5480 -0.8480
 3248TIP3    H131159   3.004   1.468   9.819  0.3334 -1.6167 -0.8329
 3248TIP3    H231160   2.923   1.533   9.710 -1.7938 -0.9223  1.1175
 3249TIP3   OH231161   1.057   6.050   1.212  0.2267 -0.5402  0.1770
 3249TIP3    H131162   0.998   6.108   1.164 -0.0441 -0.3721  0.7076
 3249TIP3    H231163   1.011   5.965   1.212  0.1710 -0.5108  0.2407
 3250TIP3   OH231164   6.570   2.725  15.205 -0.1352  0.6647  0.3060
 3250TIP3    H131165   6.652   2.714  15.157  0.2046  0.3527  0.9488
 3250TIP3    H231166   6.560   2.819  15.215  1.3868  0.6368  2.3333
 3251TIP3   OH231167   1.045   2.918  10.038  0.6733  0.2971 -0.2754
 3251TIP3    H131168   1.129   2.886  10.005  1.3354  2.7215 -1.0088
 3251TIP3    H231169   1.067   2.988  10.098 -0.7747 -0.2565  0.9382
 3252TIP3   OH231170   1.531   3.913  10.275 -0.3164  0.1610 -0.6857
 3252TIP3    H131171   1.566   3.993  10.314 -1.1300  0.0348  0.3445
 3252TIP3    H231172   1.541   3.925  10.181 -0.5401  1.5332 -0.5473
 3253TIP3   OH231173   5.380   3.115  13.496 -0.7604 -0.0553 -0.1969
 3253TIP3    H131174   5.322   3.098  13.570 -0.4245 -0.5102 -0.0389
 3253TIP3    H231175   5.357   3.203  13.467 -1.4191 -0.1692 -0.0272
 3254TIP3   OH231176   6.718   0.869  10.848 -0.5189  0.1912 -0.6076
 3254TIP3    H131177   6.727   0.927  10.773  1.7126  0.7289  0.0347
 3254TIP3    H231178   6.766   0.790  10.823  1.7151  1.0239  0.8517
 3255TIP3   OH231179   6.230   2.332  11.417  0.3237 -0.1570 -0.1469
 3255TIP3    H131180   6.258   2.402  11.477  0.5803 -0.8982  0.6182
 3255TIP3    H231181   6.146   2.362  11.383 -0.1042  0.0154  1.0392
 3256TIP3   OH231182   0.406   1.038  12.558  0.2643  0.1384  0.3796
 3256TIP3    H131183   0.349   1.053  12.633 -2.1558  0.6554 -1.4834
 3256TIP3    H231184   0.365   0.966  12.510  2.1648 -0.6707 -0.0704
 3257TIP3   OH231185   6.130   2.709  11.581  0.0822  0.0538  0.0328
 3257TIP3    H131186   6.184   2.775  11.536  0.2386 -0.6380 -0.8108
 3257TIP3    H231187   6.042   2.724  11.546 -0.5434  2.0053  2.3374
 3258TIP3   OH231188   5.929   6.519  11.741 -0.0381  0.1522  0.0474
 3258TIP3    H131189   5.981   6.598  11.752 -1.7810  1.0474  2.2692
 3258TIP3    H231190   5.856   6.546  11.685 -1.2561  0.4588  1.7411
 3259TIP3   OH231191   4.098   0.236  14.294 -0.9114 -0.3161 -0.2874
 3259TIP3    H131192   4.070   0.235  14.386 -0.4810  3.3867 -0.0263
 3259TIP3    H231193   4.183   0.192  14.295 -1.1060 -0.6976  1.0028
 3260TIP3   OH231194   4.914   5.381  10.917  0.1159  0.0074  0.2441
 3260TIP3    H131195   5.010   5.377  10.912  0.1319  0.2828  0.3308
 3260TIP3    H231196   4.890   5.447  10.852 -0.1195 -1.1719 -0.8818
 3261TIP3   OH231197   1.540   1.519  13.601 -0.1702 -0.3191  0.0601
 3261TIP3    H131198   1.476   1.464  13.646 -0.5572  2.4567  3.0974
 3261TIP3    H231199   1.498   1.542  13.518 -2.2654 -0.1946  1.1283
 3262TIP3   OH231200   3.192   0.231  13.701  0.2367 -0.0620 -0.6223
 3262TIP3    H131201   3.198   0.308  13.645  0.8236  1.5532  1.5973
 3262TIP3    H231202   3.264   0.241  13.763 -3.5566  1.0896  3.8709
 3263TIP3   OH231203   6.333   2.115  10.179  0.7887  0.2327  0.2751
 3263TIP3    H131204   6.325   2.210  10.185  0.9287  0.2665 -0.0696
 3263TIP3    H231205   6.269   2.090  10.112 -0.3037 -0.0696  1.4278
 3264TIP3   OH231206   6.091   1.090   0.785 -0.8078 -0.0708  0.3154
 3264TIP3    H131207   6.119   1.012   0.833  0.5307  0.7033  0.8119
 3264TIP3    H231208   6.052   1.055   0.704 -1.8058 -1.3176  1.3054
 3265TIP3   OH231209   3.274   1.083   1.255 -0.2885  0.3247 -0.4425
 3265TIP3    H131210   3.204   1.094   1.319 -1.0143 -0.1051 -1.1352
 3265TIP3    H231211   3.354   1.110   1.300 -0.6271 -0.9886  0.9825
 3266TIP3   OH231212   3.203   4.118   0.248 -0.1595  0.5680  0.1101
 3266TIP3    H131213   3.291   4.121   0.211 -0.3991  0.1846 -0.5106
 3266TIP3    H231214   3.199   4.034   0.294 -0.5674  0.0489 -0.8379
 3267TIP3   OH231215   1.911   6.568  13.218  0.1391 -0.2219 -0.3429
 3267TIP3    H131216   1.872   6.640  13.268 -3.3219 -2.0582 -0.2135
 3267TIP3    H231217   1.938   6.608  13.135 -0.0321  1.5670  0.4428
 3268TIP3   OH231218   2.487   1.501  12.697 -0.1871  0.0399 -0.7055
 3268TIP3    H131219   2.578   1.490  12.672 -0.6177  1.0229 -2.8245
 3268TIP3    H231220   2.482   1.465  12.785  2.0847 -0.6854 -0.8339
 3269TIP3   OH231221   7.086   1.468  15.051  0.0787 -0.5126  0.2414
 3269TIP3    H131222   7.119   1.530  15.116  0.5942 -0.6226  0.0929
 3269TIP3    H231223   7.007   1.509  15.016  0.8601  0.4520 -0.4368
 3270TIP3   OH231224   3.930   1.096  12.205  0.0646  0.8357 -0.2406
 3270TIP3    H131225   3.849   1.085  12.156  0.6693  1.8993 -1.5121
 3270TIP3    H231226   3.995   1.122  12.140  1.3329  0.4469  0.8235
 3271TIP3   OH231227   0.602   1.144  11.332 -0.3221  0.2595 -0.3537
 3271TIP3    H131228   0.611   1.212  11.399 -1.2030  2.4442 -2.3833
 3271TIP3    H231229   0.675   1.160  11.272 -1.7455  0.7495 -1.9755
 3272TIP3   OH231230   1.486   1.542   9.892 -0.6513  0.0058  0.0800
 3272TIP3    H131231   1.434   1.535   9.812 -1.2375 -0.2678  0.4767
 3272TIP3    H231232   1.481   1.454   9.931 -0.8620  0.2889  0.7096
 3273TIP3   OH231233   1.906   0.303  10.818 -0.1681  1.0005 -0.2695
 3273TIP3    H131234   1.983   0.246  10.827 -0.9401  0.1139  0.8608
 3273TIP3    H231235   1.928   0.361  10.746  2.1305  1.6506  0.9028
 3274TIP3   OH231236   5.081   0.941  15.261 -0.4268  0.3901 -0.4154
 3274TIP3    H131237   5.099   0.847  15.270 -0.5892  0.2825 -1.1865
 3274TIP3    H231238   4.992   0.945  15.227 -0.2753  0.8138 -0.7617
 3275TIP3   OH231239   2.097   6.163  12.396 -0.1199  0.2463 -0.0512
 3275TIP3    H131240   2.006   6.180  12.372  0.0992  1.2991 -0.1937
 3275TIP3    H231241   2.136   6.251  12.402  0.5887 -0.1493  1.1414
 3276TIP3   OH231242   7.147   0.667  10.143  0.1584  0.0356  0.1980
 3276TIP3    H131243   7.212   0.633  10.205 -0.9788 -0.1775  1.2993
 3276TIP3    H231244   7.129   0.756  10.173 -0.1395  0.0525 -0.0255
 3277TIP3   OH231245   1.296   6.685  11.686  0.2168  0.0563 -0.3676
 3277TIP3    H131246   1.389   6.669  11.703  0.0936  0.2121  0.5164
 3277TIP3    H231247   1.252   6.659  11.767 -0.4118  0.8319 -0.4429
 3278TIP3   OH231248   5.324   3.853  14.296  0.6601 -0.3123  0.1209
 3278TIP3    H131249   5.231   3.871  14.303  0.8107 -0.3854  2.7954
 3278TIP3    H231250   5.329   3.763  14.262 -0.3197 -1.6676  3.4060
 3279TIP3   OH231251   4.403   4.982  14.506  0.0926  0.1702  0.2883
 3279TIP3    H131252   4.317   4.940  14.508 -0.5128  1.3708 -0.1954
 3279TIP3    H231253   4.390   5.066  14.550  0.7564  0.8519 -0.8062
 3280TIP3   OH231254   1.307   1.721  11.250 -0.2057 -0.1220  0.3734
 3280TIP3    H131255   1.391   1.758  11.279 -0.1229 -1.4771  1.8963
 3280TIP3    H231256   1.283   1.659  11.318 -2.6209  0.4641  0.1028
 3281TIP3   OH231257   4.625   3.060  10.280  0.3029  0.2853 -0.2647
 3281TIP3    H131258   4.650   3.095  10.195  0.5560 -0.4300 -0.4911
 3281TIP3    H231259   4.706   3.061  10.331  0.2781  0.1771 -0.2217
 3282TIP3   OH231260   1.825   6.065  10.506 -0.0220  0.3220  0.6039
 3282TIP3    H131261   1.764   6.128  10.543 -0.6017  0.2455 -0.1944
 3282TIP3    H231262   1.803   5.982  10.549  2.2680  1.0740  3.3627
 3283TIP3   OH231263   1.075   0.836  10.744  0.0215  0.1695  0.4305
 3283TIP3    H131264   1.021   0.760  10.769  0.1787  0.7126  2.5068
 3283TIP3    H231265   1.113   0.811  10.660 -0.4874 -1.7865  0.7444
 3284TIP3   OH231266   4.349   5.141  11.539  0.3287  0.1152 -0.3027
 3284TIP3    H131267   4.414   5.186  11.593  0.2526 -0.6558  0.4502
 3284TIP3    H231268   4.266   5.159  11.581  0.1925  0.1004 -0.5659
 3285TIP3   OH231269   0.790   1.218  14.996  0.4316  0.1279  0.0043
 3285TIP3    H131270   0.875   1.258  14.982  0.8845 -0.5550  0.7417
 3285TIP3    H231271   0.764   1.245  15.084 -0.2553  0.5842 -0.3319
 3286TIP3   OH231272   7.131   6.049  12.020 -0.2579  0.1067  0.2306
 3286TIP3    H131273   7.126   6.062  12.114  0.6702 -0.5439  0.3723
 3286TIP3    H231274   7.082   5.969  12.003 -1.6569  0.9907 -0.0288
 3287TIP3   OH231275   4.497   6.549   1.594  0.6290  0.2760  0.0238
 3287TIP3    H131276   4.434   6.481   1.618  0.3113  0.0420 -1.4422
 3287TIP3    H231277   4.502   6.605   1.671 -0.4651 -0.3934  0.5926
 3288TIP3   OH231278   2.695   4.861  13.555  0.1444 -0.5494 -0.5542
 3288TIP3    H131279   2.708   4.890  13.645  1.8922 -0.1238 -0.9273
 3288TIP3    H231280   2.675   4.941  13.506 -1.0718 -0.8172 -0.5009
 3289TIP3   OH231281   6.354   1.450  14.189  0.0461  0.0124 -0.1728
 3289TIP3    H131282   6.340   1.362  14.224 -0.7873 -0.6384 -2.0951
 3289TIP3    H231283   6.446   1.468  14.206 -0.6059  0.2839  3.5545
 3290TIP3   OH231284   6.872   4.172  14.429  0.1767  0.2024  0.8576
 3290TIP3    H131285   6.835   4.106  14.370  1.8783 -0.2098  0.2516
 3290TIP3    H231286   6.823   4.252  14.409 -0.0998 -0.2355 -0.2377
 3291TIP3   OH231287   4.560   0.333  14.738 -0.1712 -0.1452 -0.5533
 3291TIP3    H131288   4.552   0.283  14.819 -1.7045  3.2354  1.4912
 3291TIP3    H231289   4.509   0.284  14.673  0.0408 -2.2392  0.8445
 3292TIP3   OH231290   1.780   6.549  12.815 -0.1578  0.0794  0.1699
 3292TIP3    H131291   1.805   6.587  12.730 -1.4924  1.1160  0.2157
 3292TIP3    H231292   1.745   6.623  12.865  0.4034 -0.5713  1.5547
 3293TIP3   OH231293   2.065   1.255  11.003 -0.1703 -0.2597 -0.0948
 3293TIP3    H131294   2.009   1.294  10.936 -1.4046 -0.2423  0.9261
 3293TIP3    H231295   2.102   1.177  10.960 -0.4774  0.0704 -0.9790
 3294TIP3   OH231296   5.768   4.838  10.092  0.3268 -0.0471 -0.1563
 3294TIP3    H131297   5.811   4.874  10.169  0.7195 -0.1145 -0.3447
 3294TIP3    H231298   5.832   4.848  10.022  0.8839 -2.1943  0.0261
 3295TIP3   OH231299   3.326   0.806  13.328  0.2634  0.0998 -0.7455
 3295TIP3    H131300   3.331   0.749  13.405 -0.2842 -0.7102 -1.3022
 3295TIP3    H231301   3.327   0.895  13.364 -2.8356 -0.2516  0.4387
 3296TIP3   OH231302   6.035   6.233   9.760  0.4453 -0.2169 -0.9003
 3296TIP3    H131303   6.078   6.152   9.731 -0.0690 -0.4957 -0.9067
 3296TIP3    H231304   6.106   6.296   9.770  0.9357 -0.8531 -0.2760
 3297TIP3   OH231305   1.451   0.141  13.004  0.7539 -0.1956  0.2090
 3297TIP3    H131306   1.515   0.145  12.933  0.0729 -2.4377 -0.5799
 3297TIP3    H231307   1.404   0.059  12.989 -2.0015  1.1696  1.0405
 3298TIP3   OH231308   3.276   0.537  10.246  0.4927 -0.1585 -0.0381
 3298TIP3    H131309   3.278   0.532  10.151  0.8050  1.5216 -0.1338
 3298TIP3    H231310   3.353   0.590  10.269  1.0231 -1.4415  1.2118
 3299TIP3   OH231311   2.087   1.138  10.584  0.0651  0.1146  0.0565
 3299TIP3    H131312   2.070   1.113  10.494 -1.0594 -1.0041  0.5714
 3299TIP3    H231313   2.083   1.056  10.634  0.9734  0.6697  1.0865
 3300TIP3   OH231314   2.030   6.863  10.746 -1.0736 -0.7059 -0.3355
 3300TIP3    H131315   2.014   6.936  10.687 -0.8524 -0.1979  0.2309
 3300TIP3    H231316   2.103   6.815  10.706  0.1854  0.5786  0.3695
 3301TIP3   OH231317   4.466   0.067  10.142  0.3465  0.3043  0.0664
 3301TIP3    H131318   4.525   0.113  10.202  1.9430  1.0520 -2.0083
 3301TIP3    H231319   4.481   0.109  10.057 -3.0420  0.3507 -0.5630
 3302TIP3   OH231320   0.319   4.551   9.992 -0.1673  0.1907  0.5839
 3302TIP3    H131321   0.234   4.596   9.995  0.4061  1.2551  1.5832
 3302TIP3    H231322   0.335   4.526  10.083 -0.0150 -1.1669  0.1837
 3303TIP3   OH231323   0.567   0.982  14.503  0.0561  0.0986  0.4248
 3303TIP3    H131324   0.490   0.934  14.535 -1.2468  1.6298 -0.3367
 3303TIP3    H231325   0.609   1.015  14.582 -1.2713  1.0288  0.7708
 3304TIP3   OH231326   1.181   0.257  12.079  0.4111 -0.4000  0.4777
 3304TIP3    H131327   1.235   0.182  12.054 -0.0800 -0.6117  0.0534
 3304TIP3    H231328   1.172   0.308  11.998  2.0025  0.9114  1.1000
 3305TIP3   OH231329   0.729   5.716  11.209  0.2253  0.5021  0.8861
 3305TIP3    H131330   0.674   5.677  11.141 -1.8315 -0.6256  3.1268
 3305TIP3    H231331   0.695   5.804  11.221  0.5523  0.6818  0.5166
 3306TIP3   OH231332   6.827   0.472  10.973  0.0066 -0.4473 -0.7209
 3306TIP3    H131333   6.860   0.529  11.043 -0.4886 -0.9723 -0.0622
 3306TIP3    H231334   6.827   0.528  10.895  3.5842 -0.7527 -1.0149
 3307TIP3   OH231335   6.559   3.413  11.456  0.2948 -0.4071 -0.3867
 3307TIP3    H131336   6.482   3.413  11.512 -0.7945 -0.8236 -1.8714
 3307TIP3    H231337   6.630   3.443  11.513 -1.0751  0.5671  0.8301
 3308TIP3   OH231338   0.784   3.664  15.484 -0.1404  0.5330  0.0097
 3308TIP3    H131339   0.854   3.599  15.493 -1.1828 -0.4302  1.5422
 3308TIP3    H231340   0.807   3.733  15.547 -0.6577  0.1122  0.6711
 3309TIP3   OH231341   1.661   1.685  15.154 -0.6234 -0.3280 -0.0703
 3309TIP3    H131342   1.657   1.660  15.061  1.5678  1.3472 -0.6394
 3309TIP3    H231343   1.687   1.605  15.199 -0.1322 -0.7451 -1.0783
 3310TIP3   OH231344   5.119   1.177  11.469  0.4451  0.2911  0.2129
 3310TIP3    H131345   5.140   1.216  11.385 -1.2664  0.6453 -0.0793
 3310TIP3    H231346   5.161   1.233  11.534  0.0412  1.2023 -0.3131
 3311TIP3   OH231347   2.228   0.873  13.649 -0.0959  0.4021  0.2109
 3311TIP3    H131348   2.229   0.935  13.576 -1.8169 -1.9411 -1.8431
 3311TIP3    H231349   2.136   0.855  13.664  0.2046  0.8814  3.0813
 3312TIP3   OH231350   3.193   3.980  12.785 -0.3968  0.4389  0.0058
 3312TIP3    H131351   3.265   4.029  12.824 -0.8425  0.5833  0.6694
 3312TIP3    H231352   3.131   3.968  12.857 -1.3030  0.8308 -0.6891
 3313TIP3   OH231353   7.027   7.105  11.714  0.2082  0.0577  1.1030
 3313TIP3    H131354   7.121   7.117  11.708  0.1749  0.3086  1.0652
 3313TIP3    H231355   6.992   7.194  11.721  0.1053 -0.1129  2.9874
 3314TIP3   OH231356   5.853   5.874   3.536  0.1807 -0.5686  0.1318
 3314TIP3    H131357   5.813   5.958   3.512 -0.1855 -1.2238 -1.6350
 3314TIP3    H231358   5.782   5.827   3.581  0.0046 -0.4146  0.0194
 3315TIP3   OH231359   2.709   4.508  14.069 -0.2171  0.4598  0.7706
 3315TIP3    H131360   2.787   4.512  14.013 -2.0348  0.5229 -1.8407
 3315TIP3    H231361   2.656   4.583  14.041 -1.4957  0.0874  2.1340
 3316TIP3   OH231362   5.763   3.090   9.821  0.0083 -0.3486 -0.3155
 3316TIP3    H131363   5.808   3.162   9.776 -2.2010  0.9211 -0.5612
 3316TIP3    H231364   5.684   3.075   9.770  0.0584 -2.4609  0.1756
 3317TIP3   OH231365   4.635   0.148   0.789  0.4639 -0.3355 -0.2364
 3317TIP3    H131366   4.699   0.094   0.743 -1.3202 -1.5106 -1.4137
 3317TIP3    H231367   4.553   0.132   0.742 -0.7852  0.7569  1.5433
 3318TIP3   OH231368   1.569   1.844  12.143  0.5236  0.9729  0.6601
 3318TIP3    H131369   1.493   1.902  12.147  0.5122  1.0947 -0.9012
 3318TIP3    H231370   1.577   1.822  12.050  2.3234  0.8724  0.8280
 3319TIP3   OH231371   5.312   7.152  13.317  0.2474  0.2366 -0.0774
 3319TIP3    H131372   5.335   7.103  13.238 -1.2070 -1.1704  0.3422
 3319TIP3    H231373   5.245   7.214  13.288 -0.3748 -0.3632  0.0663
 3320TIP3   OH231374   4.923   0.388  11.968  0.0927  0.1986 -0.1546
 3320TIP3    H131375   4.908   0.348  11.882  0.3759 -0.3768  0.0617
 3320TIP3    H231376   4.872   0.469  11.966  1.9461  1.3675 -1.7145
 3321TIP3   OH231377   0.251   6.485  11.093  0.0731 -0.2310 -0.2707
 3321TIP3    H131378   0.345   6.479  11.110  0.1103 -0.6879 -0.6435
 3321TIP3    H231379   0.210   6.455  11.174  0.2486  0.1139 -0.0537
 3322TIP3   OH231380   2.110   1.425  11.222  0.0542 -0.0693 -0.2420
 3322TIP3    H131381   2.108   1.363  11.150  1.7212  2.6207 -2.7106
 3322TIP3    H231382   2.202   1.447  11.234 -0.6099  3.6236 -1.0502
 3323TIP3   OH231383   4.222   2.999  15.044  0.0466 -0.7479  0.4070
 3323TIP3    H131384   4.271   2.975  15.123  0.9421  1.1209  0.4520
 3323TIP3    H231385   4.265   2.951  14.973 -0.6431 -2.2881  1.0096
 3324TIP3   OH231386   1.135   5.115  14.627 -0.0349  0.1894  0.5346
 3324TIP3    H131387   1.083   5.189  14.596 -1.1064 -0.5510  0.5439
 3324TIP3    H231388   1.127   5.048  14.559  1.3667  0.2665  0.2746
 3325TIP3   OH231389   6.339   3.448  13.482 -0.4310 -0.0246  0.3165
 3325TIP3    H131390   6.367   3.389  13.413 -0.7982  0.2841 -0.0971
 3325TIP3    H231391   6.364   3.404  13.563  2.5726  0.8676 -0.0694
 3326TIP3   OH231392   0.887   0.022  10.135  0.5009  0.2137  0.2595
 3326TIP3    H131393   0.969  -0.026  10.126  0.2061 -0.3224  0.4134
 3326TIP3    H231394   0.845   0.014  10.050  0.3629  0.0413  0.3456
 3327TIP3   OH231395   5.579   4.293  14.166 -0.9600  0.4155 -0.7286
 3327TIP3    H131396   5.527   4.266  14.090 -1.2370 -2.3104  0.3716
 3327TIP3    H231397   5.610   4.211  14.204  2.1395  1.8924  0.0764
 3328TIP3   OH231398   5.020   5.636  11.932  0.1089 -0.0249 -0.1175
 3328TIP3    H131399   5.096   5.679  11.894 -0.4882  0.5017 -0.7067
 3328TIP3    H231400   5.035   5.640  12.027  0.8592 -0.0129 -0.2344
 3329TIP3   OH231401   2.391   0.842  11.826  0.2979 -0.3080 -0.1424
 3329TIP3    H131402   2.319   0.781  11.819  0.5912 -0.8276  1.2072
 3329TIP3    H231403   2.422   0.832  11.916  1.7680  0.2176 -0.5806
 3330TIP3   OH231404   1.877   5.393  14.008  0.2641 -0.8515  0.2658
 3330TIP3    H131405   1.894   5.485  13.988  3.5236 -1.7184 -1.3965
 3330TIP3    H231406   1.795   5.393  14.058  0.2385  2.9262  0.3283
 3331TIP3   OH231407   6.953   0.763  14.738  0.0937  0.4005  0.4893
 3331TIP3    H131408   6.955   0.770  14.834  1.2671  0.1809  0.4812
 3331TIP3    H231409   7.020   0.824  14.708  0.9223 -0.7762 -0.1141
 3332TIP3   OH231410   1.682   1.912  11.571  0.6729  0.2101 -0.0315
 3332TIP3    H131411   1.773   1.923  11.542  0.6335 -1.3643 -0.7589
 3332TIP3    H231412   1.683   1.939  11.663  1.7938  0.5858 -0.1447
 3333TIP3   OH231413   4.396   1.984  13.957 -0.1163  0.1139  0.3458
 3333TIP3    H131414   4.368   1.998  13.866 -0.9222 -0.1156  0.5562
 3333TIP3    H231415   4.455   1.908  13.951 -1.9085 -1.3301  0.3017
 3334TIP3   OH231416   4.664   3.758  11.949 -0.2456  0.2825 -0.7665
 3334TIP3    H131417   4.649   3.665  11.932  1.6275 -0.5196  1.6721
 3334TIP3    H231418   4.620   3.774  12.032  2.0658  0.8048  0.3813
 3335TIP3   OH231419   0.490   6.095  13.536 -0.1081 -0.3307  0.1366
 3335TIP3    H131420   0.503   6.018  13.480 -0.5332  0.0440 -0.4673
 3335TIP3    H231421   0.453   6.161  13.479  1.4905  0.7740  0.3474
 3336TIP3   OH231422   1.608   0.256  14.228  0.0647 -0.1248  0.0184
 3336TIP3    H131423   1.679   0.235  14.289  1.7555  0.0486 -1.8177
 3336TIP3    H231424   1.639   0.334  14.182 -1.7262  0.4687 -0.2028
 3337TIP3   OH231425   6.212   0.933  14.782  0.1295  0.0765  0.1354
 3337TIP3    H131426   6.239   0.987  14.708 -2.6547 -0.0839 -1.0593
 3337TIP3    H231427   6.220   0.991  14.858  2.9996  0.2381 -0.2534
 3338TIP3   OH231428   2.552   5.730  11.252  0.4714 -0.3103 -0.8858
 3338TIP3    H131429   2.487   5.782  11.299  1.8852  1.6833 -1.0751
 3338TIP3    H231430   2.541   5.755  11.160  0.3080 -1.3041 -1.1391
 3339TIP3   OH231431   2.831   2.784  10.516  0.3250  0.2005 -0.1150
 3339TIP3    H131432   2.892   2.819  10.451  0.6300 -2.5622 -1.3635
 3339TIP3    H231433   2.744   2.803  10.480  0.4888 -0.3360 -0.8022
 3340TIP3   OH231434   1.033   5.508  12.014 -0.1325 -0.8625 -0.1867
 3340TIP3    H131435   1.049   5.542  11.926  1.6053  2.2773  1.2622
 3340TIP3    H231436   0.963   5.563  12.049  0.4811 -0.8689  1.0766
 3341TIP3   OH231437   3.464   2.412  10.194  0.2145 -0.2882 -0.1703
 3341TIP3    H131438   3.503   2.330  10.164 -0.6270 -0.9225  0.4438
 3341TIP3    H231439   3.444   2.460  10.114  2.3323  0.1090 -0.5135
 3342TIP3   OH231440   1.459   0.232  10.157  0.3444  0.4245  0.0074
 3342TIP3    H131441   1.408   0.179  10.096 -0.1680 -0.8841  1.5412
 3342TIP3    H231442   1.449   0.322  10.125 -1.2061 -0.0548 -0.9053
 3343TIP3   OH231443   5.407   3.153  14.406 -0.1157 -0.1850  0.0672
 3343TIP3    H131444   5.393   3.114  14.493  0.5310 -2.0977 -0.6652
 3343TIP3    H231445   5.427   3.245  14.425 -1.3036 -0.2636  1.8609
 3344TIP3   OH231446   2.590   6.126  11.328  0.3445  0.0086  0.1099
 3344TIP3    H131447   2.517   6.095  11.382  0.5744 -0.4057  0.1839
 3344TIP3    H231448   2.606   6.055  11.266 -0.5960  0.8986 -1.1922
 3345TIP3   OH231449   1.420   1.510  12.508 -1.1477 -0.2155 -0.3282
 3345TIP3    H131450   1.461   1.539  12.426 -1.7968  0.2015 -0.5123
 3345TIP3    H231451   1.493   1.483  12.563 -0.5382  1.4835 -0.2615
 3346TIP3   OH231452   4.045   1.027  14.026  0.4104  0.4753 -0.1237
 3346TIP3    H131453   3.974   1.050  13.967 -0.5221  0.0385  0.8170
 3346TIP3    H231454   4.010   1.043  14.114  0.7660 -1.6435  0.4314
 3347TIP3   OH231455   3.572   4.681  11.391  0.1298 -0.1505 -0.3200
 3347TIP3    H131456   3.623   4.672  11.472 -1.8501  2.0498  1.2533
 3347TIP3    H231457   3.531   4.596  11.379 -0.9001 -0.0006  1.9627
 3348TIP3   OH231458   1.810   6.686  10.748  0.3690 -0.1788  0.1093
 3348TIP3    H131459   1.807   6.630  10.825  2.8361 -0.4657  0.0506
 3348TIP3    H231460   1.900   6.720  10.747  0.0659  0.6464 -2.0561
 3349TIP3   OH231461   2.879   1.032  10.502 -0.1239 -0.0803  0.5234
 3349TIP3    H131462   2.965   1.022  10.543  0.2856 -1.9438 -0.7398
 3349TIP3    H231463   2.878   1.122  10.470  1.3716 -0.0569  0.5257
 3350TIP3   OH231464   4.708   7.072  12.039  0.3337 -0.0919 -0.1600
 3350TIP3    H131465   4.654   7.124  12.099 -1.2488 -2.3023  0.3784
 3350TIP3    H231466   4.747   7.005  12.094  0.0753 -1.2236 -1.3235
 3351TIP3   OH231467   3.217   6.006  11.313  0.5686 -0.0803  0.6788
 3351TIP3    H131468   3.139   6.062  11.313  0.9757  0.4905 -0.1722
 3351TIP3    H231469   3.245   6.004  11.405  1.6992  2.7362  0.4451
 3352TIP3   OH231470   0.112   1.534  12.011  0.1357  0.2996 -0.0904
 3352TIP3    H131471   0.128   1.517  11.918 -0.3211  0.6489 -0.2352
 3352TIP3    H231472   0.073   1.622  12.013 -1.0009 -0.2095  0.3284
 3353TIP3   OH231473   6.544   1.280   0.777 -0.4138 -0.0632  0.3536
 3353TIP3    H131474   6.554   1.334   0.856  1.7979 -0.9509  0.7231
 3353TIP3    H231475   6.633   1.253   0.756 -0.7881  1.3378 -3.3145
 3354TIP3   OH231476   1.691   2.225  15.090 -0.2338 -0.1701 -0.1841
 3354TIP3    H131477   1.687   2.140  15.134  1.8711  0.4570  1.2733
 3354TIP3    H231478   1.746   2.210  15.013 -0.6817 -0.3396 -0.4766
 3355TIP3   OH231479   5.323   6.894  11.553 -0.0747 -0.1876 -0.0855
 3355TIP3    H131480   5.364   6.980  11.564  0.0795 -0.2103 -0.4988
 3355TIP3    H231481   5.396   6.833  11.544 -0.1711 -0.4668  0.9826
 3356TIP3   OH231482   2.193   0.565  12.205 -0.8165  0.3274 -0.4060
 3356TIP3    H131483   2.243   0.634  12.248  0.7191 -0.9873 -0.0585
 3356TIP3    H231484   2.228   0.484  12.241 -1.3444 -0.6974 -2.1643
 3357TIP3   OH231485   2.054   2.724  15.143 -0.5885 -0.1067  0.4330
 3357TIP3    H131486   2.070   2.634  15.116 -1.3366  0.1621 -0.9985
 3357TIP3    H231487   2.001   2.717  15.222 -2.1759 -0.9309 -0.6799
 3358TIP3   OH231488   3.318   1.135  10.906 -0.2987  0.1923 -0.1122
 3358TIP3    H131489   3.255   1.203  10.928 -0.4502 -0.4637  1.5925
 3358TIP3    H231490   3.329   1.085  10.987  1.7496 -0.2384 -0.6155
 3359TIP3   OH231491   6.131   4.876  14.112 -0.0251 -0.0472 -0.0094
 3359TIP3    H131492   6.074   4.823  14.167 -0.3528 -0.7055 -0.9705
 3359TIP3    H231493   6.179   4.931  14.173 -1.4542  0.2858  0.8226
 3360TIP3   OH231494   2.230   4.968  14.261  0.3836  0.2398  0.3747
 3360TIP3    H131495   2.217   5.042  14.200  0.0888  0.6497  0.9285
 3360TIP3    H231496   2.232   5.009  14.347  1.6529 -0.2550  0.5814
 3361TIP3   OH231497   1.442   6.638  15.120 -0.0272  0.3711 -0.1238
 3361TIP3    H131498   1.521   6.643  15.067 -0.2088  1.5779 -0.2935
 3361TIP3    H231499   1.379   6.693  15.073 -1.0753 -0.8542 -0.1841
 3362TIP3   OH231500   3.271   3.890  12.529 -0.5618 -0.2294  0.0887
 3362TIP3    H131501   3.241   3.922  12.614  0.9485  2.3522 -0.2726
 3362TIP3    H231502   3.192   3.865  12.483 -1.5243 -0.2441  1.7130
 3363TIP3   OH231503   5.792   6.411  10.476  0.3080  0.0316 -0.3008
 3363TIP3    H131504   5.832   6.496  10.458  0.1636 -0.2939 -2.1942
 3363TIP3    H231505   5.802   6.362  10.395  0.2430 -1.7128  0.7323
 3364TIP3   OH231506   4.127   2.693  12.162 -0.0734  0.3178 -0.5275
 3364TIP3    H131507   4.071   2.616  12.170  0.5932 -0.1272 -0.1161
 3364TIP3    H231508   4.144   2.720  12.252 -0.6254  1.1888 -0.6749
 3365TIP3   OH231509   5.437   0.996  12.552  1.1260 -0.2482 -0.0104
 3365TIP3    H131510   5.532   0.992  12.564  1.0835 -2.9028 -0.3099
 3365TIP3    H231511   5.416   0.919  12.499 -1.2954 -0.0776  0.6368
 3366TIP3   OH231512   4.188   0.166  10.703 -0.0588  0.1391 -0.8308
 3366TIP3    H131513   4.163   0.134  10.616 -0.8816  1.6681 -1.1702
 3366TIP3    H231514   4.189   0.088  10.758 -3.5198 -0.2963 -1.2985
 3367TIP3   OH231515   3.153   6.203  12.409 -0.0128 -0.5686 -0.9403
 3367TIP3    H131516   3.105   6.254  12.473  0.8647 -0.4960 -0.3261
 3367TIP3    H231517   3.241   6.193  12.447  1.0554  0.9930 -2.9317
 3368TIP3   OH231518   5.027   6.885  12.899  0.0222 -0.5651  0.0167
 3368TIP3    H131519   5.073   6.965  12.923 -0.2073 -0.0741 -1.1545
 3368TIP3    H231520   4.973   6.910  12.824 -2.1418 -1.1287  1.3408
 3369TIP3   OH231521   2.312   2.964   0.968 -0.5912  0.1722  0.3519
 3369TIP3    H131522   2.231   2.981   0.921 -0.7200  0.7604  0.7883
 3369TIP3    H231523   2.328   2.870   0.955 -0.9128  0.2172 -0.4009
 3370TIP3   OH231524   7.099   3.972  13.622 -0.2080  0.3384  0.1255
 3370TIP3    H131525   7.044   3.931  13.555 -0.1833  1.4192 -0.5757
 3370TIP3    H231526   7.037   4.001  13.689 -0.3404  0.2207  0.0558
 3371TIP3   OH231527   3.078   1.970   0.106  0.0608  0.1595 -0.0444
 3371TIP3    H131528   3.042   1.997   0.190 -0.3451  0.8085 -0.4208
 3371TIP3    H231529   3.151   1.913   0.128 -1.2626 -1.2602  0.7231
 3372TIP3   OH231530   6.738   5.915  13.087 -0.7483 -0.1118  0.4052
 3372TIP3    H131531   6.707   5.925  12.997 -0.6739 -1.3550  0.2311
 3372TIP3    H231532   6.674   5.964  13.140 -1.5648 -0.5185 -0.1883
 3373TIP3   OH231533   4.224   4.707  12.498 -0.0882 -0.4789  1.7950
 3373TIP3    H131534   4.202   4.729  12.589 -2.1750 -0.7824  1.4046
 3373TIP3    H231535   4.169   4.765  12.446 -0.7950 -2.0369  0.7555
 3374TIP3   OH231536   4.978   7.114  11.685  0.2573  0.0261  0.0037
 3374TIP3    H131537   4.980   7.019  11.685  1.0523  0.0124 -1.7317
 3374TIP3    H231538   5.048   7.139  11.625  0.1304  1.7051  0.5264
 3375TIP3   OH231539   2.843   2.378  14.582  0.4211  0.3892  0.4357
 3375TIP3    H131540   2.893   2.421  14.513  1.4545 -0.6640  0.5065
 3375TIP3    H231541   2.801   2.449  14.630  1.5623  1.2731  0.1490
 3376TIP3   OH231542   1.098   4.484  12.321 -0.0818  0.1473  0.1495
 3376TIP3    H131543   1.090   4.561  12.266 -2.1234  0.0404  0.2632
 3376TIP3    H231544   1.010   4.447  12.325  0.3881 -0.8812  1.9826
 3377TIP3   OH231545   3.874   2.424   9.735 -0.5394 -0.5229  0.1770
 3377TIP3    H131546   3.958   2.463   9.759 -0.6732  1.2000 -2.0087
 3377TIP3    H231547   3.898   2.344   9.687 -0.1329  0.0966 -0.6640
 3378TIP3   OH231548   4.456   4.367  12.613  0.2519  0.1662  0.2504
 3378TIP3    H131549   4.505   4.293  12.576  1.0307 -0.7144  2.9213
 3378TIP3    H231550   4.365   4.347  12.595  0.5532 -0.7536 -0.2739
 3379TIP3   OH231551   3.967   2.173  15.052 -0.2379 -0.2683 -0.2394
 3379TIP3    H131552   3.881   2.142  15.023  0.2497 -1.0493 -0.8627
 3379TIP3    H231553   3.966   2.267  15.034 -1.3768 -0.0736  0.8010
 3380TIP3   OH231554   7.090   0.246  10.092  0.8440  0.1223 -0.3859
 3380TIP3    H131555   7.057   0.170  10.044  0.2716  0.3501 -0.3531
 3380TIP3    H231556   7.117   0.308  10.024  1.1101 -0.0264 -0.4148
 3381TIP3   OH231557   4.763   1.776  12.580  0.4453 -0.5063  0.3646
 3381TIP3    H131558   4.846   1.820  12.560 -1.3442  2.4454 -0.9797
 3381TIP3    H231559   4.744   1.802  12.671 -0.6947  1.7754 -0.4834
 3382TIP3   OH231560   3.159   2.327  13.463 -0.2830 -0.1446 -0.5914
 3382TIP3    H131561   3.213   2.338  13.541 -1.5387  0.2620  0.2417
 3382TIP3    H231562   3.099   2.255  13.486  0.2423 -0.9428 -1.6912
 3383TIP3   OH231563   1.305   6.547  10.335  0.5712 -0.1492  0.6729
 3383TIP3    H131564   1.251   6.504  10.269  0.5548  0.5224  0.2518
 3383TIP3    H231565   1.245   6.565  10.408  0.8914 -2.1915  1.4808
 3384TIP3   OH231566   1.382   1.701  11.682 -0.0117 -0.1636 -0.3221
 3384TIP3    H131567   1.384   1.793  11.710  0.8401  0.1682 -1.4202
 3384TIP3    H231568   1.470   1.668  11.702  0.5861  0.0623 -2.4535
 3385TIP3   OH231569   3.705   0.499  12.202  0.3946 -0.0190  0.3769
 3385TIP3    H131570   3.703   0.462  12.290  1.1429 -0.9750 -0.0038
 3385TIP3    H231571   3.635   0.564  12.202  2.0848  1.9094  2.5191
 3386TIP3   OH231572   3.590   3.501  13.627 -0.2481  0.2490  0.2156
 3386TIP3    H131573   3.571   3.575  13.685  3.0473  0.5243  1.0657
 3386TIP3    H231574   3.618   3.541  13.545 -0.1095 -0.0575  0.1125
 3387TIP3   OH231575   6.688   2.608   9.951 -0.1291 -0.3981  0.1901
 3387TIP3    H131576   6.612   2.646   9.907  0.2471  0.8861  0.6030
 3387TIP3    H231577   6.733   2.558   9.883 -0.3111  0.4105 -0.5359
 3388TIP3   OH231578   5.684   6.318  10.223  0.3915  0.7144  0.4496
 3388TIP3    H131579   5.594   6.348  10.212  0.5078  0.7027 -0.5220
 3388TIP3    H231580   5.723   6.324  10.136  0.1449 -3.2113  0.0097
 3389TIP3   OH231581   4.383   6.788  11.006  0.1651  0.2358  0.2236
 3389TIP3    H131582   4.426   6.739  11.076 -0.3416 -1.0150 -0.3219
 3389TIP3    H231583   4.290   6.775  11.022  0.0559 -0.8394 -1.2146
 3390TIP3   OH231584   1.366   4.624   9.581  0.2306  0.4434  0.5318
 3390TIP3    H131585   1.376   4.532   9.557  1.2416  0.5521  0.5443
 3390TIP3    H231586   1.455   4.660   9.581  0.0257  1.0297  2.0959
 3391TIP3   OH231587   1.076   0.999  12.525 -0.0794  0.0215  0.1860
 3391TIP3    H131588   1.096   1.090  12.505 -0.6395  0.3120  0.9118
 3391TIP3    H231589   1.162   0.958  12.537  0.2550 -0.0782 -2.3145
 3392TIP3   OH231590   4.930   1.761   0.931  0.1156  0.5252 -0.0040
 3392TIP3    H131591   4.962   1.684   0.979  3.3414  1.6273 -0.2853
 3392TIP3    H231592   4.900   1.821   0.998 -1.4173 -0.5418  0.2740
 3393TIP3   OH231593   0.477   1.307  10.989  0.4000 -0.0800 -0.3601
 3393TIP3    H131594   0.511   1.381  11.038  0.6025  0.1468 -0.8375
 3393TIP3    H231595   0.387   1.297  11.019  0.9607 -0.8508  1.1167
 3394TIP3   OH231596   5.819   1.904  14.325  0.6709  0.5302 -0.4791
 3394TIP3    H131597   5.775   1.989  14.324  0.0718  0.2264 -1.6019
 3394TIP3    H231598   5.789   1.862  14.405 -2.1969 -0.2084 -1.8628
 3395TIP3   OH231599   4.305   3.388  14.376  1.0034 -0.3519  0.5898
 3395TIP3    H131600   4.289   3.400  14.283  0.9611 -1.2765  0.4720
 3395TIP3    H231601   4.368   3.456  14.399  0.9209 -0.0477 -0.0888
 3396TIP3   OH231602   2.944   1.959  11.970  0.0948 -0.2343  0.3630
 3396TIP3    H131603   2.933   1.884  11.912  0.7078 -0.3636  0.4170
 3396TIP3    H231604   2.890   2.028  11.931 -0.5452 -0.7252  0.3620
 3397TIP3   OH231605   2.758   1.890  14.005 -0.5939 -0.5219 -0.3819
 3397TIP3    H131606   2.739   1.967  14.058 -1.5935 -0.4603 -0.8130
 3397TIP3    H231607   2.809   1.833  14.063  0.4298  0.5978 -0.1775
 3398TIP3   OH231608   5.436   6.894  10.796  0.1563 -0.1656 -0.1680
 3398TIP3    H131609   5.397   6.845  10.723 -0.5137 -0.3299  0.2914
 3398TIP3    H231610   5.507   6.944  10.756  0.7041 -1.3369 -0.6818
 3399TIP3   OH231611   2.970   2.071  11.191 -0.3844 -0.8469  0.0250
 3399TIP3    H131612   3.024   2.106  11.262 -0.8717 -0.6568  0.3078
 3399TIP3    H231613   2.940   1.986  11.223 -1.3996 -0.3294  0.4481
 3400TIP3   OH231614   1.906   1.914  11.436 -0.2304 -0.3107  0.0220
 3400TIP3    H131615   1.864   1.918  11.350  1.5158  0.8991 -0.7996
 3400TIP3    H231616   1.954   1.831  11.436 -0.0054 -0.1795 -0.2723
 3401TIP3   OH231617   1.718   6.483  11.391  0.1122  0.3064  0.4060
 3401TIP3    H131618   1.737   6.563  11.343  0.3532 -0.3003 -0.5174
 3401TIP3    H231619   1.741   6.503  11.482 -0.0094  1.3366  0.2092
 3402TIP3   OH231620   4.459   5.165  14.908  0.0044  0.2086  0.1522
 3402TIP3    H131621   4.467   5.070  14.900  1.0958  0.4219 -1.5947
 3402TIP3    H231622   4.502   5.185  14.991  1.2391 -0.6755 -0.2551
 3403TIP3   OH231623   1.804   5.650  13.951  1.0039 -0.0852  0.7312
 3403TIP3    H131624   1.767   5.729  13.992 -0.0378  0.2679 -0.8561
 3403TIP3    H231625   1.860   5.682  13.881 -0.0701 -0.7451 -0.4615
 3404TIP3   OH231626   2.971   2.096  13.443  0.0167  0.3284  0.0622
 3404TIP3    H131627   2.986   2.013  13.488  0.1308  0.5566  0.4385
 3404TIP3    H231628   2.888   2.083  13.397  0.0518 -0.0067  0.0894
 3405TIP3   OH231629   2.356   1.407  12.123  0.4014  0.0568  0.0874
 3405TIP3    H131630   2.374   1.324  12.168  1.1833 -0.4070 -1.0560
 3405TIP3    H231631   2.343   1.382  12.031  0.5357  1.1858 -0.2419
 3406TIP3   OH231632   5.671   0.024  15.020  1.0644  0.4785  0.1277
 3406TIP3    H131633   5.723   0.012  15.100 -0.3635  1.9314  1.2996
 3406TIP3    H231634   5.662   0.118  15.011 -1.7193  0.2428  0.1754
 3407TIP3   OH231635   3.805   4.937  12.020 -0.3269  0.2918 -0.3961
 3407TIP3    H131636   3.830   5.030  12.011  0.9286  0.0467  0.4863
 3407TIP3    H231637   3.875   4.890  11.974 -0.8127 -0.2420 -0.5857
 3408TIP3   OH231638   5.171   4.173  12.035  0.7932 -0.5117 -0.4650
 3408TIP3    H131639   5.143   4.188  11.945 -0.5457 -0.0896  0.0224
 3408TIP3    H231640   5.191   4.079  12.039  1.3781 -0.4252 -1.3369
 3409TIP3   OH231641   5.103   7.128  10.084  0.2155 -0.6654  0.1146
 3409TIP3    H131642   5.187   7.095  10.115  0.0065 -2.1172 -0.8543
 3409TIP3    H231643   5.095   7.096   9.995 -0.3081  1.4396 -0.6397
 3410TIP3   OH231644   1.411   3.857  14.308 -0.5478 -0.2970 -0.1839
 3410TIP3    H131645   1.387   3.865  14.401 -1.4972 -0.7669 -0.3830
 3410TIP3    H231646   1.370   3.775  14.280 -1.1076  0.3598 -1.2897
 3411TIP3   OH231647   2.498   1.539  13.823 -0.2258 -0.6970 -0.2381
 3411TIP3    H131648   2.507   1.508  13.733 -1.3686  0.9585 -0.9453
 3411TIP3    H231649   2.481   1.633  13.815  1.4079 -0.1833  1.7796
 3412TIP3   OH231650   2.546   3.044  12.477  0.4133  0.6580  0.6632
 3412TIP3    H131651   2.548   2.993  12.396 -1.5493 -0.0215  1.0069
 3412TIP3    H231652   2.515   3.130  12.451 -4.9672 -0.8865  1.2408
 3413TIP3   OH231653   0.202   6.081  15.141  0.1837  0.6871  0.3213
 3413TIP3    H131654   0.120   6.097  15.189  0.2516  1.5895  0.1370
 3413TIP3    H231655   0.174   6.046  15.057  0.0304 -0.0643  0.6805
 3414TIP3   OH231656   0.912   1.979  10.513  0.0300  0.0433 -0.1254
 3414TIP3    H131657   0.922   1.884  10.510 -2.0583 -0.1628 -1.8448
 3414TIP3    H231658   0.913   2.007  10.421 -0.5373  1.5459  0.2988
 3415TIP3   OH231659   0.405   4.603  13.434  0.1338 -0.2703 -0.3552
 3415TIP3    H131660   0.453   4.528  13.399  0.1663 -0.3179 -0.2109
 3415TIP3    H231661   0.459   4.634  13.508  0.1266 -0.0991 -0.4204
 3416TIP3   OH231662   6.575   3.122  13.052  0.5517 -0.0543  0.7501
 3416TIP3    H131663   6.652   3.097  13.001  0.9844  2.0803  0.3348
 3416TIP3    H231664   6.608   3.183  13.118 -0.8749  1.3194  0.2226
 3417TIP3   OH231665   4.854   3.489   9.772 -0.6767 -0.1014 -0.0776
 3417TIP3    H131666   4.771   3.510   9.730 -1.4754  0.0991  1.5669
 3417TIP3    H231667   4.875   3.401   9.742 -0.9539  0.2420 -1.3110
 3418TIP3   OH231668   2.863   0.771  12.118  0.2551  0.0832 -0.6939
 3418TIP3    H131669   2.902   0.842  12.068 -0.4501  0.3882 -0.8114
 3418TIP3    H231670   2.804   0.814  12.179  0.5482 -0.3374 -0.1006
 3419TIP3   OH231671   2.918   0.683  10.580 -0.1863 -0.3282  0.2645
 3419TIP3    H131672   3.010   0.699  10.559 -0.1768 -2.6518 -1.7479
 3419TIP3    H231673   2.900   0.738  10.656  2.4651  1.2424 -0.1984
 3420TIP3   OH231674   2.726   2.330  10.733  0.0013 -0.0315 -0.0475
 3420TIP3    H131675   2.796   2.312  10.795  1.2841 -0.5937 -1.6307
 3420TIP3    H231676   2.735   2.423  10.713  0.0283 -0.0073  0.0752
 3421TIP3   OH231677   1.529   0.007   1.290  0.7134  0.6062 -0.4406
 3421TIP3    H131678   1.519   0.095   1.327 -0.1834  0.5514 -0.5433
 3421TIP3    H231679   1.604   0.015   1.231  0.0479  1.5547 -1.1826
 3422TIP3   OH231680   0.301   2.399  10.836  0.2561 -0.0248 -0.3419
 3422TIP3    H131681   0.348   2.339  10.777  2.3238  0.0588  1.1712
 3422TIP3    H231682   0.364   2.419  10.904 -0.7187  3.1900 -0.3344
 3423TIP3   OH231683   2.743   4.119   0.444 -0.2098  0.1598  0.0414
 3423TIP3    H131684   2.806   4.174   0.397  0.3749 -0.4796  0.0635
 3423TIP3    H231685   2.709   4.174   0.514  1.7207 -0.0894  1.1861
 3424TIP3   OH231686   4.027   2.788  13.142 -0.6961  0.5008  0.1259
 3424TIP3    H131687   3.955   2.833  13.185 -2.6400 -0.3897 -2.1226
 3424TIP3    H231688   3.988   2.744  13.067  2.2136  0.1414 -1.2804
 3425TIP3   OH231689   0.245   4.377  12.733  0.3830 -0.4579  0.1260
 3425TIP3    H131690   0.293   4.442  12.783  0.8146  0.8694 -1.9633
 3425TIP3    H231691   0.178   4.426  12.685  1.6243 -1.2672 -2.5886
 3426TIP3   OH231692   5.862   5.879  12.567 -0.4113 -0.4706  0.1043
 3426TIP3    H131693   5.890   5.970  12.572 -0.4042 -0.5346  1.3325
 3426TIP3    H231694   5.942   5.829  12.582  0.1680 -0.7331 -3.4336
 3427TIP3   OH231695   6.324   5.473  10.713 -0.0840 -0.2970 -0.4433
 3427TIP3    H131696   6.344   5.516  10.796  0.4653 -0.0169 -0.7166
 3427TIP3    H231697   6.291   5.387  10.737  0.6832 -0.4565  0.0401
 3428TIP3   OH231698   5.266   0.102  15.090 -0.0470 -0.9581  0.0513
 3428TIP3    H131699   5.193   0.131  15.145  0.6839 -1.3194  1.2205
 3428TIP3    H231700   5.276   0.172  15.025  0.1570  0.2923  1.3988
 3429TIP3   OH231701   5.426   0.229  14.290  0.4505 -0.0122  0.8414
 3429TIP3    H131702   5.335   0.211  14.270  0.3631  1.1988  0.0863
 3429TIP3    H231703   5.444   0.313  14.247  2.7942 -1.6882 -1.6184
 3430TIP3   OH231704   3.492   1.813   9.845 -0.4744 -0.0232 -0.0673
 3430TIP3    H131705   3.518   1.784   9.758 -2.2453  1.8083 -1.2692
 3430TIP3    H231706   3.478   1.733   9.895  0.7811 -1.0816 -1.4057
 3431TIP3   OH231707   5.450   3.123  11.544  0.3033 -0.1152  0.2448
 3431TIP3    H131708   5.454   3.085  11.456 -1.2079 -0.0931  0.1578
 3431TIP3    H231709   5.462   3.217  11.530  2.3498 -0.3396  0.2979
 3432TIP3   OH231710   1.695   0.714  14.420 -0.0193  0.5395  0.1100
 3432TIP3    H131711   1.769   0.660  14.447  0.3248  0.7708 -0.3658
 3432TIP3    H231712   1.733   0.780  14.362 -0.4921  1.0838  0.4138
 3433TIP3   OH231713   0.171   5.297  13.350  0.0613 -0.5741  0.2310
 3433TIP3    H131714   0.242   5.241  13.319 -0.1664 -1.4427  1.2736
 3433TIP3    H231715   0.155   5.357  13.277  1.1609 -1.0446 -0.4077
 3434TIP3   OH231716   6.487   5.288  11.334 -0.2752 -0.0366  0.0326
 3434TIP3    H131717   6.569   5.327  11.302 -0.5069  0.1806 -0.3028
 3434TIP3    H231718   6.512   5.202  11.366 -0.3261 -0.9832 -2.3564
 3435TIP3   OH231719   4.789   7.113  12.759 -0.4356  0.0657 -0.0174
 3435TIP3    H131720   4.709   7.165  12.751 -0.9956 -0.4476  1.8678
 3435TIP3    H231721   4.833   7.150  12.836  0.4907 -0.4863 -0.2829
 3436TIP3   OH231722   6.135   0.327  10.074  0.5927  0.2344 -0.6778
 3436TIP3    H131723   6.063   0.291  10.022  1.7135 -0.3913 -1.8287
 3436TIP3    H231724   6.132   0.278  10.156  0.8083 -1.0456 -1.4157
 3437TIP3   OH231725   3.274   5.381   0.191 -0.0652 -0.1037  0.4135
 3437TIP3    H131726   3.221   5.454   0.222  0.4007  0.1261  0.6748
 3437TIP3    H231727   3.218   5.304   0.205  0.3098 -0.0623  2.2850
 3438TIP3   OH231728   6.167   4.848  14.511  0.0350 -0.4944  0.3754
 3438TIP3    H131729   6.114   4.821  14.586 -0.0583 -1.8562 -0.1691
 3438TIP3    H231730   6.195   4.937  14.533  1.7688 -1.6359  2.9797
 3439TIP3   OH231731   1.491   6.053  10.887 -0.3840 -0.3750 -0.0228
 3439TIP3    H131732   1.525   6.059  10.976  3.0249  2.9546 -1.4100
 3439TIP3    H231733   1.412   6.108  10.888  1.3199  2.1551  0.2739
 3440TIP3   OH231734   6.285   3.187  11.123 -0.6522  0.2427  0.2170
 3440TIP3    H131735   6.261   3.262  11.176  0.3978 -0.6947  2.0515
 3440TIP3    H231736   6.364   3.152  11.164 -0.2079 -0.9241 -1.5423
 3441TIP3   OH231737   2.034   6.640  11.546  0.0655  0.3347 -0.9524
 3441TIP3    H131738   2.001   6.549  11.547  0.9055  0.0254 -1.4260
 3441TIP3    H231739   1.965   6.689  11.502 -1.0792  0.1936  0.6167
 3442TIP3   OH231740   2.755   1.097  11.330 -0.1176 -0.6123  0.4461
 3442TIP3    H131741   2.768   1.038  11.256  1.9734  0.5162 -0.1320
 3442TIP3    H231742   2.798   1.054  11.403  1.3303  0.1426  0.0463
 3443TIP3   OH231743   6.260   0.273  12.057  0.1683  0.5261  0.4806
 3443TIP3    H131744   6.285   0.200  12.001  0.4290 -0.5939  2.0033
 3443TIP3    H231745   6.170   0.255  12.082 -0.2873  1.5628 -0.4175
 3444TIP3   OH231746   5.388   4.763  11.237 -0.5985  0.2742  0.2827
 3444TIP3    H131747   5.371   4.670  11.250 -1.7465  0.7278  2.3106
 3444TIP3    H231748   5.343   4.785  11.155 -1.7710 -0.6028  0.6833
 3445TIP3   OH231749   0.768   1.264  10.611  0.0085 -0.6935  0.2365
 3445TIP3    H131750   0.847   1.315  10.624  0.4090 -0.7169 -1.8721
 3445TIP3    H231751   0.700   1.313  10.658  1.1404 -0.3404  1.5247
 3446TIP3   OH231752   2.058   0.759  12.750  0.2379  0.4662 -0.4441
 3446TIP3    H131753   2.088   0.691  12.810 -0.5821  1.2033  0.8319
 3446TIP3    H231754   2.076   0.841  12.797  0.5840  1.1029 -1.6689
 3447TIP3   OH231755   0.421   5.891   3.140  0.4303  0.0363  0.3107
 3447TIP3    H131756   0.467   5.955   3.194  0.7561 -0.7358  0.9646
 3447TIP3    H231757   0.379   5.832   3.202  0.2225 -0.4497 -0.2786
 3448TIP3   OH231758   5.377   2.111  11.732  0.3795  0.2423  0.0627
 3448TIP3    H131759   5.293   2.155  11.717 -0.5448 -1.2734  0.7512
 3448TIP3    H231760   5.440   2.165  11.684 -1.2561  0.3261 -2.0809
 3449TIP3   OH231761   4.246   6.136  10.758  0.4368 -0.4277 -0.0820
 3449TIP3    H131762   4.194   6.216  10.768 -1.0596 -1.2002 -1.4664
 3449TIP3    H231763   4.332   6.159  10.793 -0.0191  1.7426 -0.3111
 3450TIP3   OH231764   3.500   2.134  11.528  0.6868 -0.0494  0.4008
 3450TIP3    H131765   3.471   2.135  11.436  0.1164  0.9584  0.5800
 3450TIP3    H231766   3.501   2.041  11.552 -1.4726 -0.1855  0.0752
 3451TIP3   OH231767   3.298   4.242  12.674  0.3769  0.2078 -0.0982
 3451TIP3    H131768   3.206   4.217  12.670  0.0673  1.2940  0.3458
 3451TIP3    H231769   3.338   4.198  12.598 -0.4922 -0.2636 -0.2826
 3452TIP3   OH231770   0.470   2.742  10.660 -0.2728  0.0161  0.2459
 3452TIP3    H131771   0.562   2.761  10.679 -0.8996  0.3353  3.1017
 3452TIP3    H231772   0.473   2.688  10.581  2.4902 -1.7272  1.4892
 3453TIP3   OH231773   4.059   2.977  15.446 -0.3455 -0.1088 -0.1278
 3453TIP3    H131774   3.990   3.041  15.463  1.0043  1.2857  0.2061
 3453TIP3    H231775   4.137   3.015  15.487  0.8613 -1.1494 -1.4356
 3454TIP3   OH231776   3.409   1.553   1.116 -0.1272  0.0786 -0.1698
 3454TIP3    H131777   3.466   1.626   1.093 -0.7311  0.5222 -0.2820
 3454TIP3    H231778   3.389   1.510   1.033  0.7326 -0.6029 -0.0363
 3455TIP3   OH231779   5.216   2.704  10.958  0.2728 -0.0415  0.2256
 3455TIP3    H131780   5.182   2.792  10.974  0.8415  0.0930  0.7071
 3455TIP3    H231781   5.268   2.684  11.035 -0.4483 -1.1002  0.4372
 3456TIP3   OH231782   1.304   5.831  10.972 -0.0445 -0.0875 -0.7803
 3456TIP3    H131783   1.365   5.904  10.980 -0.5384  0.1997  0.3655
 3456TIP3    H231784   1.358   5.758  10.943  0.6530  0.4382 -0.8055
 3457TIP3   OH231785   1.517   7.060  13.629  0.2783 -0.1564 -0.0964
 3457TIP3    H131786   1.475   7.135  13.587  0.2158  0.4818  1.1085
 3457TIP3    H231787   1.472   7.051  13.713  2.5033  0.5008  1.1882
 3458TIP3   OH231788   4.287   1.682  12.221 -0.4770  0.2398 -0.0404
 3458TIP3    H131789   4.225   1.690  12.294  1.2744 -0.4526  1.5599
 3458TIP3    H231790   4.234   1.648  12.149 -1.9540 -0.4593  1.3331
 3459TIP3   OH231791   0.776   2.661  10.712 -0.1071 -0.6958 -0.0722
 3459TIP3    H131792   0.822   2.713  10.647  0.3512 -1.4619 -0.3645
 3459TIP3    H231793   0.837   2.653  10.785 -0.8056  0.5763  0.6557
 3460TIP3   OH231794   5.593   1.146  13.710  0.4906  0.5689 -0.2285
 3460TIP3    H131795   5.603   1.233  13.748 -0.3953  0.1722  0.9453
 3460TIP3    H231796   5.567   1.162  13.619 -0.1061  1.5325  0.1040
 3461TIP3   OH231797   3.217   1.696  14.015  0.6607 -0.4470 -0.6064
 3461TIP3    H131798   3.215   1.706  13.920  2.4263 -2.6010 -0.9229
 3461TIP3    H231799   3.297   1.741  14.042  0.5447 -0.4509 -0.2576
 3462TIP3   OH231800   2.696   7.039  10.520 -0.0568 -0.2508 -0.1984
 3462TIP3    H131801   2.654   7.111  10.567  0.9101 -0.2573  0.6716
 3462TIP3    H231802   2.716   7.076  10.434  0.7748  0.6378  0.3691
 3463TIP3   OH231803   3.643   3.715  12.171 -0.0313 -0.6994  0.2000
 3463TIP3    H131804   3.670   3.657  12.100  0.9102  1.4203 -1.2253
 3463TIP3    H231805   3.704   3.696  12.242  0.3194 -1.4027 -0.2932
 3464TIP3   OH231806   2.874   6.568  11.178  0.4277 -0.2661  0.6244
 3464TIP3    H131807   2.819   6.491  11.168  0.7243 -0.3921 -0.0441
 3464TIP3    H231808   2.822   6.627  11.233  0.6336 -1.3529  2.0186
 3465TIP3   OH231809   3.457   0.892  11.367  0.3833 -0.0284  0.4398
 3465TIP3    H131810   3.478   0.801  11.350  0.1081  0.0650 -0.4244
 3465TIP3    H231811   3.538   0.940  11.348  0.2164  0.0226 -0.1466
 3466TIP3   OH231812   2.009   1.452  14.049  0.6092 -0.2990 -0.1069
 3466TIP3    H131813   2.024   1.375  13.994 -1.0181 -0.4868 -0.2989
 3466TIP3    H231814   2.081   1.511  14.027 -0.9757  0.4105 -3.8419
 3467TIP3   OH231815   1.312   6.895  14.086 -0.2974 -0.7492 -0.0325
 3467TIP3    H131816   1.363   6.930  14.160 -0.1590 -0.8334 -0.0881
 3467TIP3    H231817   1.283   6.808  14.116  0.9724 -1.3867 -0.6282
 3468TIP3   OH231818   3.783   5.419  11.374  0.0749  0.0767  0.4892
 3468TIP3    H131819   3.770   5.342  11.318  1.5816 -1.5224  2.2603
 3468TIP3    H231820   3.866   5.456  11.345 -0.8993  1.3736 -0.7067
 3469TIP3   OH231821   5.601   5.977  14.209 -0.1404  0.1287  0.2819
 3469TIP3    H131822   5.662   6.031  14.158  0.2819 -0.8565 -0.2687
 3469TIP3    H231823   5.651   5.899  14.231 -0.4079  0.4343  2.0161
 3470TIP3   OH231824   3.898   2.177  11.213  0.1710  0.1461 -0.4628
 3470TIP3    H131825   3.892   2.086  11.243 -1.3863  0.5816  0.6141
 3470TIP3    H231826   3.829   2.186  11.149  1.4870  0.0982 -1.9146
 3471TIP3   OH231827   2.455   3.541  14.649 -0.0155  0.3324 -0.3134
 3471TIP3    H131828   2.451   3.565  14.741 -0.0372 -0.1339 -0.1937
 3471TIP3    H231829   2.413   3.614  14.603  2.0248  1.6557 -0.1594
 3472TIP3   OH231830   0.808   0.181   9.849 -0.6631  0.0875  0.4479
 3472TIP3    H131831   0.892   0.183   9.804 -0.5559 -0.1785  0.6330
 3472TIP3    H231832   0.745   0.158   9.781 -0.5190 -0.1840  0.4049
 3473TIP3   OH231833   3.895   6.320  14.982 -0.2277 -0.5791  0.1360
 3473TIP3    H131834   3.981   6.278  14.980 -0.4543 -1.0234 -0.3873
 3473TIP3    H231835   3.913   6.413  14.972  0.1149 -0.7768 -1.0714
 3474TIP3   OH231836   1.583   5.050  11.310  0.0312  0.0971  0.3721
 3474TIP3    H131837   1.565   4.964  11.271  0.4010 -0.3075  1.0911
 3474TIP3    H231838   1.679   5.055  11.314  0.0944  1.4600 -1.6887
 3475TIP3   OH231839   2.521   6.616  14.483 -0.5535 -0.4839  0.0764
 3475TIP3    H131840   2.534   6.642  14.574 -0.9501 -1.5271  0.4274
 3475TIP3    H231841   2.506   6.699  14.437 -0.8244  0.0027  1.0287
 3476TIP3   OH231842   3.280   6.295   9.855  0.5033 -0.3257  0.2080
 3476TIP3    H131843   3.194   6.271   9.819  0.6145 -0.6091  0.1283
 3476TIP3    H231844   3.315   6.359   9.794  0.5190 -0.5100  0.0206
 3477TIP3   OH231845   2.667   0.881  14.447 -0.4549 -0.3324 -0.0870
 3477TIP3    H131846   2.670   0.931  14.365  0.2278  0.3021  0.3181
 3477TIP3    H231847   2.707   0.797  14.426 -0.8300 -0.3969 -0.5601
 3478TIP3   OH231848   2.955   0.748  14.034 -0.0906  0.3624 -0.7531
 3478TIP3    H131849   3.027   0.766  14.094 -1.1012  0.1499  0.5290
 3478TIP3    H231850   2.914   0.833  14.020 -1.0980  0.0922  0.4723
 3479TIP3   OH231851   7.054   0.349  10.341  0.6120  0.5714 -0.1841
 3479TIP3    H131852   7.145   0.376  10.328  1.3304 -1.9149 -0.6786
 3479TIP3    H231853   7.040   0.281  10.275 -0.1619 -2.2674  2.7237
 3480TIP3   OH231854   6.957   0.054  13.114 -0.1245  0.2168 -0.5352
 3480TIP3    H131855   6.988   0.062  13.024  0.4698 -1.6873 -0.5200
 3480TIP3    H231856   6.865   0.028  13.106 -0.0989  0.1442 -0.5953
 3481TIP3   OH231857   4.892   5.629  11.075 -0.5921 -0.4047  0.9615
 3481TIP3    H131858   4.822   5.693  11.084 -1.7205 -1.4128 -0.4465
 3481TIP3    H231859   4.937   5.654  10.994 -0.6747 -1.0456  0.7159
 3482TIP3   OH231860   0.067   2.790  10.612 -0.0057  0.2377 -0.8474
 3482TIP3    H131861  -0.025   2.763  10.607 -0.1824  0.9537 -1.6065
 3482TIP3    H231862   0.107   2.727  10.671 -1.3819  1.0039  0.9517
 3483TIP3   OH231863   6.405   6.590  12.914 -0.1209  0.6676 -0.0188
 3483TIP3    H131864   6.427   6.680  12.892  1.3387  0.8746  2.0720
 3483TIP3    H231865   6.471   6.565  12.979 -0.2010 -2.0650 -0.9298
 3484TIP3   OH231866   4.101   0.794  11.155 -0.7697  0.5855 -0.5207
 3484TIP3    H131867   4.115   0.816  11.063  0.2191 -0.1686 -0.5560
 3484TIP3    H231868   4.170   0.841  11.201 -0.1656 -0.4511 -0.3507
 3485TIP3   OH231869   3.395   6.638  10.386 -0.2204 -0.5902 -0.5986
 3485TIP3    H131870   3.338   6.714  10.380  1.1668  0.3277 -2.9557
 3485TIP3    H231871   3.468   6.665  10.442 -1.9526 -1.7166  2.2943
 3486TIP3   OH231872   0.651   2.982  14.395  0.1186  0.7596 -0.4037
 3486TIP3    H131873   0.597   2.924  14.342 -0.1981  0.6997 -0.0194
 3486TIP3    H231874   0.592   3.015  14.463  0.7174  0.2262  0.3873
 3487TIP3   OH231875   3.527   6.630  14.179 -0.2860 -0.1775  0.3973
 3487TIP3    H131876   3.494   6.720  14.189 -0.3228 -0.1572  0.1023
 3487TIP3    H231877   3.616   6.634  14.215 -0.2397  0.0097  0.2661
 3488TIP3   OH231878   5.639   6.660  12.022 -0.1334  0.3124 -0.1539
 3488TIP3    H131879   5.706   6.722  12.049 -1.0848  0.0549  3.0082
 3488TIP3    H231880   5.563   6.680  12.077 -0.9162 -2.7220  0.0034
 3489TIP3   OH231881   6.508   6.260  14.743  0.5914  0.6153 -0.4093
 3489TIP3    H131882   6.430   6.315  14.746  0.0982  0.0486 -2.2384
 3489TIP3    H231883   6.475   6.171  14.748  1.2797  0.4122  0.8234
 3490TIP3   OH231884   3.463   5.844  11.521  0.4148  0.6209 -0.5369
 3490TIP3    H131885   3.479   5.804  11.606 -0.3651 -0.1956 -0.7647
 3490TIP3    H231886   3.464   5.938  11.538  1.5677  0.4935  0.1290
 3491TIP3   OH231887   3.983   1.902  12.052  0.0932  0.1090  0.1073
 3491TIP3    H131888   3.984   1.912  12.147 -0.2870 -0.0176  0.1232
 3491TIP3    H231889   3.984   1.807  12.038  1.9333  0.1348 -0.0312
 3492TIP3   OH231890   3.071   2.025  10.949  0.0826 -0.1422 -0.2066
 3492TIP3    H131891   3.055   2.041  11.042  0.7674  0.8453 -0.2585
 3492TIP3    H231892   3.068   1.929  10.940 -3.4831 -0.1520  0.1943
 3493TIP3   OH231893   5.143   5.328  12.807  0.2002 -0.0083  0.2589
 3493TIP3    H131894   5.219   5.302  12.859  1.6074 -0.5900 -2.0499
 3493TIP3    H231895   5.179   5.361  12.725 -2.0310 -0.6193 -1.0214
 3494TIP3   OH231896   0.261   6.413  13.169 -0.0860 -0.1445 -0.3770
 3494TIP3    H131897   0.332   6.383  13.113  0.3717 -0.8958  0.5868
 3494TIP3    H231898   0.289   6.498  13.202 -0.7853  0.7532 -2.0377
 3495TIP3   OH231899   2.184   6.304  10.471 -0.4590 -0.4634 -0.1413
 3495TIP3    H131900   2.232   6.346  10.543  0.3605  1.1467 -1.5980
 3495TIP3    H231901   2.193   6.365  10.398 -2.3801 -1.4701 -1.2457
 3496TIP3   OH231902   2.842   6.787  11.391  0.3911  0.0895 -0.0048
 3496TIP3    H131903   2.934   6.770  11.413  0.8095  0.6644 -1.2916
 3496TIP3    H231904   2.796   6.777  11.474  1.9854  2.4425  1.2168
 3497TIP3   OH231905   2.284   6.130  11.462 -0.6234 -0.0638 -0.3129
 3497TIP3    H131906   2.288   6.168  11.550 -1.4189  0.4558 -0.4864
 3497TIP3    H231907   2.250   6.202  11.408  1.6248  0.2097 -1.3869
 3498TIP3   OH231908   3.430   5.933  12.088  0.0109 -1.2814 -0.3487
 3498TIP3    H131909   3.406   5.905  12.176 -1.5944  0.3612 -0.2458
 3498TIP3    H231910   3.521   5.961  12.097  0.2970 -2.4218  0.4696
 3499TIP3   OH231911   3.662   1.235  14.042 -0.0447  0.4429 -0.0353
 3499TIP3    H131912   3.724   1.299  14.077  1.1859 -0.4500 -0.5333
 3499TIP3    H231913   3.711   1.189  13.974 -0.9818 -0.8785  0.1679
 3500TIP3   OH231914   0.901   7.088  15.051  0.3955 -0.2319  0.1959
 3500TIP3    H131915   0.915   7.162  15.109  1.3051 -0.5316  0.3689
 3500TIP3    H231916   0.973   7.092  14.989  1.1041 -1.6331  0.9087
 3501TIP3   OH231917   3.823   3.399  12.249  0.4774 -0.3245  0.0293
 3501TIP3    H131918   3.733   3.408  12.281  0.1737 -0.3042 -0.8193
 3501TIP3    H231919   3.877   3.400  12.328 -0.1474  1.2955  0.4611
 3502TIP3   OH231920   3.180   0.236  11.389  0.1603  0.5438 -0.4102
 3502TIP3    H131921   3.275   0.237  11.390  0.1910 -1.0065 -0.1486
 3502TIP3    H231922   3.156   0.172  11.456 -1.0909  1.6956  0.2634
 3503TIP3   OH231923   5.238   0.126  11.833 -0.4450  0.2471  0.4559
 3503TIP3    H131924   5.199   0.185  11.897 -1.4307  0.7050 -0.5318
 3503TIP3    H231925   5.198   0.041  11.851 -1.1897  0.5076  0.0757
 3504TIP3   OH231926   1.314   3.679  12.086 -0.1501 -0.4878  0.2631
 3504TIP3    H131927   1.350   3.741  12.023 -1.3084  0.4731  0.5260
 3504TIP3    H231928   1.254   3.731  12.140 -1.7197 -1.9755  0.0025
 3505TIP3   OH231929   0.768   1.486  12.402 -0.3814  0.2956 -0.0169
 3505TIP3    H131930   0.810   1.564  12.438 -0.1931 -0.5915  1.7607
 3505TIP3    H231931   0.675   1.499  12.419 -0.5042  0.7860 -1.0349
 3506TIP3   OH231932   5.066   5.988  14.523 -0.5117  0.4331  0.1643
 3506TIP3    H131933   5.125   6.063  14.512 -1.4523  1.3182  1.0315
 3506TIP3    H231934   5.107   5.935  14.592  0.6358 -0.3596 -1.0936
 3507TIP3   OH231935   0.993   6.685  14.912  0.2289 -0.1723 -0.4557
 3507TIP3    H131936   1.070   6.696  14.855 -0.2129 -0.9108 -1.2102
 3507TIP3    H231937   0.919   6.711  14.858 -0.2550 -1.4249 -0.4221
 3508TIP3   OH231938   1.178   7.013   1.426  0.0010 -0.0607  0.1408
 3508TIP3    H131939   1.225   6.932   1.407 -0.2930  0.3376 -2.4290
 3508TIP3    H231940   1.121   6.990   1.499 -0.0862 -2.1881 -0.5502
 3509TIP3   OH231941   3.737   2.798  11.572 -0.2951  0.0131 -0.3440
 3509TIP3    H131942   3.801   2.852  11.618 -1.5636 -0.2265  1.8038
 3509TIP3    H231943   3.762   2.708  11.592 -3.1651 -0.0886  3.3814
 3510TIP3   OH231944   1.769   0.430  10.543  0.2451 -0.1382 -0.0491
 3510TIP3    H131945   1.817   0.483  10.607  2.4300  0.5428 -2.1348
 3510TIP3    H231946   1.705   0.491  10.505 -0.3589 -0.2619  0.7733
 3511TIP3   OH231947   0.710   6.845  10.361  0.7251 -0.4596 -0.7943
 3511TIP3    H131948   0.745   6.933  10.375  0.0805 -0.2243 -0.6406
 3511TIP3    H231949   0.673   6.820  10.446  0.0524 -0.4889 -1.0924
 3512TIP3   OH231950   3.169   6.439  13.071  0.3852 -0.5872 -0.4833
 3512TIP3    H131951   3.103   6.404  13.012  0.1426 -0.4072 -0.3172
 3512TIP3    H231952   3.138   6.527  13.094  0.4840 -0.6508 -0.0990
 3513TIP3   OH231953   1.366   1.219  13.533 -0.1584 -0.4602  0.0787
 3513TIP3    H131954   1.459   1.231  13.514 -0.4141  0.5399 -0.5519
 3513TIP3    H231955   1.365   1.164  13.611  0.9531 -1.2906 -0.4752
 3514TIP3   OH231956   3.566   4.995  11.933  0.2080 -0.1659 -0.0293
 3514TIP3    H131957   3.637   4.970  11.992 -0.6085 -1.5050  0.4012
 3514TIP3    H231958   3.578   4.940  11.856 -0.2432 -0.2325 -0.0511
 3515TIP3   OH231959   3.062   5.499  13.061  0.4655  0.6734 -0.2631
 3515TIP3    H131960   3.056   5.583  13.015 -1.6806  0.4938 -0.3359
 3515TIP3    H231961   3.060   5.522  13.153 -0.5670  0.6796 -0.2848
 3516TIP3   OH231962   6.106   0.490  12.297  0.0918 -0.0954  0.4246
 3516TIP3    H131963   6.087   0.526  12.210  0.5935 -0.4666  0.1626
 3516TIP3    H231964   6.201   0.483  12.300  0.0238 -0.9245  0.6669
 3517TIP3   OH231965   4.317   2.903  12.782  0.4769  0.0250 -0.2713
 3517TIP3    H131966   4.412   2.911  12.790  0.4217  2.2742 -1.3529
 3517TIP3    H231967   4.293   2.968  12.715 -1.7091 -1.1830 -0.7169
 3518TIP3   OH231968   3.477   4.053   9.784 -0.1652  0.0282  0.4329
 3518TIP3    H131969   3.468   3.960   9.804  2.4912 -0.2390  0.5366
 3518TIP3    H231970   3.520   4.090   9.861  1.3905  0.8047 -0.7875
 3519TIP3   OH231971   4.689   0.988  12.444  0.1833 -0.5109 -0.1677
 3519TIP3    H131972   4.625   0.968  12.512  1.6169 -1.9227  0.7960
 3519TIP3    H231973   4.697   0.907  12.394  0.4042 -0.0070 -0.9503
 3520TIP3   OH231974   3.043   0.767  12.618  0.0320  0.1620  0.1748
 3520TIP3    H131975   3.112   0.819  12.659 -0.7630  0.8077  0.7080
 3520TIP3    H231976   3.020   0.817  12.539 -0.1576  0.2023  0.2548
 3521TIP3   OH231977   3.453   2.377  13.532  0.4601  0.4996  0.6327
 3521TIP3    H131978   3.512   2.327  13.588  1.5221  1.3187  0.2619
 3521TIP3    H231979   3.487   2.363  13.443 -0.8272 -0.2755  0.2604
 3522TIP3   OH231980   2.881   5.298  14.366 -0.3829 -0.0263  0.3696
 3522TIP3    H131981   2.827   5.369  14.331 -1.9806  0.1090  2.9543
 3522TIP3    H231982   2.949   5.341  14.416  0.8650 -0.2551 -1.1077
 3523TIP3   OH231983   4.214   3.488  11.736  0.2072 -0.3404 -0.0394
 3523TIP3    H131984   4.166   3.507  11.655 -0.6707  1.4602  0.8792
 3523TIP3    H231985   4.160   3.423  11.781  0.1717 -0.5720 -0.4094
 3524TIP3   OH231986   0.225   1.035  12.996 -0.9383 -0.2484  0.2203
 3524TIP3    H131987   0.269   1.081  13.068  0.6341  1.7398 -1.9407
 3524TIP3    H231988   0.244   0.942  13.012 -0.6516  0.1423  2.3726
 3525TIP3   OH231989   1.289   6.002  13.003  0.1427 -0.2357 -0.2361
 3525TIP3    H131990   1.351   6.058  12.955  0.2038 -1.0126 -1.0663
 3525TIP3    H231991   1.327   5.915  12.998 -0.9049 -0.6773 -0.5292
 3526TIP3   OH231992   1.990   1.131  13.002 -0.2319  0.2554  0.4381
 3526TIP3    H131993   2.009   1.224  12.994 -0.9550  0.3935  0.2562
 3526TIP3    H231994   1.966   1.119  13.094 -0.0885  0.2417  0.4735
 3527TIP3   OH231995   3.715   6.509   0.839 -0.4935 -0.4111 -0.0228
 3527TIP3    H131996   3.769   6.556   0.775 -0.1618 -0.6681  0.0712
 3527TIP3    H231997   3.743   6.543   0.924 -0.1400 -0.8997  0.0549
 3528TIP3   OH231998   0.349   6.485   9.698  0.3191 -0.1024 -0.3371
 3528TIP3    H131999   0.355   6.476   9.794  1.0342 -0.5288 -0.4155
 3528TIP3    H232000   0.426   6.538   9.676  0.5746 -0.6592 -0.7654
 3529TIP3   OH232001   1.317   6.429  15.290  0.2792  0.2990 -0.1771
 3529TIP3    H132002   1.371   6.487  15.236  0.1466 -0.3672 -1.0359
 3529TIP3    H232003   1.380   6.383  15.346  0.3483  1.5717  0.8049
 3530TIP3   OH232004   3.648   0.296  10.944  0.4103  0.0703  0.1995
 3530TIP3    H132005   3.691   0.300  10.859 -1.6213 -2.2086 -0.9876
 3530TIP3    H232006   3.601   0.380  10.951  2.4644  1.2567  0.1631
 3531TIP3   OH232007   0.531   7.045  11.735 -0.5001 -0.3705 -0.4880
 3531TIP3    H132008   0.575   6.961  11.748 -1.4651 -0.7276  0.5211
 3531TIP3    H232009   0.457   7.043  11.795 -1.7454  0.3430 -1.9655
 3532TIP3   OH232010   3.462   2.019  14.440 -0.2790  0.3414  0.3935
 3532TIP3    H132011   3.518   1.943  14.455 -0.8058  0.0810  1.0765
 3532TIP3    H232012   3.389   2.007  14.500 -0.0273  1.7402  0.9940
 3533TIP3   OH232013   6.217   5.832  12.571  1.0657  0.1906 -0.4596
 3533TIP3    H132014   6.155   5.884  12.521  0.6803  1.6707  1.4969
 3533TIP3    H232015   6.185   5.836  12.662  2.1231 -1.8397  0.0363
 3534TIP3   OH232016   4.335   0.070  14.275 -0.3076 -0.4745  0.5723
 3534TIP3    H132017   4.407   0.094  14.217 -1.4280  0.5273 -0.4243
 3534TIP3    H232018   4.377   0.027  14.350  1.5660  2.5853  1.3205
 3535TIP3   OH232019   1.361   0.530  13.843  0.0408  0.0199 -0.7666
 3535TIP3    H132020   1.299   0.512  13.914  2.7665 -2.9419  0.9919
 3535TIP3    H232021   1.316   0.503  13.763 -1.5407 -0.4828  0.2828
 3536TIP3   OH232022   3.777   1.651   9.777 -0.1340 -0.2447  0.0565
 3536TIP3    H132023   3.688   1.623   9.799 -0.2618 -0.0069 -0.1592
 3536TIP3    H232024   3.830   1.573   9.793 -0.4356 -0.5035 -0.1824
 3537TIP3   OH232025   1.788   6.808  10.213  0.3331  0.4093  0.4168
 3537TIP3    H132026   1.776   6.837  10.123 -1.1455 -1.2569  0.0587
 3537TIP3    H232027   1.700   6.809  10.251  0.6159 -1.0463  1.1671
 3538TIP3   OH232028   2.019   6.926  13.287  0.4080  0.0761  0.2508
 3538TIP3    H132029   2.044   6.890  13.372  1.2258 -1.8872 -0.7859
 3538TIP3    H232030   2.091   6.985  13.264  0.1446  0.6723  0.9491
 3539TIP3   OH232031   1.238   5.726  10.421  0.3129  0.2940 -0.4629
 3539TIP3    H132032   1.209   5.675  10.346 -1.8715 -0.6410  0.9857
 3539TIP3    H232033   1.184   5.804  10.420  0.1456  0.1911  0.2467
 3540TIP3   OH232034   6.139   4.425  10.728 -0.1885 -0.3380 -0.2758
 3540TIP3    H132035   6.164   4.456  10.815  1.8194 -2.3232 -0.1198
 3540TIP3    H232036   6.184   4.484  10.668 -2.0932  1.4525 -0.0478
 3541TIP3   OH232037   0.427   6.926  13.200 -0.1221  0.1748  0.2504
 3541TIP3    H132038   0.380   6.971  13.271  0.7682  0.0701  0.9083
 3541TIP3    H232039   0.462   6.997  13.146  0.6508  0.2687  0.8724
 3542TIP3   OH232040   5.587   0.833  10.319 -0.6189 -0.0035  0.5298
 3542TIP3    H132041   5.656   0.854  10.382  1.4853 -1.5363 -1.2055
 3542TIP3    H232042   5.631   0.782  10.251 -3.7154 -2.0514 -0.0267
 3543TIP3   OH232043   5.065   4.549  12.559  0.4992  0.3051  0.5600
 3543TIP3    H132044   5.000   4.549  12.489  0.1269 -1.1260  0.8766
 3543TIP3    H232045   5.112   4.632  12.550 -1.5459  1.4787  0.4930
 3544TIP3   OH232046   6.281   1.078  12.173  0.3081 -0.4669  0.2531
 3544TIP3    H132047   6.332   1.156  12.153 -0.9898  0.5098  0.6677
 3544TIP3    H232048   6.332   1.006  12.137  1.2350  0.6242 -0.6563
 3545TIP3   OH232049   2.508   0.235  13.134  0.1764 -0.1908  0.5779
 3545TIP3    H132050   2.504   0.204  13.044 -0.6168  0.0419  0.5247
 3545TIP3    H232051   2.576   0.182  13.175 -0.9696 -1.8258  0.4241
 3546TIP3   OH232052   2.123   1.904  10.780  0.4066  0.4150 -0.4567
 3546TIP3    H132053   2.132   1.982  10.834 -1.5216 -0.8333  1.7380
 3546TIP3    H232054   2.056   1.928  10.715 -0.6695  0.3649  0.6279
 3547TIP3   OH232055   4.477   3.602  14.463 -0.6923  0.2835 -0.7685
 3547TIP3    H132056   4.421   3.658  14.517 -3.0580 -2.0461 -0.6951
 3547TIP3    H232057   4.531   3.554  14.527  0.4496  1.5042 -0.7816
 3548TIP3   OH232058   6.554   6.926  11.120 -0.1381  0.1183 -0.0776
 3548TIP3    H132059   6.567   6.864  11.049 -0.1876  0.2588 -0.2092
 3548TIP3    H232060   6.489   6.884  11.177 -1.4388  0.7946 -1.0446
 3549TIP3   OH232061   0.403   4.612  13.926  0.5762 -0.2101  0.4171
 3549TIP3    H132062   0.390   4.698  13.966  1.4601 -0.7229  1.8559
 3549TIP3    H232063   0.316   4.573  13.924  0.4934 -0.1130  1.7350
 3550TIP3   OH232064   6.495   1.217  12.064  0.3461 -0.2786  0.4852
 3550TIP3    H132065   6.567   1.202  12.125  0.4045 -1.6082  0.1097
 3550TIP3    H232066   6.535   1.206  11.977 -0.2026 -0.6092  0.2654
 3551TIP3   OH232067   1.003   6.999  12.287  0.1474  0.0740 -0.3178
 3551TIP3    H132068   0.982   7.081  12.244 -0.7125 -0.1536 -0.3430
 3551TIP3    H232069   0.975   6.931  12.225 -0.2598 -0.2440  0.2060
 3552TIP3   OH232070   5.155   3.023  10.959 -0.1147  0.4881  0.2143
 3552TIP3    H132071   5.201   3.107  10.952 -0.2820  0.6011  0.4758
 3552TIP3    H232072   5.177   2.978  10.878  3.8433 -1.1711  2.0554
 3553TIP3   OH232073   6.740   2.534  15.046 -0.4156 -0.1077  0.1222
 3553TIP3    H132074   6.788   2.535  15.128 -0.6570 -0.0643  0.2651
 3553TIP3    H232075   6.789   2.593  14.989 -0.6099  0.3831  0.4518
 3554TIP3   OH232076   1.740   0.699   1.498  0.0861  0.5855  0.0791
 3554TIP3    H132077   1.696   0.749   1.429 -0.6907  1.8298  1.4563
 3554TIP3    H232078   1.829   0.734   1.501  0.0370  0.7227 -0.0850
 3555TIP3   OH232079   2.812   6.511  13.217 -0.0052  0.2141 -0.2560
 3555TIP3    H132080   2.763   6.487  13.138 -0.0007 -0.2670 -0.1143
 3555TIP3    H232081   2.845   6.428  13.251  0.9785  0.5420 -0.3925
 3556TIP3   OH232082   2.901   5.281  11.504 -0.1836 -0.2414 -0.2173
 3556TIP3    H132083   2.984   5.329  11.503 -0.4067  0.1284 -1.2213
 3556TIP3    H232084   2.841   5.335  11.452 -0.6922 -1.1396 -0.5798
 3557TIP3   OH232085   4.594   1.286  11.459 -0.2174  0.1542  0.0177
 3557TIP3    H132086   4.505   1.316  11.441 -0.3728 -0.5816 -0.4471
 3557TIP3    H232087   4.631   1.268  11.372 -0.2503 -1.3569  0.3113
 3558TIP3   OH232088   5.146   1.251  10.342 -0.0278 -0.0516 -0.6980
 3558TIP3    H132089   5.160   1.274  10.250  1.3307 -0.5231 -0.6246
 3558TIP3    H232090   5.146   1.155  10.344  1.5353 -0.0614 -0.0055
 3559TIP3   OH232091   2.923   1.729  12.528 -0.3555 -0.1190 -0.0363
 3559TIP3    H132092   2.907   1.665  12.459 -0.2732  0.7218 -0.8472
 3559TIP3    H232093   3.001   1.697  12.573 -0.3115 -0.5804 -0.4384
 3560TIP3   OH232094   6.298   5.105  11.717  0.2550 -0.2897  0.4084
 3560TIP3    H132095   6.262   5.042  11.779  0.3408 -0.6403  0.1047
 3560TIP3    H232096   6.376   5.140  11.760  0.8060 -1.1685  0.1382
 3561TIP3   OH232097   4.103   6.936  14.745  0.2884  0.3042  0.2141
 3561TIP3    H132098   4.099   6.843  14.722 -0.1151  0.8001 -1.8646
 3561TIP3    H232099   4.078   6.940  14.837 -1.7249 -1.4367 -0.2435
 3562TIP3   OH232100   2.346   2.186  13.870 -0.4961  0.3774 -0.1497
 3562TIP3    H132101   2.336   2.252  13.802 -1.9452 -1.2715 -1.5921
 3562TIP3    H232102   2.435   2.198  13.902  0.2929  1.0552 -2.4878
 3563TIP3   OH232103   1.501   2.314  10.214 -0.0301 -0.0785  0.8078
 3563TIP3    H132104   1.548   2.386  10.171 -0.6399 -0.5579 -0.6780
 3563TIP3    H232105   1.491   2.344  10.305 -0.2779  1.7144  0.2098
 3564TIP3   OH232106   3.708   2.691   0.349 -0.5023  0.4383 -0.4903
 3564TIP3    H132107   3.750   2.651   0.273  1.4735  0.6534  0.4657
 3564TIP3    H232108   3.615   2.696   0.325 -0.3132 -1.8708 -1.8417
 3565TIP3   OH232109   1.780   2.138  12.218  0.5824 -0.3912  0.0291
 3565TIP3    H132110   1.685   2.149  12.219  0.6925  1.2518 -2.4651
 3565TIP3    H232111   1.795   2.062  12.162  0.6774 -1.7997  1.9366
 3566TIP3   OH232112   7.128   5.286  10.951 -0.2734 -0.0908 -0.5432
 3566TIP3    H132113   7.101   5.236  10.874 -1.8050 -2.0553  1.2001
 3566TIP3    H232114   7.194   5.231  10.993 -0.1117  0.5397  0.0291
 3567TIP3   OH232115   4.128   5.429  13.285  0.0108  0.5581 -0.1210
 3567TIP3    H132116   4.210   5.408  13.241  0.6954  3.0875 -0.1028
 3567TIP3    H232117   4.149   5.425  13.379 -0.8188 -2.3302 -0.0136
 3568TIP3   OH232118   2.304   3.411  12.128 -0.6116 -0.4984  0.4172
 3568TIP3    H132119   2.263   3.484  12.081  2.3009 -0.3944 -2.1411
 3568TIP3    H232120   2.358   3.367  12.062 -0.0597 -3.2475  2.6083
 3569TIP3   OH232121   2.899   6.851  10.907 -0.3614  0.5991 -0.3215
 3569TIP3    H132122   2.839   6.846  10.981  1.1194  0.5667  0.8948
 3569TIP3    H232123   2.849   6.897  10.839 -1.7044  0.6789  0.6912
 3570TIP3   OH232124   2.286   3.161  12.608  0.0372 -0.4071 -0.0853
 3570TIP3    H132125   2.204   3.113  12.621  1.7531 -3.4273  0.0544
 3570TIP3    H232126   2.282   3.192  12.517 -0.6696 -1.6945 -0.4985
 3571TIP3   OH232127   3.598   0.193  13.645  0.0490 -0.2148 -0.1468
 3571TIP3    H132128   3.529   0.188  13.579  0.4184  1.3807 -0.6750
 3571TIP3    H232129   3.552   0.218  13.725 -0.5213 -2.9789  0.4384
 3572TIP3   OH232130   5.326   3.430  15.055  0.0078 -0.1732  0.1267
 3572TIP3    H132131   5.371   3.366  15.110  2.0452  1.6771  0.6750
 3572TIP3    H232132   5.301   3.380  14.977  2.5597 -1.3873  0.0471
 3573TIP3   OH232133   5.363   7.003   1.576  0.1000 -0.3929 -0.0254
 3573TIP3    H132134   5.357   7.095   1.603  0.5036  0.1891 -1.8896
 3573TIP3    H232135   5.454   6.978   1.595 -0.2613 -0.7016  1.3580
 3574TIP3   OH232136   4.894   4.518  13.599 -0.0746  0.4997  0.3214
 3574TIP3    H132137   4.958   4.523  13.669 -0.0335  0.4561  0.2865
 3574TIP3    H232138   4.822   4.467  13.635  0.2254 -0.0754  0.1182
 3575TIP3   OH232139   4.813   1.334  11.796 -0.4065  0.5960 -0.0359
 3575TIP3    H132140   4.743   1.320  11.859 -0.4272 -0.3658 -0.2621
 3575TIP3    H232141   4.769   1.371  11.719 -0.5266  0.8198  0.1386
 3576TIP3   OH232142   5.804   2.713   0.660  0.1752 -0.3038  0.2480
 3576TIP3    H132143   5.856   2.721   0.579  1.6182  1.0632  1.2845
 3576TIP3    H232144   5.846   2.641   0.708  0.5176  0.1692  0.6568
 3577TIP3   OH232145   5.986   6.356  13.660  0.5070 -0.0659  0.1255
 3577TIP3    H132146   5.998   6.272  13.704  0.3443 -0.1322  0.0463
 3577TIP3    H232147   5.947   6.412  13.727 -1.0878 -0.5886 -0.3410
 3578TIP3   OH232148   5.199   1.371  14.385  0.9141 -0.5956 -0.3830
 3578TIP3    H132149   5.198   1.293  14.329  0.1903 -0.3835 -0.6593
 3578TIP3    H232150   5.209   1.444  14.325  0.3671 -0.3853 -0.2193
 3579TIP3   OH232151   5.426   6.794  14.913 -0.4086 -0.1600  0.7364
 3579TIP3    H132152   5.514   6.833  14.908 -1.3989  2.1644  0.6232
 3579TIP3    H232153   5.399   6.809  15.004 -0.7135 -0.8022  0.7513
 3580TIP3   OH232154   6.942   5.644  15.244  0.1548 -0.1773  0.0286
 3580TIP3    H132155   7.017   5.585  15.254  0.5580  0.3223 -0.0348
 3580TIP3    H232156   6.880   5.595  15.190  0.0980 -0.9034  0.7559
 3581TIP3   OH232157   4.260   1.767  12.685 -0.4840 -0.2566 -0.5257
 3581TIP3    H132158   4.312   1.695  12.721 -0.3902  1.4536  2.9627
 3581TIP3    H232159   4.303   1.788  12.602 -0.4575 -4.0690 -1.5725
 3582TIP3   OH232160   5.379   0.756  12.456  0.4583  0.1074  0.2151
 3582TIP3    H132161   5.381   0.717  12.543  0.3413  1.9201  1.0696
 3582TIP3    H232162   5.298   0.723  12.416 -0.0704  0.1639  1.2340
 3583TIP3   OH232163   0.492   1.460  11.925  0.1008 -0.5819 -0.3048
 3583TIP3    H132164   0.443   1.447  11.844 -0.0881  2.7267 -0.7675
 3583TIP3    H232165   0.567   1.514  11.899  0.3587  0.0135  1.6099
 3584TIP3   OH232166   2.710   2.767  11.039  0.2605  0.1976 -0.0297
 3584TIP3    H132167   2.640   2.826  11.067  0.6982  1.8806 -2.3295
 3584TIP3    H232168   2.783   2.785  11.098  0.0382  1.2288 -0.0601
 3585TIP3   OH232169   3.180   1.339  12.614 -0.1490 -0.2238 -0.8821
 3585TIP3    H132170   3.170   1.365  12.706 -2.8367 -1.6414 -0.7371
 3585TIP3    H232171   3.185   1.422  12.566  3.4404  0.5569  0.6892
 3586TIP3   OH232172   1.734   5.715  10.291  0.1715  0.1125  0.7789
 3586TIP3    H132173   1.812   5.664  10.271  0.8176  0.9228  1.1753
 3586TIP3    H232174   1.698   5.675  10.370  0.8798  0.4690  1.2975
 3587TIP3   OH232175   3.047   5.530  14.077  0.2511  0.2334  0.2816
 3587TIP3    H132176   3.066   5.450  14.127  1.4854  1.0900  1.2062
 3587TIP3    H232177   2.981   5.503  14.013  0.9216 -1.6119  0.3408
 3588TIP3   OH232178   6.355   3.029  10.783  0.1649  0.0738  0.1881
 3588TIP3    H132179   6.306   3.111  10.772  0.6880  0.2528 -0.8909
 3588TIP3    H232180   6.297   2.974  10.836 -2.3456 -0.6403 -3.0994
 3589TIP3   OH232181   2.961   6.799  12.193 -0.0684  0.0776 -0.9166
 3589TIP3    H132182   2.983   6.867  12.128 -0.1960 -0.1660 -1.2167
 3589TIP3    H232183   2.869   6.779  12.176 -1.2515  2.7671  1.8582
 3590TIP3   OH232184   3.283   2.885  13.947 -0.0397 -0.2709  0.4643
 3590TIP3    H132185   3.255   2.862  14.036 -1.0639  0.6148  0.3692
 3590TIP3    H232186   3.339   2.962  13.960 -1.6774  0.9765  0.1632
 3591TIP3   OH232187   0.385   4.031  13.623  0.2005  0.0111 -0.3061
 3591TIP3    H132188   0.419   4.024  13.712 -1.7375  0.8366  0.5321
 3591TIP3    H232189   0.338   3.949  13.607 -0.2155  0.2263 -0.2159
 3592TIP3   OH232190   5.920   0.971   0.547 -0.1701  0.1357  0.4714
 3592TIP3    H132191   5.869   0.896   0.579 -1.0136  0.5558  0.1280
 3592TIP3    H232192   5.854   1.036   0.524  0.3895 -0.3311 -2.6286
 3593TIP3   OH232193   5.505   2.921  13.332 -0.5135  0.0761  0.2198
 3593TIP3    H132194   5.467   2.991  13.385 -2.5574  0.3510 -1.5698
 3593TIP3    H232195   5.575   2.885  13.388  0.2878  3.1837  1.3682
 3594TIP3   OH232196   4.033   3.477  14.124 -0.0801 -0.2289 -0.0731
 3594TIP3    H132197   4.049   3.442  14.036  1.2876 -1.0197  0.4831
 3594TIP3    H232198   4.092   3.552  14.131 -0.1447 -0.2014  0.1994
 3595TIP3   OH232199   3.357   3.219  10.867 -0.6731 -0.0371 -0.0248
 3595TIP3    H132200   3.340   3.307  10.835 -0.9565 -0.6120 -1.4903
 3595TIP3    H232201   3.398   3.232  10.952 -0.0436  1.5253 -0.5516
 3596TIP3   OH232202   6.332   5.045  14.719 -0.0454  0.2789 -0.0762
 3596TIP3    H132203   6.414   4.997  14.706 -0.2839 -0.0481 -0.3611
 3596TIP3    H232204   6.360   5.127  14.760  0.5168  0.5159 -0.9003
 3597TIP3   OH232205   4.248   4.221  11.796 -0.2720  0.2566  0.2921
 3597TIP3    H132206   4.218   4.130  11.798  2.7592 -0.7629  0.8971
 3597TIP3    H232207   4.306   4.230  11.871 -0.2056  2.5868  0.0069
 3598TIP3   OH232208   5.586   2.350  11.563  0.0834 -0.2057 -0.0844
 3598TIP3    H132209   5.542   2.411  11.622  0.2428  0.9034 -1.1131
 3598TIP3    H232210   5.634   2.291  11.622  1.1359  1.5737  0.8695
 3599TIP3   OH232211   0.890   1.996  14.584 -0.3477  0.7811  0.1083
 3599TIP3    H132212   0.896   2.007  14.489  1.1547  0.6922  0.1837
 3599TIP3    H232213   0.942   2.067  14.620 -0.0310  0.1873  0.8405
 3600TIP3   OH232214   5.340   2.131   9.739 -0.4250  0.3432 -0.4446
 3600TIP3    H132215   5.259   2.099   9.779 -0.2853 -0.5251 -0.8419
 3600TIP3    H232216   5.317   2.146   9.647  0.1771 -1.1655 -0.8725
 3601TIP3   OH232217   6.821   0.133  13.595  0.1094 -0.1113  0.0940
 3601TIP3    H132218   6.830   0.224  13.567 -0.1718  0.6534  2.3761
 3601TIP3    H232219   6.861   0.082  13.524  0.5281  1.7952 -1.0774
 3602TIP3   OH232220   4.931   1.073  12.102 -0.3642  0.4057 -0.3378
 3602TIP3    H132221   4.902   1.017  12.030  1.6506 -0.2261 -0.7002
 3602TIP3    H232222   5.020   1.100  12.077 -0.0783  1.1100  1.3651
 3603TIP3   OH232223   0.139   6.770  13.178 -0.8406 -0.2674 -1.1574
 3603TIP3    H132224   0.178   6.808  13.099 -2.6467  0.0766 -1.8979
 3603TIP3    H232225   0.073   6.709  13.146 -3.1929  1.5317  0.0589
 3604TIP3   OH232226   5.773   0.800  10.522  0.0266 -0.6630 -0.3305
 3604TIP3    H132227   5.822   0.875  10.556 -0.3784 -0.4937 -0.1215
 3604TIP3    H232228   5.733   0.760  10.599  0.0850 -0.9846 -0.4634
 3605TIP3   OH232229   0.810   1.903   9.901  0.3437  0.0938  0.1239
 3605TIP3    H132230   0.759   1.981   9.919  0.0147 -0.3207  1.0176
 3605TIP3    H232231   0.842   1.915   9.811 -0.4636  0.8216 -0.0718
 3606TIP3   OH232232   2.983   4.358  11.985 -0.2368  0.1768 -1.0700
 3606TIP3    H132233   3.057   4.413  12.012 -1.2759  1.1198 -0.0705
 3606TIP3    H232234   3.021   4.296  11.923  1.7949 -0.6613  0.9473
 3607TIP3   OH232235   4.156   0.948  12.311  0.1580 -0.6314  0.0889
 3607TIP3    H132236   4.135   0.933  12.404  0.7448 -0.4962  0.2444
 3607TIP3    H232237   4.083   1.000  12.278  1.4525  2.0112  1.2539
 3608TIP3   OH232238   6.920   3.454  12.517  0.1277  0.1443 -0.1664
 3608TIP3    H132239   6.832   3.417  12.529  1.2849 -2.2027  1.6354
 3608TIP3    H232240   6.947   3.424  12.431 -0.6499  0.5017 -0.5432
 3609TIP3   OH232241   6.156   2.490   1.624 -0.3399  0.4871  0.3334
 3609TIP3    H132242   6.078   2.522   1.578 -0.9814 -0.5354  0.6731
 3609TIP3    H232243   6.213   2.457   1.555 -1.3132 -1.0729  0.2520
 3610TIP3   OH232244   4.761   2.103  10.980  0.3167  0.0027 -0.0061
 3610TIP3    H132245   4.851   2.075  10.962  0.7893  0.5839  1.3723
 3610TIP3    H232246   4.727   2.130  10.895  1.2679 -0.7184 -0.6281
 3611TIP3   OH232247   2.691   0.630  11.486 -0.3037 -0.6314  0.4335
 3611TIP3    H132248   2.694   0.684  11.407  0.0642  0.4081  1.1379
 3611TIP3    H232249   2.783   0.614  11.507 -0.3868 -0.3812  0.9970
 3612TIP3   OH232250   2.449   3.875  13.491 -0.1561  0.0753 -0.5276
 3612TIP3    H132251   2.476   3.789  13.522  1.4850  0.0130 -2.0268
 3612TIP3    H232252   2.363   3.860  13.451 -1.0472 -0.3462  1.4998
 3613TIP3   OH232253   5.640   4.374  13.002 -0.0862  0.1174 -0.0294
 3613TIP3    H132254   5.620   4.457  12.958  1.5429  0.3288 -0.4016
 3613TIP3    H232255   5.608   4.307  12.942 -3.0986  0.4618  1.1023
 3614TIP3   OH232256   4.794   1.592  10.731  0.3346 -0.1031 -0.0634
 3614TIP3    H132257   4.819   1.526  10.796 -0.2494 -1.0107 -0.7500
 3614TIP3    H232258   4.846   1.570  10.654 -1.9341 -1.4824 -1.2208
 3615TIP3   OH232259   0.987   3.279  11.471 -0.0130 -0.2258  0.4247
 3615TIP3    H132260   0.920   3.329  11.424 -0.9247  1.1745  3.0952
 3615TIP3    H232261   0.965   3.188  11.453 -1.4807  0.2540 -0.3200
 3616TIP3   OH232262   4.493   3.522  10.553 -0.2275 -0.4734 -0.7126
 3616TIP3    H132263   4.583   3.554  10.561 -0.2842 -0.1206 -1.3806
 3616TIP3    H232264   4.501   3.427  10.554 -0.0808 -0.4673  1.6182
 3617TIP3   OH232265   3.067   1.418   0.237  0.2218 -0.1828 -0.4556
 3617TIP3    H132266   3.064   1.377   0.150  0.8690  1.2457 -1.1825
 3617TIP3    H232267   3.004   1.490   0.231  1.6656  1.0997 -0.3856
 3618TIP3   OH232268   4.004   3.516  12.106 -0.5299 -0.7639  0.4739
 3618TIP3    H132269   3.930   3.467  12.141 -1.4563  1.3242  1.5574
 3618TIP3    H232270   4.032   3.467  12.029 -3.6621 -1.0942 -0.5060
 3619TIP3   OH232271   0.233   2.046  12.050  0.4276  0.5090  0.4300
 3619TIP3    H132272   0.190   2.126  12.079  1.7836  0.6868  2.0486
 3619TIP3    H232273   0.228   1.988  12.126  0.0467 -0.7217 -0.5099
 3620TIP3   OH232274   5.210   2.573  14.184  0.1892  0.4426 -0.4683
 3620TIP3    H132275   5.235   2.555  14.275  0.7751  1.9266 -0.3121
 3620TIP3    H232276   5.166   2.493  14.155  0.3520 -0.2033  0.9903
 3621TIP3   OH232277   1.094   3.127  15.111 -0.4290 -0.2183 -0.1811
 3621TIP3    H132278   1.021   3.187  15.125 -0.0865  0.1951 -0.1674
 3621TIP3    H232279   1.157   3.177  15.058 -0.2208 -0.6195 -0.3169
 3622TIP3   OH232280   5.267   3.673  11.418  0.4326  0.8744  0.7809
 3622TIP3    H132281   5.345   3.702  11.466  0.7945  1.1391  0.0409
 3622TIP3    H232282   5.276   3.577  11.415  2.3744  1.0990 -2.0411
 3623TIP3   OH232283   6.246   4.521  10.973  0.2484  0.4198 -0.1545
 3623TIP3    H132284   6.253   4.489  11.063  0.0988 -0.2681 -0.3838
 3623TIP3    H232285   6.262   4.615  10.980 -0.1214  0.4335  0.6436
 3624TIP3   OH232286   7.037   3.164  14.358 -0.1448 -0.4523  0.5391
 3624TIP3    H132287   6.956   3.205  14.328 -0.4630 -2.4668 -1.4101
 3624TIP3    H232288   7.066   3.220  14.430 -3.1233  0.4512  1.1062
 3625TIP3   OH232289   4.606   6.147  10.646  0.5914 -0.1415 -0.1340
 3625TIP3    H132290   4.630   6.239  10.636  3.3199 -1.0123 -1.9844
 3625TIP3    H232291   4.600   6.114  10.557 -1.2523 -1.5826  0.4926
 3626TIP3   OH232292   0.400   1.941  13.513 -0.1323  0.0525 -0.2727
 3626TIP3    H132293   0.471   1.922  13.451 -0.4160  0.1753 -0.6422
 3626TIP3    H232294   0.377   1.855  13.550  1.7049  0.2972  1.5060
 3627TIP3   OH232295   6.296   4.645  15.380  0.2757 -0.1912  0.1010
 3627TIP3    H132296   6.227   4.626  15.316  1.5107 -3.4324 -0.3737
 3627TIP3    H232297   6.360   4.696  15.332 -0.8002  1.0733 -0.0207
 3628TIP3   OH232298   0.937   5.974  13.260 -0.6427 -0.7307  0.2168
 3628TIP3    H132299   0.969   6.059  13.229 -1.1068 -0.4738  0.4331
 3628TIP3    H232300   0.856   5.960  13.212 -1.3800 -0.3217  1.3110
 3629TIP3   OH232301   3.933   0.565  10.202 -0.0354  0.6266  0.4633
 3629TIP3    H132302   3.999   0.576  10.271 -0.4084  1.4173  0.7026
 3629TIP3    H232303   3.911   0.654  10.176 -1.4351  0.3918  0.7997
 3630TIP3   OH232304   4.877   3.749  12.465 -0.0510  0.2946  0.2023
 3630TIP3    H132305   4.782   3.736  12.465  0.1480 -1.1979  0.2417
 3630TIP3    H232306   4.905   3.716  12.550  1.0159 -3.2666 -1.4459
 3631TIP3   OH232307   6.406   6.932  14.127  0.1012 -0.7838 -0.3137
 3631TIP3    H132308   6.336   6.960  14.068  0.3734 -0.1153 -0.3198
 3631TIP3    H232309   6.483   6.925  14.072  0.2265 -0.7104 -0.1490
 3632TIP3   OH232310   5.915   0.984  14.762  0.1297  0.0412  0.4576
 3632TIP3    H132311   6.008   0.970  14.742 -0.2548 -1.4803 -0.3620
 3632TIP3    H232312   5.914   1.057  14.824  1.9470 -0.5817  1.2456
 3633TIP3   OH232313   1.885   2.831  12.271 -0.7502  0.0081 -0.7159
 3633TIP3    H132314   1.802   2.880  12.266 -1.7907 -1.5029  0.9944
 3633TIP3    H232315   1.950   2.897  12.294 -2.3321  0.4925  2.7490
 3634TIP3   OH232316   3.205   2.726  12.163  0.0047 -0.3828 -0.3542
 3634TIP3    H132317   3.197   2.790  12.234 -0.7850 -1.6417  0.7046
 3634TIP3    H232318   3.281   2.755  12.114  0.3474  0.7170  0.7952
 3635TIP3   OH232319   5.550   2.233  13.390 -0.2044 -0.2139 -0.1623
 3635TIP3    H132320   5.538   2.244  13.296  2.3137 -1.2008 -0.6316
 3635TIP3    H232321   5.546   2.322  13.426  3.3704  0.6864 -1.8063
 3636TIP3   OH232322   4.088   5.087  14.339 -0.5339  0.0188 -0.0325
 3636TIP3    H132323   4.119   5.019  14.399 -0.2547 -0.3006 -0.5346
 3636TIP3    H232324   4.075   5.164  14.394 -0.7643 -0.4173  0.5207
 3637TIP3   OH232325   5.562   1.949  13.426  0.1501  0.3622  0.0971
 3637TIP3    H132326   5.562   2.043  13.407  0.8425  0.7287  1.8140
 3637TIP3    H232327   5.521   1.942  13.513  1.5107 -0.7625  0.6743
 3638TIP3   OH232328   1.741   4.621  15.187 -0.3249 -0.2118  0.3486
 3638TIP3    H132329   1.659   4.670  15.198 -1.3886 -1.8514 -0.0412
 3638TIP3    H232330   1.724   4.537  15.229  1.8827  0.1503  2.0360
 3639TIP3   OH232331   5.234   0.298  13.064 -0.1752 -0.2389 -0.5577
 3639TIP3    H132332   5.180   0.257  13.131 -0.0042 -0.0768 -0.3249
 3639TIP3    H232333   5.170   0.339  13.004 -0.3038  0.0510 -0.2198
 3640TIP3   OH232334   6.555   0.986  11.587 -0.3020 -0.0614 -0.7297
 3640TIP3    H132335   6.650   1.001  11.585 -0.8175  3.9220 -0.0652
 3640TIP3    H232336   6.527   1.000  11.497 -0.3242 -0.7271 -0.8245
 3641TIP3   OH232337   3.708   5.726  13.217  0.1733 -0.4309 -0.1907
 3641TIP3    H132338   3.788   5.689  13.180  1.8854  2.0941  0.8497
 3641TIP3    H232339   3.683   5.796  13.156 -0.4418 -0.2717  0.2334
 3642TIP3   OH232340   5.078   4.064  13.604 -0.4293  0.5484 -0.6147
 3642TIP3    H132341   5.102   3.985  13.555 -1.0722  1.5897 -2.6235
 3642TIP3    H232342   5.108   4.045  13.694  0.6970 -1.3996 -1.3540
 3643TIP3   OH232343   3.717   5.914  10.218  0.1805 -0.8795  0.5379
 3643TIP3    H132344   3.810   5.935  10.206  1.0327 -4.4303  0.5434
 3643TIP3    H232345   3.691   5.873  10.136 -1.0359 -1.1088  1.0336
 3644TIP3   OH232346   3.856   7.047   9.780  0.4948  0.7631 -0.4517
 3644TIP3    H132347   3.829   7.139   9.782 -0.4293  0.5164 -1.0074
 3644TIP3    H232348   3.893   7.034   9.692  0.3717  0.5419 -0.4725
 3645TIP3   OH232349   0.156   3.955  10.638 -0.6938 -0.2667 -0.4968
 3645TIP3    H132350   0.152   3.896  10.714  1.4890  2.4738  1.8714
 3645TIP3    H232351   0.076   4.007  10.645 -0.3345  0.2123  0.1705
 3646TIP3   OH232352   5.314   1.482  12.502 -0.0382  0.3047  0.1975
 3646TIP3    H132353   5.391   1.539  12.504  0.4956 -0.3740 -1.0208
 3646TIP3    H232354   5.348   1.395  12.482 -0.8779 -0.4245  1.8339
 3647TIP3   OH232355   4.190   1.236  11.148 -0.6707 -0.2996  0.5119
 3647TIP3    H132356   4.166   1.178  11.221  0.6080 -0.0586  1.1307
 3647TIP3    H232357   4.276   1.205  11.120 -0.5762  0.4558 -0.0277
 3648TIP3   OH232358   4.374   5.862  13.344  0.4662 -0.0397  0.3927
 3648TIP3    H132359   4.417   5.936  13.387 -0.1456 -0.1493  1.2078
 3648TIP3    H232360   4.427   5.846  13.265  1.6447  0.1259  1.1290
 3649TIP3   OH232361   4.648   1.895  11.450  0.4238 -0.3173 -0.5069
 3649TIP3    H132362   4.602   1.813  11.430  0.2873 -0.3618 -0.0154
 3649TIP3    H232363   4.697   1.915  11.370 -0.2279 -0.4166 -0.9343
 3650TIP3   OH232364   0.006   5.394  11.837  0.5919  0.2240  0.1370
 3650TIP3    H132365  -0.028   5.438  11.916 -1.1347  0.8125 -0.8982
 3650TIP3    H232366   0.100   5.413  11.838  0.4777  0.8224  1.6854
 3651TIP3   OH232367   1.742   4.073  11.078 -0.0686 -0.3499 -0.0936
 3651TIP3    H132368   1.825   4.096  11.119 -0.2428  0.9332 -0.4162
 3651TIP3    H232369   1.708   4.000  11.130  2.2553 -2.3116 -1.2351
 3652TIP3   OH232370   2.037   1.687  11.251  0.8304 -0.3041  0.0157
 3652TIP3    H132371   2.067   1.605  11.212 -1.5153 -1.2206  0.0988
 3652TIP3    H232372   1.982   1.727  11.184 -1.5327 -0.8929  1.5582
 3653TIP3   OH232373   1.472   5.411  11.715  0.2228 -0.4362 -0.5551
 3653TIP3    H132374   1.472   5.467  11.792  0.9307 -0.6606 -0.3886
 3653TIP3    H232375   1.395   5.440  11.665  0.8961  1.0597 -0.7517
 3654TIP3   OH232376   0.595   0.570  12.130 -0.1315  0.6426  0.4571
 3654TIP3    H132377   0.609   0.647  12.184  1.3375  0.0994  0.8891
 3654TIP3    H232378   0.678   0.559  12.083 -0.5441 -0.2995 -0.0603
 3655TIP3   OH232379   1.433   4.663  10.188  0.3047 -0.2583 -0.4904
 3655TIP3    H132380   1.386   4.745  10.175 -1.1397 -0.6290  2.2750
 3655TIP3    H232381   1.371   4.595  10.161 -0.0433 -0.6436  1.2450
 3656TIP3   OH232382   2.851   0.291  12.834 -0.6779  0.0174  0.2601
 3656TIP3    H132383   2.851   0.307  12.740 -0.0126 -2.0063 -0.1187
 3656TIP3    H232384   2.931   0.334  12.865 -0.8953  0.6837 -0.1019
 3657TIP3   OH232385   3.440   0.845   9.979  0.3240  0.2158  0.2109
 3657TIP3    H132386   3.493   0.877   9.905 -1.2551 -1.3011 -1.6316
 3657TIP3    H232387   3.495   0.779  10.021 -0.1272 -1.5532 -1.8638
 3658TIP3   OH232388   6.108   6.385  10.746  0.4390  0.3871  0.2824
 3658TIP3    H132389   6.087   6.380  10.839  1.0407  0.0412  0.4027
 3658TIP3    H232390   6.070   6.306  10.708  0.1975  0.5263  0.2382
 3659TIP3   OH232391   1.656   1.544  11.716  0.1630  0.7279 -0.0881
 3659TIP3    H132392   1.747   1.545  11.685 -0.0768 -1.4188 -0.9083
 3659TIP3    H232393   1.608   1.498  11.648 -1.1420 -0.2334  1.4584
 3660TIP3   OH232394   4.546   2.345  11.738  0.3225 -0.0244 -0.3973
 3660TIP3    H132395   4.579   2.278  11.678 -0.4554 -1.6228  0.9103
 3660TIP3    H232396   4.477   2.300  11.787 -0.3455  1.8100  0.3637
 3661TIP3   OH232397   2.183   0.605  11.643 -0.3523 -0.4733  0.3934
 3661TIP3    H132398   2.207   0.624  11.734 -2.9069 -0.4657  1.1076
 3661TIP3    H232399   2.184   0.510  11.636 -1.2345 -0.5136  0.7564
 3662TIP3   OH232400   1.082   1.448  12.317 -0.2688  1.3756 -0.0872
 3662TIP3    H132401   1.161   1.407  12.281  0.2922  2.1548  0.2275
 3662TIP3    H232402   1.038   1.378  12.365 -0.2426  0.7089 -1.0352
 3663TIP3   OH232403   1.207   0.470  14.077  0.0904 -0.0945 -0.6084
 3663TIP3    H132404   1.272   0.429  14.133 -0.8880 -0.2505  0.4483
 3663TIP3    H232405   1.125   0.424  14.097 -0.0159 -1.0718 -3.1868
 3664TIP3   OH232406   3.828   0.863  15.227 -0.2940 -0.4397 -0.2643
 3664TIP3    H132407   3.879   0.878  15.307 -1.2876  2.1900 -0.0732
 3664TIP3    H232408   3.737   0.877  15.254 -0.7633 -0.9932 -1.5249
 3665TIP3   OH232409   7.071   2.518  11.148  0.3966  0.0733 -0.3427
 3665TIP3    H132410   7.037   2.448  11.202 -0.7383  1.5026  0.8423
 3665TIP3    H232411   7.031   2.598  11.183 -1.1860  0.9488 -3.8859
 3666TIP3   OH232412   3.695   2.915  14.870 -0.7122 -0.3685  0.4854
 3666TIP3    H132413   3.777   2.869  14.888 -1.0769 -0.4685  1.9574
 3666TIP3    H232414   3.704   2.946  14.780  1.3401  0.4442  0.9408
 3667TIP3   OH232415   0.721   7.077   9.668  0.6141 -0.1395  0.5612
 3667TIP3    H132416   0.768   7.041   9.743  1.4010  1.3036  0.7786
 3667TIP3    H232417   0.789   7.096   9.603  0.4603  2.3955  1.0557
 3668TIP3   OH232418   6.645   2.288  11.161  0.0873 -0.5514 -0.2891
 3668TIP3    H132419   6.583   2.221  11.191 -1.3315  1.3835  1.2533
 3668TIP3    H232420   6.590   2.354  11.118  1.1402  0.8469  0.4547
 3669TIP3   OH232421   6.220   1.786   0.668 -0.1243  0.0330 -0.2840
 3669TIP3    H132422   6.192   1.874   0.644  0.1098  0.2419  0.1993
 3669TIP3    H232423   6.286   1.763   0.602  3.1039  1.9919  2.0917
 3670TIP3   OH232424   3.757   0.812  12.822  0.5850 -0.0637 -0.5831
 3670TIP3    H132425   3.743   0.732  12.873  0.1426 -0.8499 -1.9370
 3670TIP3    H232426   3.686   0.813  12.758 -0.3337  2.2296  0.4155
 3671TIP3   OH232427   4.037   2.019   0.878  0.3262 -0.0455  0.1719
 3671TIP3    H132428   4.130   2.005   0.862  0.1410  0.7571 -1.7779
 3671TIP3    H232429   4.033   2.102   0.925  0.5210  0.7609 -1.1968
 3672TIP3   OH232430   3.110   3.063  14.776  0.0284  0.4002 -0.5305
 3672TIP3    H132431   3.061   3.100  14.849  0.3431  0.6586 -0.4533
 3672TIP3    H232432   3.150   3.138  14.732  0.8898  0.1369 -0.2132
 3673TIP3   OH232433   5.853   1.164  15.465 -0.0922  0.1422 -0.2020
 3673TIP3    H132434   5.810   1.157  15.549  2.6181  1.8118  1.4123
 3673TIP3    H232435   5.947   1.164  15.486  0.6585  0.0518 -3.2565
 3674TIP3   OH232436   6.988   6.770  10.861  0.0927 -0.0619  0.2601
 3674TIP3    H132437   6.894   6.777  10.874 -0.1799 -1.4683 -0.8442
 3674TIP3    H232438   7.012   6.848  10.811 -0.4780  0.2756  0.5117
 3675TIP3   OH232439   3.959   5.599  13.114 -0.0392  0.3981  0.0986
 3675TIP3    H132440   4.007   5.530  13.159  0.7246  0.5748 -0.4236
 3675TIP3    H232441   4.022   5.670  13.104 -0.3524  0.5738 -0.7485
 3676TIP3   OH232442   7.114   5.440  14.208 -0.0049  0.5947  0.9591
 3676TIP3    H132443   7.150   5.406  14.125 -0.4791  0.0000  0.9890
 3676TIP3    H232444   7.104   5.362  14.263  0.7870  1.0582  1.7645
 3677TIP3   OH232445   2.697   7.009   9.844  0.5096 -0.1918  0.1225
 3677TIP3    H132446   2.715   6.915   9.843 -0.3177 -0.3586  0.1994
 3677TIP3    H232447   2.649   7.023   9.926  2.4461  0.6476  1.1540
 3678TIP3   OH232448   4.130   2.373   9.470  0.1016 -0.2512  0.1249
 3678TIP3    H132449   4.073   2.315   9.521 -0.9212  0.2234 -0.4648
 3678TIP3    H232450   4.203   2.393   9.529  0.6784 -2.4546  0.1882
 3679TIP3   OH232451   5.789   0.541  11.389 -0.0808  0.1922 -0.7299
 3679TIP3    H132452   5.781   0.548  11.293  1.8823  0.8515 -0.8687
 3679TIP3    H232453   5.720   0.599  11.422 -0.6225  0.1580 -1.7534
 3680TIP3   OH232454   2.405   6.605  12.044 -0.4506 -0.5082 -0.4161
 3680TIP3    H132455   2.346   6.530  12.049 -0.7086 -0.2230  0.8362
 3680TIP3    H232456   2.352   6.680  12.070 -0.0345  0.0271 -1.0945
 3681TIP3   OH232457   5.199   5.390  14.748  0.6591 -0.2483  0.4913
 3681TIP3    H132458   5.208   5.364  14.656  1.6646  0.3669  0.4093
 3681TIP3    H232459   5.133   5.330  14.783 -0.5654  0.2513 -0.9136
 3682TIP3   OH232460   3.329   1.246  13.956  0.1743 -0.2990 -0.0493
 3682TIP3    H132461   3.313   1.266  14.048  0.7886 -0.7168  0.1513
 3682TIP3    H232462   3.339   1.151  13.953 -1.7103 -0.4823 -0.8395
 3683TIP3   OH232463   5.689   4.397  11.735 -0.2627 -0.2373 -0.8079
 3683TIP3    H132464   5.711   4.464  11.799 -2.5063  0.8689 -1.1460
 3683TIP3    H232465   5.759   4.403  11.669 -0.3608  1.6658 -0.7659
 3684TIP3   OH232466   0.611   6.822  11.889 -0.0745 -0.2929 -0.1494
 3684TIP3    H132467   0.684   6.764  11.866 -0.8791 -0.9647 -1.0697
 3684TIP3    H232468   0.645   6.876  11.960  1.4373 -0.3634 -0.7884
 3685TIP3   OH232469   6.684   1.307  10.126 -0.2161  0.1789 -0.7954
 3685TIP3    H132470   6.655   1.310  10.035 -0.2030  0.9860 -0.7752
 3685TIP3    H232471   6.605   1.286  10.175 -0.3304  0.2516 -0.9463
 3686TIP3   OH232472   6.491   6.490  15.355 -0.0199 -0.3897  0.1051
 3686TIP3    H132473   6.531   6.543  15.287  0.6950  1.2835  1.7885
 3686TIP3    H232474   6.398   6.489  15.332  0.2500 -0.0864 -1.0456
 3687TIP3   OH232475   3.739   5.178  11.238  0.4340  0.4700  0.8033
 3687TIP3    H132476   3.791   5.099  11.221 -0.1276  0.5951 -1.6127
 3687TIP3    H232477   3.666   5.172  11.177 -2.1534  0.5866  3.7642
 3688TIP3   OH232478   2.824   0.257  10.922  0.1946 -0.9205  0.0551
 3688TIP3    H132479   2.734   0.289  10.925  0.5288  0.0626 -0.3144
 3688TIP3    H232480   2.861   0.280  11.007  0.5481  0.0068 -0.3491
 3689TIP3   OH232481   0.323   6.968  11.329 -0.0146 -0.0500 -0.2358
 3689TIP3    H132482   0.295   6.917  11.253  2.5700 -1.1260 -0.5206
 3689TIP3    H232483   0.384   6.911  11.376  1.0885  1.8595  0.7487
 3690TIP3   OH232484   0.537   5.502  14.628  1.1357  0.1814 -0.1298
 3690TIP3    H132485   0.521   5.461  14.543 -1.0578  1.2752 -0.2990
 3690TIP3    H232486   0.587   5.581  14.608 -0.3220  1.0149 -0.5581
 3691TIP3   OH232487   5.333   3.850  13.725  0.7871  0.8877 -0.2091
 3691TIP3    H132488   5.327   3.780  13.790  2.5643  0.4147 -0.5403
 3691TIP3    H232489   5.280   3.921  13.762 -0.5930 -0.4184  0.3840
 3692TIP3   OH232490   6.681   6.913   2.615 -0.0757  0.5290 -0.2622
 3692TIP3    H132491   6.639   6.912   2.702 -1.4442  0.4794 -0.9001
 3692TIP3    H232492   6.764   6.868   2.628 -1.2986 -1.5842  0.5176
 3693TIP3   OH232493   7.077   1.791  12.772 -1.1199  0.3606 -0.8288
 3693TIP3    H132494   7.099   1.850  12.700 -0.2945  0.2295 -0.6919
 3693TIP3    H232495   7.162   1.764  12.808 -1.5160  0.1795 -0.0097
 3694TIP3   OH232496   3.666   3.135  10.884  0.1603  0.7758 -0.1519
 3694TIP3    H132497   3.608   3.186  10.940 -0.5099 -0.8375  0.6297
 3694TIP3    H232498   3.708   3.073  10.943  0.5829  0.0740 -1.1868
 3695TIP3   OH232499   6.706   3.950  12.999  0.7172 -0.1356  0.2582
 3695TIP3    H132500   6.686   3.877  12.940  1.6914 -0.1175 -0.1099
 3695TIP3    H232501   6.791   3.983  12.968  0.1078  1.3980  0.1732
 3696TIP3   OH232502   5.966   1.211  14.381  0.2121 -0.3806  0.4473
 3696TIP3    H132503   5.963   1.282  14.446  1.6280  1.2089 -1.1491
 3696TIP3    H232504   5.876   1.199  14.354 -0.1357  0.2946  1.2788
 3697TIP3   OH232505   2.168   1.749   9.966 -0.2990  0.3181 -0.4742
 3697TIP3    H132506   2.196   1.812   9.900 -0.1299 -0.3236 -1.0163
 3697TIP3    H232507   2.171   1.664   9.922 -1.0329 -0.0095  0.0961
 3698TIP3   OH232508   2.137   3.882  11.885 -0.1606  0.4710 -0.0924
 3698TIP3    H132509   2.135   3.862  11.979 -1.7412 -3.0220 -0.7695
 3698TIP3    H232510   2.230   3.887  11.864  0.2446 -0.4808  1.3707
 3699TIP3   OH232511   0.265   2.125   0.544 -0.7182  0.0456  0.3342
 3699TIP3    H132512   0.304   2.049   0.501 -2.0495  1.1587 -3.0670
 3699TIP3    H232513   0.185   2.141   0.494 -1.6060  2.3416  2.4099
 3700TIP3   OH232514   4.648   0.467  10.058 -0.2188 -0.6557 -0.0551
 3700TIP3    H132515   4.738   0.466  10.026 -0.2280 -0.7282 -0.0786
 3700TIP3    H232516   4.595   0.446   9.981 -0.2432 -0.7921 -0.0005
 3701TIP3   OH232517   6.059   3.857  13.545 -0.3402  0.3058 -0.1235
 3701TIP3    H132518   6.002   3.802  13.492 -0.2637 -0.2254  0.3370
 3701TIP3    H232519   6.120   3.795  13.587  1.2664  0.9422 -1.4518
 3702TIP3   OH232520   4.725   5.160  11.879 -0.2365 -0.1842  0.3560
 3702TIP3    H132521   4.820   5.167  11.867 -0.2691  1.4033  0.9039
 3702TIP3    H232522   4.711   5.183  11.971 -1.0508 -1.4512  0.5496
 3703TIP3   OH232523   3.639   7.019  12.789 -0.5945 -0.2118  0.1600
 3703TIP3    H132524   3.699   6.945  12.794 -0.0054  0.3808  2.4949
 3703TIP3    H232525   3.644   7.048  12.698 -1.5054 -3.5688 -1.0382
 3704TIP3   OH232526   5.217   2.636   9.634 -0.6185  0.2827  0.3200
 3704TIP3    H132527   5.201   2.670   9.722  1.8904 -0.9058  1.2935
 3704TIP3    H232528   5.207   2.541   9.644  1.7038 -0.0414 -0.1680
 3705TIP3   OH232529   3.517   3.405   1.576 -0.5064 -0.6503 -0.4026
 3705TIP3    H132530   3.446   3.384   1.636 -0.0424  1.5267  0.9771
 3705TIP3    H232531   3.499   3.495   1.547  1.2709 -0.3362 -0.5917
 3706TIP3   OH232532   3.904   2.791  14.497 -0.5855 -0.1497  0.7572
 3706TIP3    H132533   3.834   2.736  14.462 -1.7033  0.9978  1.1802
 3706TIP3    H232534   3.935   2.745  14.575  0.1020 -1.3669 -0.2139
 3707TIP3   OH232535   4.830   0.459  13.748 -0.2587 -0.1295 -0.5667
 3707TIP3    H132536   4.787   0.459  13.834  1.1992  1.4924  0.2163
 3707TIP3    H232537   4.864   0.548  13.740  1.1793 -0.7992 -2.0429
 3708TIP3   OH232538   6.144   2.279  13.739 -0.1359  0.0375 -0.0710
 3708TIP3    H132539   6.225   2.325  13.761 -0.2703 -0.1041  0.7170
 3708TIP3    H232540   6.150   2.195  13.783  0.4968 -1.0826 -2.2264
 3709TIP3   OH232541   6.428   3.284   0.754 -0.0837  0.4568  0.0048
 3709TIP3    H132542   6.487   3.211   0.776  0.6241  0.8037 -0.7365
 3709TIP3    H232543   6.376   3.252   0.680  0.1820  0.6865 -0.2789
 3710TIP3   OH232544   7.146   6.905  12.649  0.0466  0.6479 -0.1049
 3710TIP3    H132545   7.238   6.879  12.643 -0.0637 -0.0769  1.1887
 3710TIP3    H232546   7.145   6.973  12.716 -0.5824 -0.4717  1.0438
 3711TIP3   OH232547   6.868   0.958   9.892 -0.2463  1.3393 -0.3427
 3711TIP3    H132548   6.874   0.985   9.984 -0.7612  2.6477 -0.6820
 3711TIP3    H232549   6.796   1.010   9.856  0.5454  1.5250 -1.7149
 3712TIP3   OH232550   3.099   5.591  13.338 -0.4015  0.0662  0.1772
 3712TIP3    H132551   3.124   5.667  13.390 -0.5454  0.7510 -0.7419
 3712TIP3    H232552   3.069   5.527  13.402 -3.4793  1.9801  0.7479
 3713TIP3   OH232553   0.863   3.290  12.468  0.0903 -0.0248 -0.6477
 3713TIP3    H132554   0.779   3.309  12.510  1.4612  0.7532  1.8288
 3713TIP3    H232555   0.900   3.376  12.449  0.4328 -0.3589 -1.5101
 3714TIP3   OH232556   3.692   5.123  12.346 -0.4437  0.2799  0.0785
 3714TIP3    H132557   3.620   5.060  12.337  0.4647 -0.7029 -0.4360
 3714TIP3    H232558   3.714   5.120  12.439  0.6848 -1.4170 -0.2186
 3715TIP3   OH232559   6.078   0.137  14.970  0.4044 -0.4108 -0.2178
 3715TIP3    H132560   6.071   0.042  14.966  0.8185 -0.4110 -1.3652
 3715TIP3    H232561   6.155   0.153  15.024  0.1795 -0.7233  0.1942
 3716TIP3   OH232562   6.750   2.943  11.903 -0.0925 -0.1296 -0.0801
 3716TIP3    H132563   6.661   2.914  11.920  0.3157 -2.1895 -1.2502
 3716TIP3    H232564   6.805   2.868  11.924  1.5186  1.5348  1.9053
 3717TIP3   OH232565   4.519   2.177  13.322 -0.4531  0.0608  0.2644
 3717TIP3    H132566   4.602   2.161  13.278 -1.5136  1.9427 -2.5408
 3717TIP3    H232567   4.453   2.159  13.255 -2.1103  3.0560  1.0334
 3718TIP3   OH232568   4.556   6.018  13.466  0.0103 -0.2685  0.4398
 3718TIP3    H132569   4.619   5.954  13.498  1.3229  1.0042  0.4393
 3718TIP3    H232570   4.580   6.099  13.510 -3.0123 -0.2171  2.1947
 3719TIP3   OH232571   5.624   5.488  10.238  0.1205 -1.0306  0.2795
 3719TIP3    H132572   5.577   5.422  10.188 -0.4338 -0.6671  0.3154
 3719TIP3    H232573   5.653   5.552  10.173 -4.9612  2.1564  0.8463
 3720TIP3   OH232574   2.351   0.336  12.312 -1.1253  0.4519  0.0934
 3720TIP3    H132575   2.409   0.368  12.381 -1.8438  4.7593 -1.1392
 3720TIP3    H232576   2.403   0.270  12.265  1.2979  1.3050  1.5006
 3721TIP3   OH232577   1.755   0.582  14.786  0.2895 -0.2252  0.6611
 3721TIP3    H132578   1.747   0.497  14.828 -0.3756 -0.5081 -0.0343
 3721TIP3    H232579   1.672   0.596  14.741 -0.0651  1.3426  1.7667
 3722TIP3   OH232580   6.671   3.330  12.448  0.0498 -0.0203 -0.2597
 3722TIP3    H132581   6.639   3.417  12.422  0.6247  0.1169 -0.5228
 3722TIP3    H232582   6.669   3.331  12.543  1.4945  0.8335 -0.2259
 3723TIP3   OH232583   5.476   2.251  15.279  0.0858 -0.4089  0.8410
 3723TIP3    H132584   5.454   2.290  15.363 -1.6926 -0.2145  0.3126
 3723TIP3    H232585   5.410   2.286  15.218  0.3224 -1.8397 -0.2749
 3724TIP3   OH232586   2.749   0.235  12.278 -0.3039 -0.0809 -0.4874
 3724TIP3    H132587   2.835   0.259  12.244 -0.0318  0.4027  0.5300
 3724TIP3    H232588   2.697   0.215  12.200  0.6797 -0.2155 -1.1116
 3725TIP3   OH232589   1.813   0.453  13.264 -0.1471 -0.1744 -0.2920
 3725TIP3    H132590   1.744   0.467  13.329  0.6292 -0.3313  0.5669
 3725TIP3    H232591   1.767   0.418  13.187 -0.8787 -1.2758  0.6416
 3726TIP3   OH232592   2.730   1.163   0.304 -0.3122  0.6905 -0.4516
 3726TIP3    H132593   2.693   1.249   0.325 -1.4188 -0.4127  2.3192
 3726TIP3    H232594   2.806   1.155   0.361  0.6337  0.3990 -1.7397
 3727TIP3   OH232595   7.077   1.023  13.367  0.3098  0.2155  0.2937
 3727TIP3    H132596   6.997   1.037  13.317  1.2126 -1.3520 -1.6587
 3727TIP3    H232597   7.131   1.099  13.347  0.6201 -0.3524 -1.0277
 3728TIP3   OH232598   6.536   0.696  11.227  0.3693  0.1372  0.3935
 3728TIP3    H132599   6.564   0.768  11.170 -1.1178 -0.1903 -0.7769
 3728TIP3    H232600   6.530   0.620  11.169 -0.8858 -0.2656  1.0323
 3729TIP3   OH232601   6.881   1.102  10.176  0.1658 -0.7900  0.2090
 3729TIP3    H132602   6.811   1.157  10.140 -0.4824 -1.7830 -0.0802
 3729TIP3    H232603   6.856   1.089  10.268 -0.4624 -1.7748 -0.0825
 3730TIP3   OH232604   7.155   0.699  10.441  0.7922  0.2747 -0.3487
 3730TIP3    H132605   7.179   0.760  10.511 -0.4926 -1.4899  1.6743
 3730TIP3    H232606   7.237   0.655  10.418  0.9495 -0.2292  1.1385
 3731TIP3   OH232607   6.559   0.186  11.753  0.1299 -0.4728 -0.0232
 3731TIP3    H132608   6.641   0.235  11.755  0.3487 -0.8611  0.5739
 3731TIP3    H232609   6.524   0.201  11.665 -0.1330  1.3021  0.3589
 3732TIP3   OH232610   7.071   1.025  11.726 -0.3371 -0.6813  0.0441
 3732TIP3    H132611   7.106   1.107  11.690  0.3701 -0.1025  1.9698
 3732TIP3    H232612   7.083   0.961  11.656  0.3324  0.5613 -1.0026
 3733TIP3   OH232613   6.708   2.040  10.928 -0.3633  0.0459 -0.1727
 3733TIP3    H132614   6.627   2.016  10.973  0.4348 -0.1040  1.2325
 3733TIP3    H232615   6.749   2.104  10.985  0.6140 -0.0397 -0.7701
 3734TIP3   OH232616   6.909   0.462  12.092  0.0179 -0.3090 -0.3480
 3734TIP3    H132617   6.979   0.397  12.093 -0.2452 -0.6471 -2.3308
 3734TIP3    H232618   6.920   0.507  12.009 -1.8249 -0.0423 -0.4515
 3735TIP3   OH232619   4.918   0.431   0.210  0.1314  0.2779  0.0321
 3735TIP3    H132620   4.871   0.416   0.128 -1.3199 -0.2081  0.9413
 3735TIP3    H232621   4.938   0.525   0.209 -1.9947  0.7396  0.2296
 3736TIP3   OH232622   0.081   1.852  10.138 -0.1658  0.0834  0.0440
 3736TIP3    H132623   0.124   1.937  10.145  0.3997 -0.1801 -0.1819
 3736TIP3    H232624   0.090   1.828  10.045 -2.5811  0.9476 -0.4561
 3737TIP3   OH232625   3.047   0.723  10.037 -0.3085 -0.3725 -0.6189
 3737TIP3    H132626   3.101   0.662   9.987 -0.5545 -1.5687  0.5461
 3737TIP3    H232627   3.008   0.669  10.106  0.3211  1.3278  1.0924
 3738TIP3   OH232628   6.830   2.266  10.441 -0.3573  0.3908 -0.3332
 3738TIP3    H132629   6.761   2.317  10.482 -1.5388 -0.0265 -1.7579
 3738TIP3    H232630   6.875   2.329  10.384  0.5656  0.7036  0.7240
 3739TIP3   OH232631   3.287   4.670  11.048 -0.9326  0.0816  0.7928
 3739TIP3    H132632   3.268   4.589  11.000  1.4501  0.3862 -0.7041
 3739TIP3    H232633   3.234   4.737  11.005 -1.7327 -0.3778  1.0536
 3740TIP3   OH232634   1.506   6.409  10.696  0.3357  0.1019 -0.3589
 3740TIP3    H132635   1.556   6.431  10.618 -0.9608 -0.1413 -1.2785
 3740TIP3    H232636   1.425   6.459  10.687  0.3428  0.3710  1.0272
 3741TIP3   OH232637   0.854   4.422  13.152 -0.3678 -0.0456 -0.0893
 3741TIP3    H132638   0.898   4.493  13.199 -0.6998 -0.0547  0.2440
 3741TIP3    H232639   0.920   4.387  13.093  0.3400 -0.6670  1.0549
 3742TIP3   OH232640   6.670   6.294  11.802 -0.0126 -0.0581  0.4123
 3742TIP3    H132641   6.631   6.213  11.768 -0.6897  1.0229 -1.4547
 3742TIP3    H232642   6.737   6.317  11.738 -1.2489  1.9636 -0.2035
 3743TIP3   OH232643   3.186   0.192  10.213  0.0936  0.2214 -0.3933
 3743TIP3    H132644   3.252   0.122  10.214  0.1687  0.2812 -0.8177
 3743TIP3    H232645   3.206   0.245  10.290 -0.0754 -0.3251  0.0309
 3744TIP3   OH232646   5.845   0.545  11.658  0.1714 -0.0389  0.2066
 3744TIP3    H132647   5.823   0.474  11.597 -0.2456 -0.3875  0.7651
 3744TIP3    H232648   5.874   0.501  11.737  1.6812  0.4195 -0.0675
 3745TIP3   OH232649   4.207   6.192   9.681 -0.3162 -0.3586 -0.6292
 3745TIP3    H132650   4.302   6.191   9.688 -0.4468 -1.6113  1.0604
 3745TIP3    H232651   4.182   6.102   9.664 -1.3327 -0.3814  0.8830
 3746TIP3   OH232652   2.945   4.293  10.654 -0.5118 -0.0061 -0.5428
 3746TIP3    H132653   2.903   4.330  10.731  0.2583  1.3081 -0.7465
 3746TIP3    H232654   2.873   4.278  10.592 -0.7732  1.6212 -0.6458
 3747TIP3   OH232655   0.204   1.288  11.423  0.0354  0.1487 -0.3297
 3747TIP3    H132656   0.117   1.257  11.448  0.0384 -0.6027 -1.2095
 3747TIP3    H232657   0.224   1.358  11.485 -1.7086  1.1421 -0.8620
 3748TIP3   OH232658   2.664   0.588  13.858 -0.2686 -0.3565  0.3035
 3748TIP3    H132659   2.611   0.512  13.835  0.1357 -0.3745 -0.6376
 3748TIP3    H232660   2.639   0.655  13.794 -0.7236  0.3505  1.2113
 3749TIP3   OH232661   2.386   6.369  14.418 -0.0066 -0.4295 -0.4480
 3749TIP3    H132662   2.451   6.440  14.416 -0.6744  0.1647 -1.3247
 3749TIP3    H232663   2.322   6.397  14.484 -0.5368  0.0275 -1.1496
 3750TIP3   OH232664   1.931   6.725  11.961  0.7725  0.1631  0.5519
 3750TIP3    H132665   2.016   6.709  11.920  0.1047 -0.9582 -0.4255
 3750TIP3    H232666   1.886   6.785  11.901  1.5159  2.1727  1.9407
 3751TIP3   OH232667   4.521   2.015  10.441 -0.0205  0.3899 -0.1494
 3751TIP3    H132668   4.538   2.104  10.412 -0.2265  0.3652 -0.3485
 3751TIP3    H232669   4.426   2.006  10.437 -0.0783  0.4739  0.7895
 3752TIP3   OH232670   2.640   0.601  10.096 -0.5476 -0.5975  0.1237
 3752TIP3    H132671   2.613   0.520  10.053  0.5784 -0.5446 -0.7138
 3752TIP3    H232672   2.735   0.603  10.086 -0.6296  1.1690 -0.4937
 3753TIP3   OH232673   3.670   4.436  13.840  0.2768  0.2061  0.0904
 3753TIP3    H132674   3.676   4.358  13.784 -0.3193 -0.0784  0.4133
 3753TIP3    H232675   3.659   4.400  13.928 -1.0236  0.6606  0.1156
 3754TIP3   OH232676   0.395   4.150  10.254  0.2352  0.3895 -0.5397
 3754TIP3    H132677   0.305   4.128  10.278  0.6300  2.1352  2.7538
 3754TIP3    H232678   0.388   4.236  10.212  0.3660  0.4752 -0.3849
 3755TIP3   OH232679   2.361   1.771  12.333 -0.0295  0.3041  0.2483
 3755TIP3    H132680   2.298   1.818  12.386  1.4154  1.8740  0.6214
 3755TIP3    H232681   2.420   1.729  12.396  2.0778  2.6985 -0.0469
 3756TIP3   OH232682   7.067   4.672  13.982 -0.4832 -0.4249  0.0648
 3756TIP3    H132683   7.078   4.747  14.041  0.0817 -0.2202 -0.2937
 3756TIP3    H232684   7.040   4.600  14.039  1.5550 -0.6351  0.8112
 3757TIP3   OH232685   4.844   5.661  11.713 -0.0023 -0.1710 -0.1745
 3757TIP3    H132686   4.749   5.651  11.726  0.0567  1.1288  1.4115
 3757TIP3    H232687   4.883   5.614  11.786  0.6713 -2.6744 -2.0823
 3758TIP3   OH232688   6.118   1.267  12.043 -0.0060 -0.0370  0.6346
 3758TIP3    H132689   6.109   1.266  11.948  0.9246  0.1943  0.5406
 3758TIP3    H232690   6.179   1.196  12.063 -0.1991 -0.0869  1.0576
 3759TIP3   OH232691   5.863   3.802  11.121  0.3660 -0.0438 -0.4518
 3759TIP3    H132692   5.784   3.794  11.175  0.1557  0.1622 -0.7314
 3759TIP3    H232693   5.934   3.816  11.185  0.0339  0.8068 -0.2508
 3760TIP3   OH232694   2.404   6.832  11.411 -0.0004 -1.0367 -0.1148
 3760TIP3    H132695   2.424   6.881  11.490 -0.6175 -0.9951  0.0121
 3760TIP3    H232696   2.323   6.871  11.378  0.5548 -0.6834 -1.0711
 3761TIP3   OH232697   1.510   4.464  13.231 -0.0047  0.1312  0.6930
 3761TIP3    H132698   1.605   4.478  13.233 -0.2102  2.0875 -1.1608
 3761TIP3    H232699   1.491   4.443  13.139 -1.7009  2.7901  0.3582
 3762TIP3   OH232700   0.345   0.844  14.634 -0.7627 -1.0113  0.3167
 3762TIP3    H132701   0.338   0.840  14.730 -0.5118  2.0321  0.5186
 3762TIP3    H232702   0.307   0.928  14.611 -0.0966 -1.3738 -2.2170
 3763TIP3   OH232703   2.765   0.350  13.963 -0.0774 -0.7815 -0.0306
 3763TIP3    H132704   2.753   0.299  13.884  0.5307 -0.3363 -0.4236
 3763TIP3    H232705   2.752   0.441  13.935  0.6962 -0.5777  0.2516
 3764TIP3   OH232706   4.620   6.960  15.470  0.3507 -0.3177  0.7248
 3764TIP3    H132707   4.544   6.904  15.457 -1.1667  1.8537 -0.0307
 3764TIP3    H232708   4.684   6.931  15.405 -0.5738 -0.8786  0.0624
 3765TIP3   OH232709   2.194   1.296  11.689  0.6610 -0.2285  0.1404
 3765TIP3    H132710   2.200   1.348  11.609 -0.4187 -1.0402 -0.4785
 3765TIP3    H232711   2.241   1.215  11.669  0.5026 -0.3793  0.3738
 3766TIP3   OH232712   2.366   2.209  12.753  0.3754 -0.0508 -0.4167
 3766TIP3    H132713   2.363   2.129  12.700 -0.7664  0.1646 -0.6753
 3766TIP3    H232714   2.308   2.270  12.708 -1.3255 -0.1587  1.5661
 3767TIP3   OH232715   6.116   5.560  11.073  0.3315 -0.4332 -0.3186
 3767TIP3    H132716   6.131   5.497  11.143 -0.1051 -0.4504 -0.2352
 3767TIP3    H232717   6.069   5.510  11.006 -0.6372 -0.0228  0.0450
 3768TIP3   OH232718   0.917   4.130  12.045  0.2812 -0.0165 -0.2161
 3768TIP3    H132719   0.967   4.100  11.969 -0.5902 -0.3812 -0.6562
 3768TIP3    H232720   0.982   4.141  12.114  1.0112 -0.1785 -0.8690
 3769TIP3   OH232721   5.431   6.243  10.672  0.4624  0.6380 -0.4291
 3769TIP3    H132722   5.429   6.233  10.577  0.5621  0.0275 -0.3670
 3769TIP3    H232723   5.505   6.189  10.701  0.4226  0.8045 -0.0023
 3770TIP3   OH232724   4.344   1.500  15.177 -0.4728  0.5860  0.2232
 3770TIP3    H132725   4.270   1.440  15.187 -1.4001  1.7975  0.7393
 3770TIP3    H232726   4.409   1.468  15.240 -0.7298 -0.2113  0.0901
 3771TIP3   OH232727   5.050   0.373  10.607  0.2992 -0.6939 -0.1122
 3771TIP3    H132728   5.049   0.314  10.531  2.5660 -2.7202  1.3596
 3771TIP3    H232729   5.078   0.457  10.571  1.0544 -1.5441 -1.5736
 3772TIP3   OH232730   4.403   1.750  10.929 -0.8399  0.1071  0.4546
 3772TIP3    H132731   4.465   1.697  10.978 -1.1009 -0.5108  0.1237
 3772TIP3    H232732   4.452   1.828  10.903  0.0011 -0.7140 -0.4350
 3773TIP3   OH232733   2.137   7.034  10.348 -0.2309  0.2962 -0.0533
 3773TIP3    H132734   2.162   7.028  10.255  2.9599 -1.9980  0.8481
 3773TIP3    H232735   2.100   6.948  10.369 -1.2884  0.9274  0.7290
 3774TIP3   OH232736   3.970   3.183  12.142 -0.2859 -0.6831  0.0656
 3774TIP3    H132737   3.917   3.262  12.145 -1.5870 -1.6168  1.8652
 3774TIP3    H232738   3.960   3.143  12.228  4.5222 -0.1195  1.0435
 3775TIP3   OH232739   2.544   2.944  14.424  0.1991 -0.0681  0.3178
 3775TIP3    H132740   2.527   3.026  14.378  0.5174  0.8867  1.8683
 3775TIP3    H232741   2.566   2.881  14.355  0.4427  1.2743 -0.8286
 3776TIP3   OH232742   0.900   3.914  11.343 -0.3793 -0.5302 -0.3835
 3776TIP3    H132743   0.822   3.961  11.372 -0.0208 -0.9415  1.2960
 3776TIP3    H232744   0.958   3.983  11.310 -0.5277  0.0350  0.5202
 3777TIP3   OH232745   6.405   3.956  12.256 -0.5646 -0.5485 -0.2393
 3777TIP3    H132746   6.330   3.900  12.276 -0.7159 -0.2433  0.0660
 3777TIP3    H232747   6.383   4.040  12.296  2.0032 -1.7232  3.9572
 3778TIP3   OH232748   3.157   6.637  11.098  0.1086  0.5452  0.4134
 3778TIP3    H132749   3.181   6.577  11.027 -2.4410  1.4785 -1.3469
 3778TIP3    H232750   3.085   6.594  11.143 -1.5116  2.0574 -0.6481
 3779TIP3   OH232751   2.437   5.693  14.283  0.1436  0.1746 -0.0379
 3779TIP3    H132752   2.422   5.651  14.368  1.0645 -0.0429  0.0295
 3779TIP3    H232753   2.394   5.778  14.290  0.5611  0.3256  0.8126
 3780TIP3   OH232754   5.537   2.534  10.096  0.4765 -0.7283 -0.0615
 3780TIP3    H132755   5.623   2.567  10.122  0.7851 -0.0503 -1.9213
 3780TIP3    H232756   5.549   2.502  10.007 -1.1631 -0.7895 -0.2703
 3781TIP3   OH232757   3.525   0.129  10.620  0.5924 -0.2401 -0.2141
 3781TIP3    H132758   3.584   0.067  10.662 -0.5809 -2.2652 -1.4692
 3781TIP3    H232759   3.555   0.132  10.529 -0.1063  0.1314 -0.4343
 3782TIP3   OH232760   1.028   2.537  10.826 -0.2376  0.2460 -0.2382
 3782TIP3    H132761   1.026   2.524  10.731 -1.5256  1.7325 -0.4412
 3782TIP3    H232762   1.104   2.594  10.840  0.1673 -0.2721 -0.3450
 3783TIP3   OH232763   3.700   1.587  11.066 -0.5483  0.1941  0.2555
 3783TIP3    H132764   3.653   1.504  11.075 -0.7753  0.4503  1.4816
 3783TIP3    H232765   3.639   1.644  11.019 -0.6098 -0.1478 -0.0878
 3784TIP3   OH232766   6.835   4.262  10.615 -0.0429  0.2248 -0.3751
 3784TIP3    H132767   6.913   4.312  10.589  0.4002 -0.5390 -0.5310
 3784TIP3    H232768   6.829   4.276  10.710  1.0965 -0.8376 -0.1376
 3785TIP3   OH232769   3.279   0.967  13.918  0.1970 -0.0344  0.3039
 3785TIP3    H132770   3.258   0.901  13.852 -0.8940  0.5974 -0.0119
 3785TIP3    H232771   3.221   0.947  13.991  2.8712 -2.0055  1.9597
 3786TIP3   OH232772   5.637   6.812  14.419  0.5222  0.1940  0.3057
 3786TIP3    H132773   5.699   6.844  14.353 -0.7661 -0.3553 -1.1898
 3786TIP3    H232774   5.593   6.890  14.451  1.3924  0.4988  0.7866
 3787TIP3   OH232775   3.851   4.921  13.289 -0.3565 -0.0614 -0.2246
 3787TIP3    H132776   3.848   4.828  13.309 -0.6307  0.1646  0.8298
 3787TIP3    H232777   3.778   4.959  13.338  0.3862  0.8547  0.2007
 3788TIP3   OH232778   6.519   1.852  14.115 -0.4520  0.0862  0.3994
 3788TIP3    H132779   6.437   1.814  14.083  0.2297 -1.0365 -0.0402
 3788TIP3    H232780   6.533   1.811  14.200  1.0593 -1.8673 -0.7252
 3789TIP3   OH232781   6.895   2.613  12.552 -0.5257  0.3126  0.3553
 3789TIP3    H132782   6.825   2.610  12.486  0.0231 -1.3720 -0.1706
 3789TIP3    H232783   6.856   2.659  12.626 -2.9636 -2.5860  0.9562
 3790TIP3   OH232784   2.242   7.056   0.050  0.1450  0.2772  0.0625
 3790TIP3    H132785   2.175   7.084   0.112 -1.0068  0.5559 -1.2836
 3790TIP3    H232786   2.223   6.963   0.035 -1.6308  0.9998 -2.3710
 3791TIP3   OH232787   0.410   2.313  12.689 -0.2204  0.5471  0.1598
 3791TIP3    H132788   0.407   2.285  12.598 -0.0916  2.4574 -0.4633
 3791TIP3    H232789   0.318   2.324  12.714 -0.2650 -0.2747  0.3582
 3792TIP3   OH232790   5.577   5.907  13.570 -0.0836 -0.7831 -0.0360
 3792TIP3    H132791   5.505   5.906  13.507  0.0833  0.7333 -0.2736
 3792TIP3    H232792   5.556   5.981  13.628 -0.1304 -2.0144  1.5576
 3793TIP3   OH232793   5.633   1.311  10.575  0.0409 -0.7723  0.5310
 3793TIP3    H132794   5.547   1.271  10.564 -0.1595 -0.4255  0.8414
 3793TIP3    H232795   5.680   1.251  10.633 -0.4376 -0.2949  1.4161
 3794TIP3   OH232796   6.074   6.907  10.445  0.1019 -0.3734 -0.2530
 3794TIP3    H132797   6.079   6.818  10.410  1.1931 -0.0818 -0.8618
 3794TIP3    H232798   5.990   6.941  10.414  0.2128 -0.7816 -1.0108
 3795TIP3   OH232799   7.132   1.528  11.377  0.6262 -0.2394  0.0895
 3795TIP3    H132800   7.131   1.607  11.432  0.7175  0.5607 -1.0500
 3795TIP3    H232801   7.121   1.456  11.439  1.3452  0.6168  1.2366
 3796TIP3   OH232802   6.011   5.844  10.535  0.0440  0.0342  0.2821
 3796TIP3    H132803   5.958   5.859  10.456  0.6890  2.0214  0.1917
 3796TIP3    H232804   6.042   5.754  10.526  0.1360  0.2323 -1.7740
 3797TIP3   OH232805   5.963   6.152  12.628  0.1813  0.1583 -0.2686
 3797TIP3    H132806   5.933   6.203  12.552  0.8835  2.6015  1.0583
 3797TIP3    H232807   6.053   6.128  12.606  0.3051  0.6565 -0.3110
 3798TIP3   OH232808   4.611   5.598  13.056  0.1768 -0.3484 -0.2822
 3798TIP3    H132809   4.650   5.664  13.113  1.1262 -0.8269 -0.3660
 3798TIP3    H232810   4.524   5.633  13.035  0.3770  0.5126  0.2793
 3799TIP3   OH232811   0.641   0.597   0.023 -0.5300 -0.3508  0.5312
 3799TIP3    H132812   0.705   0.632  -0.039 -1.5992  0.2414 -0.2407
 3799TIP3    H232813   0.659   0.503   0.026 -0.3947 -0.3661 -0.5902
 3800TIP3   OH232814   3.537   0.712  12.309 -0.1228  0.2412  0.0744
 3800TIP3    H132815   3.471   0.699  12.377  1.7102  2.0555  2.2934
 3800TIP3    H232816   3.512   0.794  12.267  0.5946  0.8556  0.8228
 3801TIP3   OH232817   6.204   0.296  13.469 -0.1260 -0.1502  0.0556
 3801TIP3    H132818   6.131   0.289  13.407 -0.0671  0.1198 -0.0462
 3801TIP3    H232819   6.195   0.384  13.506  0.5691  0.1543 -0.4870
 3802TIP3   OH232820   2.853   6.860  10.139 -0.8134  1.2579 -0.4301
 3802TIP3    H132821   2.924   6.872  10.076 -0.1577  3.8912  0.7664
 3802TIP3    H232822   2.868   6.927  10.206 -1.1566 -1.8507  2.8988
 3803TIP3   OH232823   0.470   0.644  10.571 -0.7715  0.5141  0.1781
 3803TIP3    H132824   0.418   0.617  10.647 -1.4348  2.0220  0.2820
 3803TIP3    H232825   0.553   0.673  10.607 -0.7382  0.3359  0.2422
 3804TIP3   OH232826   6.095   1.251  10.705  0.6163 -0.8209 -0.2291
 3804TIP3    H132827   6.018   1.210  10.666  0.2774 -0.9938  0.6059
 3804TIP3    H232828   6.081   1.345  10.694  1.2233 -0.9012 -1.8251
 3805TIP3   OH232829   0.977   0.387  11.709  0.9798  0.5113 -0.8203
 3805TIP3    H132830   1.014   0.353  11.627 -0.8609 -2.6108 -0.4448
 3805TIP3    H232831   0.902   0.439  11.681  0.1363 -0.8454 -1.1421
 3806TIP3   OH232832   0.287   3.610  10.172  0.0099  0.9142  0.1542
 3806TIP3    H132833   0.315   3.559  10.248  2.3304 -0.1014 -1.2902
 3806TIP3    H232834   0.251   3.544  10.112  1.8224  1.0976 -1.1944
 3807TIP3   OH232835   7.134   2.282  10.156  0.6799  0.4489  0.2240
 3807TIP3    H132836   7.208   2.310  10.210  1.6776 -0.3898 -0.6952
 3807TIP3    H232837   7.170   2.272  10.068 -0.2064 -1.2733  0.0318
 3808TIP3   OH232838   1.323   0.849  14.200 -0.3372  0.2514  0.0495
 3808TIP3    H132839   1.349   0.784  14.266  0.5934  0.8942  0.3314
 3808TIP3    H232840   1.306   0.799  14.121  1.2754 -0.2657  0.0050
 3809TIP3   OH232841   4.205   5.205  11.877 -0.1074 -0.4654 -0.4695
 3809TIP3    H132842   4.202   5.131  11.936 -0.0203 -0.5196 -0.5335
 3809TIP3    H232843   4.273   5.262  11.912 -0.3218 -0.3142 -0.2989
 3810TIP3   OH232844   1.966   0.825  13.712  0.5375 -0.3702  0.0554
 3810TIP3    H132845   1.951   0.751  13.653  3.9565 -2.2498  1.4423
 3810TIP3    H232846   1.948   0.790  13.799 -0.4043  1.2147  0.5170
 3811TIP3   OH232847   0.189   3.248  11.647  0.3325  0.4973  0.0049
 3811TIP3    H132848   0.200   3.187  11.720 -0.0934 -0.4015 -0.6837
 3811TIP3    H232849   0.265   3.233  11.591  0.6436  1.1678  0.2350
 3812TIP3   OH232850   3.566   6.181  11.067 -0.1958  0.0740  0.2564
 3812TIP3    H132851   3.486   6.202  11.114 -1.5820 -0.0984 -1.9570
 3812TIP3    H232852   3.621   6.137  11.132 -1.0447  2.0016  2.3552
 3813TIP3   OH232853   1.110   0.303   1.018 -0.3255 -0.2908  0.5596
 3813TIP3    H132854   1.138   0.248   1.091 -0.2927  0.8229  1.3924
 3813TIP3    H232855   1.021   0.274   0.999 -0.7079  0.0899  1.7128
 3814TIP3   OH232856   3.508   1.244  10.324 -0.3459  0.6449 -0.6698
 3814TIP3    H132857   3.543   1.314  10.380  1.9458  0.3162 -1.6359
 3814TIP3    H232858   3.464   1.291  10.253  0.6824  1.1455 -1.0011
 3815TIP3   OH232859   0.976   5.341  11.520 -0.3233 -0.3207  0.1627
 3815TIP3    H132860   0.903   5.358  11.460 -0.0293  0.1596 -0.0664
 3815TIP3    H232861   1.000   5.250  11.504  1.8207  0.6651 -2.7518
 3816TIP3   OH232862   0.305   0.666  15.246 -0.4821  0.4480 -0.2470
 3816TIP3    H132863   0.290   0.591  15.303  0.6167  0.8007  0.5444
 3816TIP3    H232864   0.259   0.645  15.165  0.2450 -1.3204 -0.2334
 3817TIP3   OH232865   6.273   6.982  14.934 -0.2616 -0.0421  0.3512
 3817TIP3    H132866   6.192   7.001  14.980 -0.9427 -0.6380 -0.5794
 3817TIP3    H232867   6.260   7.018  14.846 -0.7861 -2.9169 -0.8082
 3818TIP3   OH232868   1.507   1.925  13.297  0.2808  0.3423 -0.3005
 3818TIP3    H132869   1.473   1.895  13.382  1.3965 -0.4896 -0.1394
 3818TIP3    H232870   1.563   1.854  13.267 -0.4295  0.4522 -1.9503
 3819TIP3   OH232871   5.618   2.772  13.542  0.2342 -0.0838 -0.2267
 3819TIP3    H132872   5.589   2.784  13.632 -0.5839  1.8320 -0.7249
 3819TIP3    H232873   5.713   2.781  13.546 -0.0247  3.5843 -0.0119
 3820TIP3   OH232874   1.085   1.798  10.912  0.2498 -0.4710 -0.0263
 3820TIP3    H132875   1.109   1.722  10.859 -2.6142 -1.5396  0.1516
 3820TIP3    H232876   1.024   1.847  10.857 -0.4683 -0.0390  1.1577
 3821TIP3   OH232877   2.047   0.426  11.887  0.4440 -0.1072 -0.7703
 3821TIP3    H132878   2.119   0.414  11.949  0.5308  0.1602 -0.8172
 3821TIP3    H232879   2.037   0.521  11.880 -1.6447 -0.1460  1.1889
 3822TIP3   OH232880   0.815   5.198  12.986 -0.4404 -1.0043 -0.1161
 3822TIP3    H132881   0.736   5.230  12.943  0.0523 -1.1987 -1.1940
 3822TIP3    H232882   0.799   5.209  13.080 -1.3239 -0.0829 -0.3774
 3823TIP3   OH232883   0.569   5.526  11.500 -1.0346 -0.2180 -0.6313
 3823TIP3    H132884   0.484   5.570  11.505  0.7140  3.4724 -1.8152
 3823TIP3    H232885   0.612   5.547  11.583  0.2389  1.2597 -1.6476
 3824TIP3   OH232886   4.241   3.706  14.633  0.5713  0.4881  0.5169
 3824TIP3    H132887   4.225   3.784  14.582  2.3891  0.4555 -0.1562
 3824TIP3    H232888   4.252   3.737  14.723 -0.8846  0.7405  0.6113
 3825TIP3   OH232889   0.991   3.700  10.861  0.2342 -0.4381 -0.2744
 3825TIP3    H132890   1.079   3.673  10.835 -0.1534 -1.0308 -0.9497
 3825TIP3    H232891   0.932   3.645  10.810 -0.5294 -0.6947  0.8768
 3826TIP3   OH232892   7.037   2.249  11.785  0.1547  0.0539  0.4691
 3826TIP3    H132893   7.132   2.242  11.775  0.2462  0.1725  1.2101
 3826TIP3    H232894   7.025   2.294  11.869 -0.5875 -3.1328  2.1442
 3827TIP3   OH232895   4.242   0.788  13.191  0.1941  0.0674 -0.1941
 3827TIP3    H132896   4.226   0.791  13.285 -0.8942  2.2145 -0.4237
 3827TIP3    H232897   4.301   0.861  13.174  0.4201 -0.3345 -1.1677
 3828TIP3   OH232898   1.806   2.149  10.884 -0.0762  0.2972 -0.2342
 3828TIP3    H132899   1.867   2.152  10.810  0.1493 -0.0215 -0.0620
 3828TIP3    H232900   1.721   2.132  10.845  0.0320  0.2043 -0.4272
 3829TIP3   OH232901   0.856   1.436  10.005  0.0933  0.0225 -0.0031
 3829TIP3    H132902   0.888   1.421   9.916  1.0234  0.8376  0.1743
 3829TIP3    H232903   0.807   1.358  10.027  3.4503 -2.1010  0.3321
 3830TIP3   OH232904   3.989   0.345  11.005  0.0404 -0.0274 -0.0571
 3830TIP3    H132905   4.043   0.378  10.933  2.1492 -0.6660  1.1776
 3830TIP3    H232906   4.016   0.396  11.081 -1.9622  0.4420  0.3727
 3831TIP3   OH232907   5.348   3.248  10.888 -0.5211 -0.0877  0.1465
 3831TIP3    H132908   5.278   3.313  10.880  0.2227  0.5217 -1.6563
 3831TIP3    H232909   5.385   3.241  10.800  1.5137 -0.5941  0.9995
 3832TIP3   OH232910   1.924   2.689  10.380  0.3305  0.2688 -0.1560
 3832TIP3    H132911   1.996   2.662  10.438  1.6340  0.5841 -1.6048
 3832TIP3    H232912   1.876   2.754  10.432  0.0183 -1.2414  1.5021
 3833TIP3   OH232913   6.210   2.029   9.932  0.3620 -0.1586  0.2169
 3833TIP3    H132914   6.119   2.045   9.906  0.2752 -0.1465  0.5229
 3833TIP3    H232915   6.259   2.029   9.850  0.3170  1.3819  0.1824
 3834TIP3   OH232916   3.306   4.203  13.222 -0.1858  0.2030 -0.5905
 3834TIP3    H132917   3.317   4.109  13.207 -3.2387 -0.3839  0.3396
 3834TIP3    H232918   3.242   4.230  13.156 -1.1830  1.0870  0.7095
 3835TIP3   OH232919   0.200   7.021   3.716 -0.0319 -0.1368 -0.2564
 3835TIP3    H132920   0.124   7.044   3.663 -0.1980 -2.5388 -1.1286
 3835TIP3    H232921   0.270   7.076   3.682 -1.3878  2.2926  0.7306
 3836TIP3   OH232922   5.168   2.379  12.820 -0.6338  0.3521 -0.0420
 3836TIP3    H132923   5.256   2.356  12.790 -2.2663 -1.2861 -3.8145
 3836TIP3    H232924   5.159   2.472  12.800 -0.5826 -0.0280 -1.9216
 3837TIP3   OH232925   5.378   5.803  12.405  0.7199 -0.5819  0.1901
 3837TIP3    H132926   5.316   5.777  12.473 -0.7773 -1.1122 -1.3338
 3837TIP3    H232927   5.427   5.723  12.386 -1.0497 -1.2934 -1.5695
 3838TIP3   OH232928   5.333   1.638  12.843 -0.0719  0.2784 -0.1431
 3838TIP3    H132929   5.349   1.718  12.895  0.7924  0.6969 -1.0479
 3838TIP3    H232930   5.417   1.617  12.804 -0.6554 -0.1920 -1.1726
 3839TIP3   OH232931   6.546   5.189  11.872 -0.3037 -0.3928 -0.5761
 3839TIP3    H132932   6.637   5.185  11.844  0.3542 -0.6477  1.5483
 3839TIP3    H232933   6.521   5.280  11.860  1.2311  0.3762  1.8635
 3840TIP3   OH232934   6.834   5.182  12.097  0.5249  0.2915 -0.5505
 3840TIP3    H132935   6.831   5.124  12.020 -0.6017  2.0841 -1.9051
 3840TIP3    H232936   6.822   5.270  12.061 -0.1705  1.1612  1.7072
 3841TIP3   OH232937   5.208   4.753  10.039 -0.4493 -0.0010  0.1331
 3841TIP3    H132938   5.145   4.706   9.984  0.3875  0.3194 -1.1296
 3841TIP3    H232939   5.202   4.844  10.010  0.1328  0.1420  0.4552
 3842TIP3   OH232940   1.278   2.517  14.250  0.0352  0.4332 -0.4586
 3842TIP3    H132941   1.346   2.486  14.310 -0.0215  1.4532  0.1550
 3842TIP3    H232942   1.221   2.441  14.237  1.2626 -0.4076 -0.9418
 3843TIP3   OH232943   4.406   0.619  12.287  0.5133  0.2210  0.1456
 3843TIP3    H132944   4.347   0.546  12.307  1.9981 -0.9242  0.4616
 3843TIP3    H232945   4.353   0.680  12.237 -0.4303 -1.6791 -1.2494
 3844TIP3   OH232946   3.919   1.727  15.498  0.0933 -0.4437  0.1695
 3844TIP3    H132947   3.982   1.743  15.568 -1.9227  1.6520  1.5615
 3844TIP3    H232948   3.973   1.723  15.418  2.0734  0.2852  1.4354
 3845TIP3   OH232949   5.510   5.642  11.905 -0.1730 -0.4255 -0.5168
 3845TIP3    H132950   5.600   5.621  11.883  0.1289  1.3972 -1.1092
 3845TIP3    H232951   5.503   5.623  11.999  0.6175 -1.2536 -0.6277
 3846TIP3   OH232952   3.360   2.264  12.962 -0.1236 -0.1248  0.3833
 3846TIP3    H132953   3.407   2.333  13.009  0.8063  0.0877 -0.8340
 3846TIP3    H232954   3.381   2.184  13.011  1.8134 -0.0849 -0.3265
 3847TIP3   OH232955   4.725   2.314  14.786  0.5743 -0.1421 -0.4598
 3847TIP3    H132956   4.757   2.340  14.872 -0.6231 -0.3217  0.0495
 3847TIP3    H232957   4.694   2.225  14.798  0.5727 -0.2328 -1.1276
 3848TIP3   OH232958   1.113   6.959  12.929 -0.4746  0.0355 -0.1923
 3848TIP3    H132959   1.064   7.032  12.966 -0.6951 -0.6978  1.0081
 3848TIP3    H232960   1.047   6.899  12.895 -0.3606 -0.1987 -0.0108
 3849TIP3   OH232961   4.157   5.126  10.471 -0.6652 -0.5949  0.5920
 3849TIP3    H132962   4.083   5.132  10.531 -1.0684 -0.1918  0.0702
 3849TIP3    H232963   4.233   5.150  10.524 -1.0786  0.2224  0.8283
 3850TIP3   OH232964   2.139   6.519   0.833 -0.1007  0.2146  0.1519
 3850TIP3    H132965   2.218   6.568   0.857 -0.5678  0.7747  0.5522
 3850TIP3    H232966   2.138   6.523   0.737 -0.2199  1.1397  0.1844
 3851TIP3   OH232967   5.803   7.032  12.340 -0.0552 -0.3442  0.4652
 3851TIP3    H132968   5.776   7.124  12.347  0.3314 -0.2636  0.8819
 3851TIP3    H232969   5.720   6.983  12.342 -0.3324  0.0451 -0.7833
 3852TIP3   OH232970   5.219   6.850  13.176 -0.2252  0.6508 -0.5581
 3852TIP3    H132971   5.148   6.913  13.179  0.1372  1.0186  0.2828
 3852TIP3    H232972   5.177   6.765  13.190 -0.6587  0.7381 -1.3170
 3853TIP3   OH232973   0.341   0.288  13.449 -0.0149 -0.5037  0.2614
 3853TIP3    H132974   0.336   0.363  13.509  0.2082  1.3835 -2.0407
 3853TIP3    H232975   0.416   0.237  13.481  0.7290  1.0147  1.0034
 3854TIP3   OH232976   0.102   1.454  11.748  0.6174 -0.0643  0.0619
 3854TIP3    H132977   0.035   1.409  11.696  0.3357 -0.9943  1.2149
 3854TIP3    H232978   0.176   1.464  11.688  0.3074 -1.1652 -0.5087
 3855TIP3   OH232979   6.383   2.400  13.169  0.5024 -0.1954  0.3395
 3855TIP3    H132980   6.444   2.358  13.229 -0.9155 -2.4394  0.2659
 3855TIP3    H232981   6.352   2.477  13.217  0.0580 -1.4713  2.1442
 3856TIP3   OH232982   3.560   1.931  13.577  0.2102  0.3133 -0.1791
 3856TIP3    H132983   3.472   1.897  13.591 -0.3265  0.9455 -1.8533
 3856TIP3    H232984   3.567   2.004  13.639 -0.3223  0.0566  0.1888
 3857TIP3   OH232985   6.198   1.530  14.826 -0.0135  0.2653  0.5340
 3857TIP3    H132986   6.166   1.575  14.904 -1.6513 -1.7929  1.0916
 3857TIP3    H232987   6.255   1.461  14.858  1.8840  1.3905 -0.2891
 3858TIP3   OH232988   2.838   2.732  11.685 -0.9714  0.5295 -0.7233
 3858TIP3    H132989   2.845   2.757  11.777 -0.6150 -1.5228 -0.1568
 3858TIP3    H232990   2.898   2.658  11.676 -1.2353  0.5090 -2.5327
 3859TIP3   OH232991   6.787   2.343  12.856 -1.1599  0.3332 -0.0819
 3859TIP3    H132992   6.758   2.252  12.862 -1.2906  0.3899  0.1856
 3859TIP3    H232993   6.779   2.376  12.946 -0.4803  0.4122 -0.0473
 3860TIP3   OH232994   5.943   4.483  12.911 -0.0732  0.5588 -0.8393
 3860TIP3    H132995   5.884   4.493  12.837 -0.1228  1.6397 -0.6683
 3860TIP3    H232996   5.969   4.573  12.933 -0.7389  0.3244  1.0079
 3861TIP3   OH232997   6.534   1.961  10.298  0.7418 -0.0451 -0.0860
 3861TIP3    H132998   6.589   2.021  10.248  1.2355 -0.7346 -0.3863
 3861TIP3    H232999   6.449   2.004  10.303  1.7885  1.9158  1.9598
 3862TIP3   OH233000   3.512   6.559   9.944  0.0714  0.2552  0.3287
 3862TIP3    H133001   3.590   6.504   9.933 -1.3830 -1.4281 -2.2303
 3862TIP3    H233002   3.538   6.645   9.912  0.6478 -0.5504 -1.4600
 3863TIP3   OH233003   6.123   6.685  15.527  0.4717  0.2449 -0.1744
 3863TIP3    H133004   6.193   6.684  15.462  1.1712  0.1295  0.5721
 3863TIP3    H233005   6.044   6.662  15.478  0.6798  1.9227 -1.3304
 3864TIP3   OH233006   6.252   6.058  14.560  0.2557  0.0714  0.0227
 3864TIP3    H133007   6.160   6.054  14.588  0.7870  1.0928  2.0052
 3864TIP3    H233008   6.254   6.129  14.495 -0.1584  0.8225  0.8146
 3865TIP3   OH233009   5.642   0.099  12.170  0.1892 -0.2055 -0.2130
 3865TIP3    H133010   5.623   0.054  12.088 -0.5766 -1.1347  0.4704
 3865TIP3    H233011   5.690   0.177  12.144  0.0686 -0.5707 -1.5369
 3866TIP3   OH233012   2.209   5.855  11.725  0.2290  0.4220 -0.3462
 3866TIP3    H133013   2.234   5.888  11.811  1.1184  1.2507 -0.9040
 3866TIP3    H233014   2.169   5.929  11.681 -1.1376 -0.2782 -0.2952
 3867TIP3   OH233015   1.991   3.962  12.448  0.2838  0.0886  0.0795
 3867TIP3    H133016   2.057   3.893  12.445  1.5242  1.3191 -2.0219
 3867TIP3    H233017   1.924   3.934  12.386 -0.4038 -0.3703  1.0127
 3868TIP3   OH233018   2.363   0.940  14.739  0.0545 -0.4108  0.3183
 3868TIP3    H133019   2.387   0.895  14.820 -1.6739 -0.0500  1.0615
 3868TIP3    H233020   2.272   0.969  14.754 -0.0765  0.1790 -1.5171
 3869TIP3   OH233021   6.194   1.319  11.178  0.2179 -0.0893 -0.1391
 3869TIP3    H133022   6.111   1.366  11.186  0.1261 -0.2135 -0.3793
 3869TIP3    H233023   6.208   1.283  11.266  0.6556  0.9850  0.2388
 3870TIP3   OH233024   5.114   4.802   0.859 -0.6177 -0.1065  0.1426
 3870TIP3    H133025   5.151   4.861   0.793 -0.3856  0.3991  0.7221
 3870TIP3    H233026   5.155   4.717   0.842  0.1101  0.2318  0.1956
 3871TIP3   OH233027   7.034   4.311   2.664  0.2538  0.0491  0.1552
 3871TIP3    H133028   6.983   4.245   2.617 -1.5854  0.8398  0.9953
 3871TIP3    H233029   7.108   4.329   2.606  0.5087 -2.3475 -0.3185
 3872TIP3   OH233030   0.573   5.290  14.804  0.6738  0.2191  0.3921
 3872TIP3    H133031   0.650   5.288  14.861  0.4307  1.7990  0.8148
 3872TIP3    H233032   0.572   5.380  14.770 -0.2277 -0.1860 -0.6636
 3873TIP3   OH233033   2.818   6.904  14.159  0.4751 -0.1566  0.2841
 3873TIP3    H133034   2.838   6.855  14.239 -2.3344  0.7706  1.6265
 3873TIP3    H233035   2.813   6.837  14.091 -0.5343 -1.4197  1.5581
 3874TIP3   OH233036   5.645   1.904  10.640 -0.3785  0.1143 -0.0285
 3874TIP3    H133037   5.607   1.991  10.655 -1.9690 -0.6904  0.7509
 3874TIP3    H233038   5.608   1.877  10.556 -0.6211 -0.1831  0.1723
 3875TIP3   OH233039   3.119   6.893  13.597  0.0976 -0.3084  0.3800
 3875TIP3    H133040   3.117   6.894  13.693 -0.5847 -0.9041  0.3713
 3875TIP3    H233041   3.197   6.944  13.575  0.0271  0.1953  1.2431
 3876TIP3   OH233042   2.135   6.352  14.071  0.2143 -0.1312 -0.0164
 3876TIP3    H133043   2.133   6.421  14.137 -0.7857  0.4054 -0.5951
 3876TIP3    H233044   2.142   6.398  13.988  0.3399 -0.7584 -0.3598
 3877TIP3   OH233045   6.826   3.227  10.531 -0.2862  0.3230 -0.3617
 3877TIP3    H133046   6.916   3.218  10.563 -0.2122  2.0145 -0.0566
 3877TIP3    H233047   6.834   3.277  10.450 -1.0987  2.2242  0.6829
 3878TIP3   OH233048   0.587   2.166  10.464 -0.3525  0.1089  0.1467
 3878TIP3    H133049   0.673   2.145  10.428 -0.0122  1.5153  0.0843
 3878TIP3    H233050   0.535   2.087  10.452  0.8571 -0.6572 -0.0640
 3879TIP3   OH233051   4.630   4.430  10.192  0.3451 -0.1474 -0.0199
 3879TIP3    H133052   4.708   4.484  10.197  0.1777  0.0136  0.9851
 3879TIP3    H233053   4.581   4.464  10.117  0.1839  1.1874  0.6783
 3880TIP3   OH233054   0.254   1.052  13.872  0.6079  0.1270 -0.3639
 3880TIP3    H133055   0.348   1.043  13.885  0.7300  0.0442 -1.3098
 3880TIP3    H233056   0.239   1.147  13.877  0.7938  0.1690 -0.6156
 3881TIP3   OH233057   6.550   1.221  12.572 -0.1701  0.2112 -0.6036
 3881TIP3    H133058   6.555   1.130  12.601 -0.1265 -0.2110 -1.8912
 3881TIP3    H233059   6.635   1.259  12.595 -0.4370  0.1175  0.5429
 3882TIP3   OH233060   2.379   3.512  12.517  0.0943 -0.4781  0.6653
 3882TIP3    H133061   2.307   3.473  12.566  1.4316 -2.5322  1.0832
 3882TIP3    H233062   2.442   3.441  12.507  1.8528  1.1353 -0.0959
 3883TIP3   OH233063   4.290   1.818  10.103 -0.2890  0.5502  0.0725
 3883TIP3    H133064   4.211   1.780  10.065  0.5087 -2.2794  1.1384
 3883TIP3    H233065   4.360   1.795  10.042  0.3273 -0.3592  1.1108
 3884TIP3   OH233066   0.693   1.597  12.156  0.0314  0.7345  0.1094
 3884TIP3    H133067   0.725   1.530  12.096 -3.2744 -0.2309 -0.6422
 3884TIP3    H233068   0.698   1.557  12.243  0.2912  0.3996 -0.0610
 3885TIP3   OH233069   3.828   2.939  12.901  0.6151 -0.4063  0.1070
 3885TIP3    H133070   3.858   3.013  12.954 -0.9397 -0.2363  0.7675
 3885TIP3    H233071   3.802   2.978  12.818  2.5287 -0.5994 -0.5954
 3886TIP3   OH233072   5.930   2.803  11.230 -0.0398 -0.8410 -0.6490
 3886TIP3    H133073   5.922   2.770  11.140 -0.0535 -3.1203  0.1377
 3886TIP3    H233074   6.001   2.867  11.227  1.0010 -2.0300 -1.9902
 3887TIP3   OH233075   5.381   0.902  13.509 -0.6236 -0.5788  0.7143
 3887TIP3    H133076   5.322   0.965  13.468  0.0341  1.4310  2.7460
 3887TIP3    H233077   5.355   0.818  13.473 -1.6983  0.7982 -1.8888
 3888TIP3   OH233078   3.338   4.399  10.940 -0.1615  0.4790 -0.0358
 3888TIP3    H133079   3.314   4.391  10.847 -0.5473  1.4866 -0.0299
 3888TIP3    H233080   3.353   4.309  10.969  2.9017  0.3531 -1.8380
 3889TIP3   OH233081   6.374   2.271  12.925  0.3633 -0.3539 -0.2667
 3889TIP3    H133082   6.360   2.353  12.879 -0.0362 -0.7386 -0.8330
 3889TIP3    H233083   6.366   2.294  13.018 -3.5031 -0.4213 -0.5050
 3890TIP3   OH233084   1.013   0.125  12.432 -0.2820 -0.3339  0.1100
 3890TIP3    H133085   0.995   0.141  12.339  1.1208 -1.7467 -0.4297
 3890TIP3    H233086   1.083   0.186  12.454 -0.1935 -0.4209  0.0725
 3891TIP3   OH233087   6.080   2.329  12.384 -0.0611  0.0589 -0.1970
 3891TIP3    H133088   6.051   2.399  12.326  0.2406 -0.5243 -1.0577
 3891TIP3    H233089   5.999   2.296  12.424 -0.3800 -0.1876 -1.0332
 3892TIP3   OH233090   3.031   2.694  14.492  0.2864 -0.2888 -0.4100
 3892TIP3    H133091   3.051   2.605  14.462 -3.0262 -1.1578 -0.2510
 3892TIP3    H233092   2.995   2.681  14.580  0.1828  1.2427 -0.2260
 3893TIP3   OH233093   4.423   1.868  12.458 -0.4092 -0.1731 -0.3318
 3893TIP3    H133094   4.397   1.804  12.391  0.3723  1.1474 -1.9216
 3893TIP3    H233095   4.513   1.891  12.436  0.3070 -0.6904  1.9696
 3894TIP3   OH233096   2.057   7.117   0.255  0.3492  0.0070 -0.4512
 3894TIP3    H133097   2.032   7.187   0.314 -0.4110  0.2232 -1.0327
 3894TIP3    H233098   1.986   7.112   0.191  1.1359 -0.2496 -1.3237
 3895TIP3   OH233099   1.168   1.659  15.074 -0.1730  0.0838  0.5854
 3895TIP3    H133100   1.079   1.656  15.039 -0.2347  1.9371  0.5275
 3895TIP3    H233101   1.157   1.694  15.163  0.5139  0.6120  0.4690
 3896TIP3   OH233102   3.856   0.618   0.423  0.3651  0.2965 -0.1713
 3896TIP3    H133103   3.951   0.626   0.435  0.5020 -0.3943 -0.7431
 3896TIP3    H233104   3.840   0.651   0.335 -0.4104  3.7186  1.1735
 3897TIP3   OH233105   5.354   0.357  13.295  0.1882 -0.0275 -0.6035
 3897TIP3    H133106   5.276   0.380  13.345 -0.4982  0.8701 -2.0446
 3897TIP3    H233107   5.320   0.330  13.209  1.2218 -3.0389 -0.1338
 3898TIP3   OH233108   2.497   6.203  10.556  0.1927  0.0340 -0.6367
 3898TIP3    H133109   2.460   6.219  10.470 -0.5967 -2.4656 -0.7914
 3898TIP3    H233110   2.423   6.171  10.609  1.3231 -1.4446  0.0858
 3899TIP3   OH233111   6.006   1.208  10.433  0.2387 -0.7663 -0.3116
 3899TIP3    H133112   5.991   1.184  10.341 -0.1597 -0.9819 -0.1918
 3899TIP3    H233113   6.079   1.271  10.430  1.5180 -2.2236 -0.6126
 3900TIP3   OH233114   3.845   6.881  13.133  0.0741 -0.0712  0.0941
 3900TIP3    H133115   3.751   6.863  13.136 -0.8707  4.4622  1.9258
 3900TIP3    H233116   3.851   6.966  13.090  3.2937  0.0229  0.6453
 3901TIP3   OH233117   5.758   0.929  14.516 -0.1439  0.8278 -0.3604
 3901TIP3    H133118   5.820   0.960  14.582 -0.6400  0.1800  0.4057
 3901TIP3    H233119   5.679   0.906  14.565 -0.2894 -0.2649 -1.0982
 3902TIP3   OH233120   2.963   7.006  12.870  0.1181  0.2764  0.2808
 3902TIP3    H133121   2.919   6.965  12.945 -1.1223  0.9263 -0.0678
 3902TIP3    H233122   2.952   7.100  12.886 -0.4146  0.4150 -0.8555
 3903TIP3   OH233123   1.771   0.574  12.898  0.6960 -0.2672 -0.2044
 3903TIP3    H133124   1.757   0.515  12.972  0.1069  0.8718  0.6061
 3903TIP3    H233125   1.864   0.563  12.876  0.3413 -2.3221 -0.8097
 3904TIP3   OH233126   6.955   2.451  10.285 -0.2825  0.4445 -0.2230
 3904TIP3    H133127   6.970   2.543  10.306 -1.0408  0.3556  0.7491
 3904TIP3    H233128   7.030   2.425  10.232  1.6006  0.7242  2.2174
 3905TIP3   OH233129   6.809   4.351   0.544  0.4792  0.9816 -0.6695
 3905TIP3    H133130   6.882   4.297   0.573 -0.1745  0.3445 -0.1694
 3905TIP3    H233131   6.748   4.352   0.618 -0.4056  0.8053 -1.3728
 3906TIP3   OH233132   4.840   0.307  11.725 -0.1784 -0.5707 -0.0890
 3906TIP3    H133133   4.867   0.390  11.687  1.6280 -0.7567  0.7468
 3906TIP3    H233134   4.848   0.244  11.654  0.0479 -0.3311 -0.2757
 3907TIP3   OH233135   6.881   3.793  12.562  0.4528 -0.2137 -0.5062
 3907TIP3    H133136   6.824   3.841  12.501 -0.8279 -2.6449 -1.2761
 3907TIP3    H233137   6.904   3.713  12.515  0.7921 -1.3843  1.6151
 3908TIP3   OH233138   5.144   2.166  10.511 -0.0127 -0.6734  0.1046
 3908TIP3    H133139   5.089   2.107  10.459  1.4143 -0.3831 -1.7687
 3908TIP3    H233140   5.146   2.247  10.461  2.1943 -0.7174  0.0967
 3909TIP3   OH233141   3.181   1.655  10.245 -0.6111 -0.2540 -0.3772
 3909TIP3    H133142   3.211   1.739  10.211  0.1173  0.6975  2.4558
 3909TIP3    H233143   3.212   1.653  10.336 -1.9730 -2.8981  0.0945
 3910TIP3   OH233144   3.637   1.327  12.392 -0.7611 -0.2367 -0.4772
 3910TIP3    H133145   3.668   1.306  12.480  2.4677  1.6551 -1.0608
 3910TIP3    H233146   3.662   1.250  12.340  1.4822  0.5176 -0.5771
 3911TIP3   OH233147   4.851   1.971  14.272  0.2314  0.0676 -0.6111
 3911TIP3    H133148   4.766   2.007  14.299  0.9546 -0.0010  1.9299
 3911TIP3    H233149   4.854   1.984  14.177 -2.0449  1.2891 -0.5478
 3912TIP3   OH233150   4.817   6.138   0.666  0.0133 -0.1567  0.3109
 3912TIP3    H133151   4.860   6.066   0.713  0.6231 -0.2623 -0.3916
 3912TIP3    H233152   4.843   6.125   0.574 -1.9897 -0.5337 -0.2154
 3913TIP3   OH233153   2.111   6.063  10.582  0.0237  0.4682 -0.5190
 3913TIP3    H133154   2.016   6.065  10.575 -0.0139  0.7563  0.0005
 3913TIP3    H233155   2.140   6.146  10.543  0.1028  0.1289 -1.1921
 3914TIP3   OH233156   1.949   0.251  14.919  0.0562 -0.3517 -0.2097
 3914TIP3    H133157   1.967   0.161  14.894  2.0940 -0.2126  0.5986
 3914TIP3    H233158   1.940   0.248  15.014  1.2365  0.4285 -0.0539
 3915TIP3   OH233159   2.988   2.287   9.265 -0.1986  0.6730  0.1259
 3915TIP3    H133160   2.926   2.272   9.336  0.8657  1.6671  1.2785
 3915TIP3    H233161   2.939   2.266   9.186 -0.4773 -3.4566  1.2874
 3916TIP3   OH233162   1.267   6.370  13.071 -0.5365 -0.5596  0.2454
 3916TIP3    H133163   1.311   6.380  13.156 -0.3632  2.6847 -0.1494
 3916TIP3    H233164   1.327   6.318  13.018  1.4017  1.1058  0.7502
 3917TIP3   OH233165   3.458   3.369  10.439 -0.0722  0.2967  0.2403
 3917TIP3    H133166   3.473   3.299  10.375 -2.5506 -1.5930  1.6607
 3917TIP3    H233167   3.515   3.347  10.512 -0.1919  0.2545  0.3211
 3918TIP3   OH233168   0.181   0.403  13.219  0.3062 -0.1391 -0.3695
 3918TIP3    H133169   0.104   0.358  13.184 -0.3156  0.1565  0.6039
 3918TIP3    H233170   0.190   0.370  13.308 -0.2796  1.8054  0.4303
 3919TIP3   OH233171   3.754   2.377  14.349 -0.2189  0.0924 -0.1165
 3919TIP3    H133172   3.692   2.315  14.388  2.5036 -1.9352  1.1819
 3919TIP3    H233173   3.757   2.352  14.256 -1.7785  0.5994 -0.3125
 3920TIP3   OH233174   6.890   0.006  11.415  0.6225 -0.1433  0.1490
 3920TIP3    H133175   6.950  -0.068  11.419  0.8370  0.0059 -0.2692
 3920TIP3    H233176   6.933   0.075  11.466  1.2861  0.2984 -0.9854
 3921TIP3   OH233177   1.133   2.643  13.554 -0.0488 -0.2351  0.0840
 3921TIP3    H133178   1.119   2.672  13.644 -1.9327 -0.0774 -0.2399
 3921TIP3    H233179   1.056   2.589  13.533  0.8239 -1.0435 -1.1057
 3922TIP3   OH233180   0.892   0.462  11.036  0.0119 -0.3647  0.2546
 3922TIP3    H133181   0.875   0.495  11.124  1.6113  1.2222  0.0011
 3922TIP3    H233182   0.973   0.412  11.044 -1.6295 -3.1693  0.3360
 3923TIP3   OH233183   5.631   5.794  11.565 -0.2884 -0.7383  0.5507
 3923TIP3    H133184   5.663   5.726  11.624  2.8025 -0.2651 -0.4686
 3923TIP3    H233185   5.665   5.876  11.601  0.5994 -0.3148 -1.1736
 3924TIP3   OH233186   3.456   0.383  12.236  0.1762 -0.3747  0.9064
 3924TIP3    H133187   3.417   0.305  12.276  0.8747 -0.7879  0.7905
 3924TIP3    H233188   3.544   0.355  12.209  1.1611  0.9946  2.6294
 3925TIP3   OH233189   6.009   6.093  13.733  0.3285  0.5368 -0.1001
 3925TIP3    H133190   5.921   6.071  13.702  0.2526  1.0945 -0.2975
 3925TIP3    H233191   6.049   6.009  13.754 -0.0453  0.2350 -0.5801
 3926TIP3   OH233192   4.523   1.439  13.184  0.0366  0.5129  0.5373
 3926TIP3    H133193   4.573   1.513  13.150 -0.4560  1.1073  1.0898
 3926TIP3    H233194   4.475   1.475  13.259  0.4110 -0.5596  1.3028
 3927TIP3   OH233195   5.074   0.817  11.922 -0.1273  0.4721 -0.4254
 3927TIP3    H133196   5.088   0.834  12.015 -0.7191 -0.9755 -0.0678
 3927TIP3    H233197   5.156   0.845  11.881 -0.1622  1.8705  0.4267
 3928TIP3   OH233198   5.539   5.021  12.668 -0.8301 -1.0013  0.4788
 3928TIP3    H133199   5.549   4.949  12.606  1.4987 -0.3935  0.0636
 3928TIP3    H233200   5.618   5.017  12.722  1.1391  3.2342 -1.7955
 3929TIP3   OH233201   6.397   6.076  15.429 -0.5501  0.1426 -0.5577
 3929TIP3    H133202   6.344   6.127  15.369  0.4634 -0.5437 -2.0558
 3929TIP3    H233203   6.474   6.130  15.445 -0.3536 -0.1008 -0.6695
 3930TIP3   OH233204   1.250   5.039  12.699 -0.6589 -0.1437 -0.2591
 3930TIP3    H133205   1.158   5.023  12.720 -0.4748 -0.6623  0.1494
 3930TIP3    H233206   1.255   5.029  12.604 -0.7522 -1.4690 -0.1292
 3931TIP3   OH233207   5.377   3.062  12.826  0.2927  0.6172  0.4914
 3931TIP3    H133208   5.458   3.083  12.781  0.4182  2.1600  1.4177
 3931TIP3    H233209   5.402   3.053  12.918  0.0271 -2.4106  0.3214
 3932TIP3   OH233210   4.744   0.789  13.006 -0.2435  0.1838 -0.3362
 3932TIP3    H133211   4.807   0.754  13.069  1.8811 -0.6117 -2.8022
 3932TIP3    H233212   4.676   0.722  13.000  0.2612 -0.3794  0.0997
 3933TIP3   OH233213   0.140   2.015  12.582  0.2680 -0.7150  0.9350
 3933TIP3    H133214   0.197   1.974  12.647  1.7922 -0.9270 -0.4896
 3933TIP3    H233215   0.189   2.008  12.500 -1.4233 -0.0619 -0.1566
 3934TIP3   OH233216   1.208   1.398  13.285  0.4079 -0.2034 -0.2922
 3934TIP3    H133217   1.125   1.436  13.314 -1.4252 -3.2334 -1.4140
 3934TIP3    H233218   1.254   1.379  13.367 -1.3189 -1.3141  0.4522
 3935TIP3   OH233219   0.314   4.748  11.272 -0.6063 -0.8085  0.2613
 3935TIP3    H133220   0.393   4.714  11.230 -0.4596 -1.2354  0.8831
 3935TIP3    H233221   0.346   4.795  11.349 -0.9278 -0.5909  0.2656
 3936TIP3   OH233222   1.830   0.712  11.919 -0.3228 -0.1480 -0.3849
 3936TIP3    H133223   1.857   0.804  11.913 -2.4336  0.5775  0.5966
 3936TIP3    H233224   1.885   0.676  11.989  0.0468  0.5593 -0.3016
 3937TIP3   OH233225   2.018   4.849  10.129 -0.7691  0.0165  0.0995
 3937TIP3    H133226   2.018   4.756  10.106 -2.0836 -0.5732  2.2713
 3937TIP3    H233227   1.991   4.894  10.049 -0.2143 -1.4761 -0.9525
 3938TIP3   OH233228   6.184   0.864  10.674  0.1375 -0.2890  0.1159
 3938TIP3    H133229   6.274   0.873  10.706  0.0149  0.0630  0.3679
 3938TIP3    H233230   6.184   0.782  10.624  0.7605  0.0327 -0.4187
 3939TIP3   OH233231   6.588   0.932   9.957  0.8924 -0.2883 -0.1879
 3939TIP3    H133232   6.618   1.008   9.907  0.5873  0.2300  0.4037
 3939TIP3    H233233   6.553   0.873   9.891  0.2254  0.5120 -0.5694
 3940TIP3   OH233234   1.617   3.592  12.152 -0.4139  0.2948 -0.1016
 3940TIP3    H133235   1.617   3.688  12.145  0.1149  0.2520 -0.7510
 3940TIP3    H233236   1.552   3.563  12.089 -1.9444  0.3099  1.4545
 3941TIP3   OH233237   5.716   4.128  11.801 -0.1640 -0.0222 -0.1367
 3941TIP3    H133238   5.661   4.124  11.879  1.2557  0.6589  0.9265
 3941TIP3    H233239   5.697   4.213  11.761 -0.3458 -0.0568 -0.1192
 3942TIP3   OH233240   5.378   0.967  10.470 -0.2688 -0.1201  0.1233
 3942TIP3    H133241   5.450   0.922  10.425  0.1462  1.3793 -0.7163
 3942TIP3    H233242   5.372   0.922  10.555  2.7826  0.8098  0.9100
 3943TIP3   OH233243   4.431   6.566  11.666  0.0600  0.1824  0.3261
 3943TIP3    H133244   4.432   6.531  11.576 -0.3427  0.7612  0.0946
 3943TIP3    H233245   4.501   6.631  11.667 -0.3325  0.6088  0.2551
 3944TIP3   OH233246   5.493   4.891  15.280  0.0439  0.3653  0.2678
 3944TIP3    H133247   5.492   4.847  15.195  0.9635  0.9818 -0.0648
 3944TIP3    H233248   5.465   4.980  15.261 -1.0097  0.1652  0.8200
 3945TIP3   OH233249   3.788   1.882  11.622 -0.3347  0.0444 -0.1437
 3945TIP3    H133250   3.739   1.856  11.701 -0.9183 -0.3419 -0.6290
 3945TIP3    H233251   3.854   1.814  11.611 -1.1142 -0.6191 -0.7499
 3946TIP3   OH233252   5.282   2.144  10.771 -0.3831 -0.4602 -0.1235
 3946TIP3    H133253   5.292   2.049  10.778 -0.5209 -0.5031 -0.4693
 3946TIP3    H233254   5.236   2.157  10.688  0.6169 -0.0306 -0.6270
 3947TIP3   OH233255   1.157   3.991  13.411  0.0889 -0.4032 -0.2461
 3947TIP3    H133256   1.129   3.932  13.342  0.8271 -1.3218  0.2170
 3947TIP3    H233257   1.202   3.934  13.474 -0.9760  0.3394  1.2143
 3948TIP3   OH233258   6.725   6.693  11.805  0.2577 -0.3989 -0.3965
 3948TIP3    H133259   6.711   6.762  11.870  0.6056  0.5270 -1.2981
 3948TIP3    H233260   6.715   6.612  11.855 -0.0825  0.2917  0.6903
 3949TIP3   OH233261   7.154   2.640  13.322 -0.3608 -0.1553 -0.5331
 3949TIP3    H133262   7.168   2.570  13.259  1.1439 -0.4566  0.1127
 3949TIP3    H233263   7.060   2.636  13.342 -0.0644 -3.0076  0.6520
 3950TIP3   OH233264   4.824   2.768  11.029  0.4223 -0.0809  0.6834
 3950TIP3    H133265   4.793   2.777  10.939 -1.9585 -1.8402  1.2810
 3950TIP3    H233266   4.887   2.696  11.026  0.4011 -0.0896  0.4315
 3951TIP3   OH233267   3.594   2.162   1.148  0.0484  0.6230 -0.3033
 3951TIP3    H133268   3.632   2.125   1.069 -0.3733 -1.1184  0.2844
 3951TIP3    H233269   3.606   2.094   1.215 -0.8645  1.4901  0.7742
 3952TIP3   OH233270   2.145   6.865  13.800 -0.0365 -0.8752 -0.4465
 3952TIP3    H133271   2.185   6.950  13.819  1.0510 -1.1430 -1.4805
 3952TIP3    H233272   2.090   6.881  13.724  1.7187 -1.5169 -1.8776
 3953TIP3   OH233273   1.836   1.053  11.287  0.0875 -0.0284  0.5242
 3953TIP3    H133274   1.805   0.963  11.302  1.2348 -0.4149  0.6042
 3953TIP3    H233275   1.852   1.057  11.192 -0.1287  0.1490  0.4947
 3954TIP3   OH233276   4.183   0.539  15.085  0.2622 -0.2164 -0.6960
 3954TIP3    H133277   4.273   0.513  15.061 -0.1137 -0.7672 -1.5507
 3954TIP3    H233278   4.129   0.466  15.054 -0.5068  0.2307 -0.4039
 3955TIP3   OH233279   6.575   0.312  11.283 -0.2164 -0.4854 -0.7450
 3955TIP3    H133280   6.616   0.242  11.232 -2.0617 -1.9550 -0.2798
 3955TIP3    H233281   6.647   0.353  11.330  0.7358 -3.1686  0.2447
 3956TIP3   OH233282   1.618   5.391  14.211 -0.1746 -0.4733 -0.1769
 3956TIP3    H133283   1.683   5.344  14.263  1.2471  0.4540 -1.0767
 3956TIP3    H233284   1.612   5.478  14.252 -0.2635 -0.2998 -0.5503
 3957TIP3   OH233285   6.722   1.947  13.967 -0.4365 -0.4063  0.1779
 3957TIP3    H133286   6.671   1.895  14.029 -0.1595 -0.3573  0.4455
 3957TIP3    H233287   6.710   1.902  13.883  0.2715 -1.2290  0.5117
 3958TIP3   OH233288   0.137   4.373  13.291 -0.1262 -0.6519  0.1512
 3958TIP3    H133289   0.142   4.352  13.384  2.5895  1.0359  0.4445
 3958TIP3    H233290   0.179   4.459  13.284 -1.7287 -0.0307 -2.4087
 3959TIP3   OH233291   4.224   1.293  13.891 -0.1687  0.0975 -0.0514
 3959TIP3    H133292   4.257   1.225  13.832 -1.6151 -0.8825  0.2517
 3959TIP3    H233293   4.276   1.285  13.970  1.2144  0.8654 -0.8573
 3960TIP3   OH233294   0.334   1.197  12.307  0.6815 -0.0470  0.0151
 3960TIP3    H133295   0.258   1.228  12.356 -0.6436 -0.9172 -1.4354
 3960TIP3    H233296   0.355   1.113  12.348 -0.4103 -0.7642 -0.8665
 3961TIP3   OH233297   1.424   5.207  10.020  0.1804 -0.1446  0.0708
 3961TIP3    H133298   1.357   5.177   9.959 -0.6019  0.0162  0.8319
 3961TIP3    H233299   1.458   5.287   9.980 -1.0239  0.5107  0.3162
 3962TIP3   OH233300   6.992   4.491  14.173  0.0530  0.7854  0.1200
 3962TIP3    H133301   7.066   4.434  14.195 -0.7039  0.9849  3.3622
 3962TIP3    H233302   6.919   4.432  14.159 -0.2429  0.8552  1.4007
 3963TIP3   OH233303   5.177   5.406  15.045 -0.0862 -0.1954 -0.3304
 3963TIP3    H133304   5.144   5.484  15.000  0.6787 -0.1974 -0.9079
 3963TIP3    H233305   5.159   5.334  14.985  1.6965 -0.0906 -1.0386
 3964TIP3   OH233306   2.825   5.729  11.331 -0.2296 -0.2212 -0.3137
 3964TIP3    H133307   2.837   5.807  11.277  0.0874 -0.3372 -0.4149
 3964TIP3    H233308   2.730   5.718  11.338 -0.2719 -0.0708 -0.6542
 3965TIP3   OH233309   1.394   2.856  11.816  0.4982  0.0233  0.3383
 3965TIP3    H133310   1.397   2.781  11.876  0.0568 -0.9270 -0.8198
 3965TIP3    H233311   1.449   2.829  11.742  0.0298  0.6927 -0.2538
 3966TIP3   OH233312   0.277   0.830  12.479  0.1004  0.0763  0.0224
 3966TIP3    H133313   0.321   0.756  12.437  0.0215  0.2184 -0.3098
 3966TIP3    H233314   0.224   0.790  12.549 -0.3389 -0.2304 -0.4812
 3967TIP3   OH233315   5.861   2.664  13.702  0.2033  0.1085 -0.1652
 3967TIP3    H133316   5.789   2.668  13.765  0.2898  1.1169 -0.1298
 3967TIP3    H233317   5.940   2.654  13.755  0.2879  1.0828 -0.1110
 3968TIP3   OH233318   5.386   0.314  10.627 -0.1836 -0.1613  0.6822
 3968TIP3    H133319   5.319   0.382  10.619 -0.0404 -0.1037 -0.0756
 3968TIP3    H233320   5.455   0.342  10.567 -1.5717 -2.7146 -2.2581
 3969TIP3   OH233321   0.601   0.130  12.677  0.7851  0.1778  0.8911
 3969TIP3    H133322   0.631   0.105  12.590 -0.5622  0.8000  0.2192
 3969TIP3    H233323   0.543   0.059  12.704 -1.8798  1.7649 -0.3983
 3970TIP3   OH233324   5.888   0.606  10.364 -0.0461  0.0186  0.1816
 3970TIP3    H133325   5.863   0.693  10.396 -0.9529 -0.4667  0.8275
 3970TIP3    H233326   5.820   0.583  10.300  0.7355  0.1933 -0.7348
 3971TIP3   OH233327   4.069   7.031  10.590 -0.0275  0.4946 -0.1659
 3971TIP3    H133328   4.112   7.076  10.662  0.3411  0.2612 -0.2351
 3971TIP3    H233329   4.136   6.971  10.556  0.0622  1.1607 -1.1980
 3972TIP3   OH233330   6.366   1.551  13.560  0.2218  0.3795 -0.5362
 3972TIP3    H133331   6.276   1.531  13.534 -0.1306  1.0838  0.1462
 3972TIP3    H233332   6.358   1.618  13.627  1.1132 -1.6593  1.6691
 3973TIP3   OH233333   6.022   0.375  11.845 -0.3958 -0.5620  0.0191
 3973TIP3    H133334   6.090   0.377  11.778 -0.3441  0.9622  0.0991
 3973TIP3    H233335   6.022   0.285  11.877  2.0004 -0.4350  0.4506
 3974TIP3   OH233336   4.448   2.392  14.468  0.0881 -0.0452  0.2122
 3974TIP3    H133337   4.486   2.361  14.550  1.7381  2.7816  0.5896
 3974TIP3    H233338   4.507   2.359  14.400  1.6021  1.8025  0.5794
 3975TIP3   OH233339   6.032   2.169  10.794 -0.1235  0.6893  0.4085
 3975TIP3    H133340   5.976   2.176  10.717  0.6317  2.5642  0.0151
 3975TIP3    H233341   6.116   2.138  10.760  0.0947  1.1428  0.5346
 3976TIP3   OH233342   0.233   3.537   0.335 -0.3442 -0.4745 -0.2880
 3976TIP3    H133343   0.139   3.543   0.351 -0.1326 -0.6413  1.0585
 3976TIP3    H233344   0.244   3.574   0.247 -1.7844 -1.4112 -0.8851
 3977TIP3   OH233345   3.616   4.098  14.222 -0.1021  0.0281  0.4102
 3977TIP3    H133346   3.696   4.054  14.251 -0.2369  0.2257  1.0980
 3977TIP3    H233347   3.554   4.027  14.206  0.3970 -0.1631 -0.7112
 3978TIP3   OH233348   1.931   6.434  14.729 -0.3055  0.6411  0.1311
 3978TIP3    H133349   1.837   6.422  14.738 -0.7975  2.9763 -1.3827
 3978TIP3    H233350   1.968   6.408  14.813 -2.0704 -2.2002  0.1045
 3979TIP3   OH233351   0.927   3.909  10.666  0.1221 -0.3125 -0.0823
 3979TIP3    H133352   0.972   3.828  10.692  1.9019  0.5485 -0.3770
 3979TIP3    H233353   0.838   3.881  10.644  0.1791 -1.9009  1.5781
 3980TIP3   OH233354   3.926   4.947  14.075 -0.1782  0.4706  0.4268
 3980TIP3    H133355   4.016   4.923  14.101  0.0343 -1.8350 -2.1915
 3980TIP3    H233356   3.937   4.995  13.993 -1.3484  0.1841  0.0997
 3981TIP3   OH233357   1.201   0.216  13.087 -0.6628  0.0485 -0.0416
 3981TIP3    H133358   1.293   0.191  13.074 -1.1301 -1.1380 -1.1954
 3981TIP3    H233359   1.204   0.286  13.153  0.9434 -0.9864  1.0162
 3982TIP3   OH233360   1.476   4.702  10.729  0.2966  0.8216 -0.2277
 3982TIP3    H133361   1.445   4.781  10.772  1.3222  1.7098 -1.0812
 3982TIP3    H233362   1.414   4.686  10.658 -0.3173  0.4440  0.3920
 3983TIP3   OH233363   0.007   3.132  11.428  0.1913 -0.2906  0.0485
 3983TIP3    H133364   0.020   3.193  11.501  0.3202  0.1246 -0.3198
 3983TIP3    H233365   0.053   3.172  11.354  1.2413 -1.3896  0.0880
 3984TIP3   OH233366   1.909   2.652  12.863  0.2325  0.0889 -0.4880
 3984TIP3    H133367   1.935   2.590  12.795 -1.7753 -1.1758 -0.1598
 3984TIP3    H233368   1.818   2.674  12.842  0.2688  1.3240  0.5903
 3985TIP3   OH233369   1.814   0.511  12.457 -0.3542 -0.5993  0.1614
 3985TIP3    H133370   1.789   0.428  12.416 -1.3858 -0.2794  0.1379
 3985TIP3    H233371   1.782   0.578  12.396 -0.8447 -0.1533  0.9106
 3986TIP3   OH233372   0.632   1.878  10.460  0.2298  0.3590  0.2545
 3986TIP3    H133373   0.663   1.884  10.369  0.9659  1.4295  0.5640
 3986TIP3    H233374   0.703   1.916  10.511 -0.7141  0.8711  1.1772
 3987TIP3   OH233375   1.941   2.753  11.535 -0.5639  0.2772  0.4477
 3987TIP3    H133376   2.028   2.790  11.552  0.0134 -0.9925  0.2972
 3987TIP3    H233377   1.939   2.672  11.586 -0.9273 -0.7037 -1.1030
 3988TIP3   OH233378   6.849   1.203  12.076 -0.0420 -0.1444  0.3737
 3988TIP3    H133379   6.805   1.274  12.029 -0.4983 -0.5006  0.2498
 3988TIP3    H233380   6.898   1.246  12.145  2.5374  0.6099 -1.8515
 3989TIP3   OH233381   2.052   4.179  13.332  0.0430  0.0886  0.3391
 3989TIP3    H133382   1.957   4.166  13.337 -0.1326  1.5428  1.0922
 3989TIP3    H233383   2.086   4.130  13.407  0.4179 -4.5563 -2.6275
 3990TIP3   OH233384   5.413   4.280  11.699 -0.1974  0.5568 -0.2566
 3990TIP3    H133385   5.446   4.232  11.623  0.5608  1.3256 -0.4243
 3990TIP3    H233386   5.371   4.358  11.662 -0.6569  0.4669  0.0618
 3991TIP3   OH233387   1.512   2.822  14.166 -0.0355  0.1406  0.3257
 3991TIP3    H133388   1.599   2.841  14.131  1.0052 -1.1119  2.1320
 3991TIP3    H233389   1.527   2.752  14.230 -2.3088  0.2059  0.9689
 3992TIP3   OH233390   1.455   2.080  14.244  0.2642 -0.3201 -0.1441
 3992TIP3    H133391   1.381   2.024  14.269  0.6542 -0.9445 -0.3733
 3992TIP3    H233392   1.451   2.153  14.304  0.5537 -1.2700  1.0470
 3993TIP3   OH233393   6.591   0.626  13.125  0.5596 -0.6801  0.0313
 3993TIP3    H133394   6.542   0.547  13.150  1.4320 -1.1431  0.2858
 3993TIP3    H233395   6.671   0.622  13.177  0.2280  0.8139  0.6608
 3994TIP3   OH233396   3.096   6.872  13.869  0.3720 -0.3367 -0.3454
 3994TIP3    H133397   3.088   6.920  13.951  1.4698 -0.7852  0.0491
 3994TIP3    H233398   3.049   6.790  13.884  2.9936 -1.6837  0.8949
 3995TIP3   OH233399   6.536   2.839  13.512 -0.3968 -0.1052  0.2941
 3995TIP3    H133400   6.499   2.926  13.504  0.7871  0.4519  0.6934
 3995TIP3    H233401   6.627   2.854  13.537 -0.4893 -1.4740  1.5251
 3996TIP3   OH233402   1.829   1.086  10.939 -0.0027 -0.2104 -0.1692
 3996TIP3    H133403   1.841   1.142  10.862 -0.3527 -0.3422 -0.3230
 3996TIP3    H233404   1.873   1.004  10.918  0.5250  0.0105  0.0623
 3997TIP3   OH233405   5.183   3.435  14.305 -0.0649 -0.0754  0.5371
 3997TIP3    H133406   5.131   3.384  14.366  0.9089  1.0271  2.3235
 3997TIP3    H233407   5.183   3.383  14.224 -0.8078 -1.8727  1.6661
 3998TIP3   OH233408   0.344   4.336  14.319 -0.1942  0.2207 -0.7064
 3998TIP3    H133409   0.375   4.253  14.357 -2.3447 -1.1997 -1.9641
 3998TIP3    H233410   0.383   4.337  14.232 -0.7278  0.1888 -0.9453
 3999TIP3   OH233411   1.800   1.119  10.192  0.0391 -0.6303 -0.1245
 3999TIP3    H133412   1.724   1.137  10.247  0.4287  0.5038  0.0483
 3999TIP3    H233413   1.817   1.026  10.206  0.4245 -0.2659  2.0535
 4000TIP3   OH233414   2.950   3.816  14.276 -0.2103 -0.0421  0.0452
 4000TIP3    H133415   2.943   3.904  14.240  0.5247 -0.2003 -0.5011
 4000TIP3    H233416   2.880   3.767  14.233 -1.8451  0.7300  1.7647
 4001TIP3   OH233417   2.794   5.824  14.070 -1.5781  0.2336 -0.1260
 4001TIP3    H133418   2.854   5.825  13.995 -1.3806  0.7924  0.0348
 4001TIP3    H233419   2.724   5.884  14.046 -1.9734 -0.2584 -0.2228
 4002TIP3   OH233420   3.788   0.743  12.449 -0.0762 -0.1753 -0.1126
 4002TIP3    H133421   3.743   0.750  12.365 -1.3724  2.0897  0.7449
 4002TIP3    H233422   3.723   0.703  12.507  0.3684 -0.4904  0.1745
 4003TIP3   OH233423   3.529   4.741   0.526  0.7924  0.4129 -0.0535
 4003TIP3    H133424   3.591   4.807   0.555  2.1704  0.5155 -3.0935
 4003TIP3    H233425   3.569   4.658   0.550 -0.1580  0.5830  2.2464
 4004TIP3   OH233426   3.625   2.878   0.034  0.3401 -0.1545 -0.4217
 4004TIP3    H133427   3.560   2.942   0.060  1.5355  0.8278  0.2167
 4004TIP3    H233428   3.612   2.868  -0.061  1.3860  2.5063 -0.8957
 4005TIP3   OH233429   0.231   4.343  11.054  0.0199  0.3154  0.0077
 4005TIP3    H133430   0.260   4.301  11.135  0.2090 -0.8546 -0.6538
 4005TIP3    H233431   0.306   4.334  10.994 -1.2676 -1.7474 -1.3601
 4006TIP3   OH233432   1.389   1.881  11.886 -0.1570  0.5290  0.1836
 4006TIP3    H133433   1.368   1.788  11.896 -0.8168  0.6347 -0.1965
 4006TIP3    H233434   1.308   1.926  11.907 -0.6521  0.8973 -2.3766
 4007TIP3   OH233435   1.924   1.274  11.782 -0.0675 -0.0026  0.6817
 4007TIP3    H133436   2.011   1.256  11.745 -0.3384 -0.4334  0.2395
 4007TIP3    H233437   1.883   1.332  11.717  0.3400  1.2098  1.4922
 4008TIP3   OH233438   5.827   2.482  10.789  0.0987  0.0026 -0.2918
 4008TIP3    H133439   5.733   2.479  10.771  0.0999  0.7039 -0.4198
 4008TIP3    H233440   5.834   2.515  10.879  0.2396  0.4980 -0.4817
 4009TIP3   OH233441   3.738   0.622   0.973  0.6613 -0.2422 -0.0984
 4009TIP3    H133442   3.775   0.672   1.045  0.1980 -0.3108  0.1942
 4009TIP3    H233443   3.660   0.581   1.010 -0.7324  1.3449 -1.1787
 4010TIP3   OH233444   5.172   4.259   2.419 -0.0715 -0.0693  0.0300
 4010TIP3    H133445   5.101   4.238   2.359  0.0936 -0.5398 -0.0051
 4010TIP3    H233446   5.171   4.188   2.484  1.9498 -1.4695 -1.3961
 4011TIP3   OH233447   7.106   3.585  13.083 -0.2404 -0.7964  0.1046
 4011TIP3    H133448   7.045   3.598  13.011 -0.6089  0.6542  0.6631
 4011TIP3    H233449   7.177   3.648  13.067  0.7359 -1.9396 -0.1316
 4012TIP3   OH233450   1.482   3.251  12.947  0.3384 -0.1144 -0.0067
 4012TIP3    H133451   1.526   3.277  13.028  1.3752 -0.0990 -0.5716
 4012TIP3    H233452   1.389   3.267  12.964  0.7505  1.9402  0.4164
 4013TIP3   OH233453   3.652   3.143   0.696 -0.5840  0.7788 -0.1370
 4013TIP3    H133454   3.655   3.230   0.655 -0.1220  1.0624  0.4845
 4013TIP3    H233455   3.635   3.161   0.788 -3.4080  0.0576 -0.4716
 4014TIP3   OH233456   0.318   5.345  10.032  0.0359 -0.0078  0.8568
 4014TIP3    H133457   0.355   5.432  10.017 -1.3845  0.6223  0.9122
 4014TIP3    H233458   0.325   5.301   9.947 -0.9954  0.8450  0.3233
 4015TIP3   OH233459   1.226   0.144  10.020 -0.2918 -0.0767 -0.1816
 4015TIP3    H133460   1.215   0.054  10.049 -0.5793 -0.3861 -1.2302
 4015TIP3    H233461   1.207   0.142   9.926 -0.1878  1.0514 -0.2390
 4016TIP3   OH233462   0.043   0.299  12.641 -0.4762 -0.5923 -0.2885
 4016TIP3    H133463   0.130   0.316  12.676  0.3211 -1.5561 -1.7855
 4016TIP3    H233464  -0.015   0.305  12.717  1.1865 -2.4042  1.1515
 4017TIP3   OH233465   2.239   5.566  13.105  0.0954 -0.1493 -0.1855
 4017TIP3    H133466   2.300   5.604  13.041  1.5219 -0.4140  0.9829
 4017TIP3    H233467   2.221   5.638  13.165 -1.7070  0.2648 -1.1934
 4018TIP3   OH233468   0.442   3.465  13.241 -0.5367  0.3668  0.1943
 4018TIP3    H133469   0.416   3.484  13.151 -1.6413 -0.1508  0.3985
 4018TIP3    H233470   0.532   3.499  13.247  0.0489 -0.8023 -1.4968
 4019TIP3   OH233471   0.547   5.962  11.557 -0.1312  0.2946 -0.4700
 4019TIP3    H133472   0.621   6.018  11.580 -0.0233 -0.4783  1.1180
 4019TIP3    H233473   0.473   6.001  11.603 -0.6130  0.7232 -1.5867
 4020TIP3   OH233474   1.244   2.954  10.907  0.3596  0.3549 -0.0325
 4020TIP3    H133475   1.212   3.022  10.848 -1.1331 -1.1974 -1.0347
 4020TIP3    H233476   1.257   3.000  10.991 -1.8099  1.6189 -0.3489
 4021TIP3   OH233477   1.560   3.095  11.875 -0.4186  0.0066  0.5207
 4021TIP3    H133478   1.645   3.054  11.856 -0.3950  0.0925  0.4380
 4021TIP3    H233479   1.496   3.026  11.856 -0.4420  0.3234 -0.6212
 4022TIP3   OH233480   1.259   5.279  13.589 -0.2600 -0.1283 -0.0555
 4022TIP3    H133481   1.307   5.223  13.529 -0.4086  0.7391 -1.0055
 4022TIP3    H233482   1.218   5.219  13.651  2.6686 -0.8464  1.2803
 4023TIP3   OH233483   3.728   6.557  12.002  0.3698 -0.1219 -0.1313
 4023TIP3    H133484   3.815   6.540  12.039  0.5915  1.5880  0.1850
 4023TIP3    H233485   3.744   6.576  11.910  0.1141 -1.6283 -0.5054
 4024TIP3   OH233486   6.397   2.888  14.745  0.0286 -0.0601 -0.3694
 4024TIP3    H133487   6.419   2.820  14.681  0.7190  0.0906 -0.2976
 4024TIP3    H233488   6.425   2.851  14.829 -0.1208  0.0793 -0.2584
 4025TIP3   OH233489   0.097   3.862   1.177 -0.1375  0.0229  0.1618
 4025TIP3    H133490   0.008   3.827   1.176 -0.0816 -0.1074 -1.8577
 4025TIP3    H233491   0.092   3.936   1.238 -1.7798  0.3919 -0.3812
 4026TIP3   OH233492   0.678   4.016  15.431 -0.4481 -0.5233 -0.0365
 4026TIP3    H133493   0.712   3.977  15.511 -2.7776 -1.8231  0.3613
 4026TIP3    H233494   0.670   3.943  15.370 -0.1954  0.1892 -0.9283
 4027TIP3   OH233495   0.157   3.052  13.273 -0.4456 -0.1017  0.2419
 4027TIP3    H133496   0.228   3.042  13.336 -1.5949  1.3462  1.8124
 4027TIP3    H233497   0.156   3.146  13.253 -0.2215 -0.5168 -1.8044
 4028TIP3   OH233498   3.060   0.501  14.271 -0.4458 -0.0963 -0.6200
 4028TIP3    H133499   2.968   0.506  14.247 -0.4547  0.5827 -0.4344
 4028TIP3    H233500   3.066   0.425  14.329 -1.1345  0.7045  0.5215
 4029TIP3   OH233501   6.802   5.454  14.018 -0.6695  0.4334  0.1028
 4029TIP3    H133502   6.823   5.373  13.972 -1.0923  0.4716 -0.1657
 4029TIP3    H233503   6.871   5.515  13.993 -1.5277  0.8117 -1.4291
 4030TIP3   OH233504   2.158   1.805  15.422  0.6696 -0.3694 -0.0444
 4030TIP3    H133505   2.119   1.831  15.338 -1.6842 -0.4643  0.9735
 4030TIP3    H233506   2.136   1.877  15.482 -0.0039 -1.5265  1.1299
 4031TIP3   OH233507   3.124   0.884  10.931 -0.3696 -0.2187 -0.2010
 4031TIP3    H133508   3.090   0.967  10.963  1.5246  1.1659 -1.6119
 4031TIP3    H233509   3.167   0.906  10.848  0.0799 -2.6174 -0.6538
 4032TIP3   OH233510   6.852   3.159  11.757 -0.0363  0.3257 -1.0367
 4032TIP3    H133511   6.868   3.137  11.665 -0.7127 -0.3919 -0.9830
 4032TIP3    H233512   6.843   3.075  11.801  1.6061  0.6250 -0.0521
 4033TIP3   OH233513   1.481   3.891   9.962  0.0580  0.9869 -0.2634
 4033TIP3    H133514   1.499   3.797   9.962 -1.4710  0.6873  0.1248
 4033TIP3    H233515   1.472   3.914   9.869 -0.8104  0.4960 -0.3074
 4034TIP3   OH233516   3.076   2.436  14.382  0.0047 -0.0166  0.0199
 4034TIP3    H133517   3.097   2.344  14.397 -0.2019 -0.0744 -0.0490
 4034TIP3    H233518   3.071   2.444  14.287 -0.0087  0.0585  0.0268
 4035TIP3   OH233519   3.836   0.275  10.768 -0.3304  0.0852  0.2464
 4035TIP3    H133520   3.884   0.293  10.848 -1.4893  0.2571  0.9182
 4035TIP3    H233521   3.840   0.179  10.758 -0.0327  0.0813  0.4180
 4036TIP3   OH233522   1.244   1.134  10.274  0.1143  0.5077 -0.3680
 4036TIP3    H133523   1.185   1.140  10.350 -1.5636  1.6984 -1.7230
 4036TIP3    H233524   1.210   1.199  10.213  1.3389 -0.5678 -2.2257
 4037TIP3   OH233525   3.067   2.884  12.552 -0.3093 -0.3597 -0.3618
 4037TIP3    H133526   3.066   2.924  12.640 -0.7859 -0.0583 -0.5038
 4037TIP3    H233527   3.119   2.805  12.563  2.3847  1.3172 -0.4992
 4038TIP3   OH233528   0.276   4.963  10.280  0.1506 -0.6815  0.2989
 4038TIP3    H133529   0.193   5.008  10.292 -1.0303 -2.4702 -0.8284
 4038TIP3    H233530   0.332   4.996  10.350 -1.7947 -0.1206  1.6262
 4039TIP3   OH233531   6.978   5.156  15.277 -0.2829 -0.8421 -0.0179
 4039TIP3    H133532   7.026   5.218  15.222  0.2623 -0.6407  0.6781
 4039TIP3    H233533   6.920   5.110  15.217 -0.2581 -0.0679 -0.6304
 4040TIP3   OH233534   6.062   3.210  15.302 -0.6776 -0.5585  0.2733
 4040TIP3    H133535   6.003   3.135  15.309 -1.2098 -0.0355  1.5718
 4040TIP3    H233536   6.093   3.224  15.391 -1.5736  1.5490  0.2721
 4041TIP3   OH233537   0.946   1.142  11.875  0.3482 -0.6390 -0.1029
 4041TIP3    H133538   0.978   1.196  11.947 -0.1841 -0.0418 -0.3126
 4041TIP3    H233539   0.870   1.189  11.841  1.3218 -0.3083 -1.8403
 4042TIP3   OH233540   1.488   1.806  10.484  0.1094 -0.1100 -0.3669
 4042TIP3    H133541   1.458   1.727  10.440  0.5719  0.2605 -1.3741
 4042TIP3    H233542   1.449   1.878  10.433  0.1589  0.3139  0.1894
 4043TIP3   OH233543   3.830   6.327   0.628  0.2964  0.8461 -0.2217
 4043TIP3    H133544   3.835   6.332   0.723 -0.4622 -0.7153 -0.0777
 4043TIP3    H233545   3.921   6.329   0.599  0.5193  1.7989  0.4900
 4044TIP3   OH233546   6.109   5.356  10.455 -0.0452  0.3932  0.3370
 4044TIP3    H133547   6.093   5.449  10.437 -0.9069 -0.0445 -1.2356
 4044TIP3    H233548   6.021   5.317  10.454  0.5571 -0.9364 -1.9076
 4045TIP3   OH233549   2.772   1.475  13.200  0.8643 -0.3495  0.2888
 4045TIP3    H133550   2.867   1.461  13.198  0.8584 -0.2876 -0.5631
 4045TIP3    H233551   2.763   1.565  13.233  1.1130 -0.2265  0.0247
 4046TIP3   OH233552   3.232   1.518  10.534 -0.3398  0.1710 -0.0840
 4046TIP3    H133553   3.321   1.507  10.500 -0.3319  1.0576 -0.3657
 4046TIP3    H233554   3.239   1.496  10.627  0.6809  2.5520  0.4350
 4047TIP3   OH233555   6.115   1.557  12.017  0.1826 -0.4136  0.4417
 4047TIP3    H133556   6.207   1.557  12.041  1.5884  0.0919 -4.3086
 4047TIP3    H233557   6.091   1.464  12.014  1.2865 -0.6801 -0.6639
 4048TIP3   OH233558   0.929   1.939  11.355 -0.2608  0.0252 -0.0738
 4048TIP3    H133559   0.881   2.018  11.328 -0.2924  0.3627  0.9774
 4048TIP3    H233560   0.975   1.912  11.275 -1.1216  0.4677 -0.7347
 4049TIP3   OH233561   2.220   2.106  11.608 -0.7014 -0.2547 -0.0915
 4049TIP3    H133562   2.131   2.139  11.623 -1.0342 -0.6696 -1.1061
 4049TIP3    H233563   2.213   2.011  11.619 -0.0962 -0.1725  1.1367
 4050TIP3   OH233564   0.646   0.251  11.667  0.1582  0.2718  0.1368
 4050TIP3    H133565   0.686   0.240  11.753 -0.0015  0.6262  0.2555
 4050TIP3    H233566   0.676   0.336  11.636  0.4199  0.0361 -0.2693
 4051TIP3   OH233567   5.493   0.381  10.897 -0.3934 -0.7058 -0.0453
 4051TIP3    H133568   5.542   0.300  10.910 -0.0858 -0.6506 -0.8162
 4051TIP3    H233569   5.434   0.363  10.824  0.3716  0.0663 -0.8666
 4052TIP3   OH233570   4.897   0.599  14.684 -0.0048  0.0188 -0.1553
 4052TIP3    H133571   4.975   0.604  14.739  0.3606 -0.4146 -0.6367
 4052TIP3    H233572   4.886   0.506  14.666 -1.0814 -0.0070  0.5521
 4053TIP3   OH233573   2.719   6.487  11.515 -0.5024  0.2952 -0.2555
 4053TIP3    H133574   2.721   6.583  11.511 -2.3102  0.3590 -0.0546
 4053TIP3    H233575   2.644   6.467  11.571 -1.1309 -1.2499 -1.6079
 4054TIP3   OH233576   1.717   2.423  14.501 -0.3801  0.3411 -0.1290
 4054TIP3    H133577   1.661   2.481  14.554 -0.1311 -1.0691  1.7129
 4054TIP3    H233578   1.800   2.421  14.548 -0.0383 -0.6465 -0.7700
 4055TIP3   OH233579   1.692   1.702  11.354 -0.1932  0.3382  0.3651
 4055TIP3    H133580   1.683   1.759  11.430 -1.1810  0.6110  0.0525
 4055TIP3    H233581   1.729   1.758  11.286  1.2260 -0.0506  0.8032
 4056TIP3   OH233582   6.948   4.546  13.731  0.1884  0.6194 -0.1201
 4056TIP3    H133583   6.959   4.574  13.822  0.0312 -1.4971  0.5902
 4056TIP3    H233584   6.859   4.509  13.728  0.3317  0.3327 -1.0282
 4057TIP3   OH233585   2.498   0.403  12.542  0.2665  0.2758  0.4502
 4057TIP3    H133586   2.588   0.423  12.516  0.7569 -1.3069  0.8631
 4057TIP3    H233587   2.470   0.479  12.592  1.4748  0.6770  0.5438
 4058TIP3   OH233588   1.562   3.940  12.599  0.1592 -0.2178  0.1223
 4058TIP3    H133589   1.567   3.915  12.691  0.0693 -0.3623  0.0897
 4058TIP3    H233590   1.583   4.033  12.597  0.5125 -0.2948  0.2486
 4059TIP3   OH233591   1.217   2.953  10.303  0.2592 -0.0414 -0.1204
 4059TIP3    H133592   1.133   2.964  10.348 -0.3273  0.0027 -1.2019
 4059TIP3    H233593   1.282   2.989  10.364 -0.4797 -0.2292  0.8003
 4060TIP3   OH233594   1.765   3.010  14.285  0.5696  0.2210  0.1547
 4060TIP3    H133595   1.696   3.009  14.351  1.3567  1.5765  1.0049
 4060TIP3    H233596   1.718   3.027  14.203 -0.2648 -0.2572  0.5237
 4061TIP3   OH233597   1.027   6.589  11.291 -0.2831 -0.0616  0.1045
 4061TIP3    H133598   1.022   6.641  11.371 -1.0927  1.3170 -0.8102
 4061TIP3    H233599   1.092   6.635  11.237  1.1302 -1.6412  0.4299
 4062TIP3   OH233600   5.407   1.942   0.422  0.0185  0.3140 -0.7492
 4062TIP3    H133601   5.482   1.969   0.369  1.3362 -1.1820  0.2737
 4062TIP3    H233602   5.407   2.001   0.497  0.3034  0.2085 -0.6637
 4063TIP3   OH233603   3.172   1.003  10.668 -0.0128 -0.0784 -0.0190
 4063TIP3    H133604   3.206   0.930  10.617 -0.0644 -0.6766  0.7817
 4063TIP3    H233605   3.249   1.038  10.714 -0.1100 -0.0734  0.1397
 4064TIP3   OH233606   1.741   3.732  12.718  0.2463  0.5781  0.1702
 4064TIP3    H133607   1.677   3.787  12.673 -0.1513 -0.2942 -0.3445
 4064TIP3    H233608   1.771   3.785  12.792 -2.3870  0.3367  1.4602
 4065TIP3   OH233609   6.420   3.296  12.716 -0.1775 -0.2606 -0.1393
 4065TIP3    H133610   6.439   3.205  12.739  1.4328 -0.0499 -0.6435
 4065TIP3    H233611   6.326   3.296  12.697  0.3682 -2.4217 -3.0473
 4066TIP3   OH233612   5.374   5.027  12.080 -0.6483 -0.9204  0.3603
 4066TIP3    H133613   5.313   4.965  12.040 -0.9613 -0.9264  0.8416
 4066TIP3    H233614   5.327   5.110  12.083  0.8192  0.0889 -2.9644
 4067TIP3   OH233615   2.201   5.627  10.019  0.4032 -0.1412  0.1831
 4067TIP3    H133616   2.275   5.680  10.050  0.6539  0.0985 -0.7983
 4067TIP3    H233617   2.229   5.596   9.933 -0.5298 -0.2859 -0.0674
 4068TIP3   OH233618   2.655   2.246   9.819 -0.4510  0.1336  0.2426
 4068TIP3    H133619   2.667   2.328   9.771  0.1214 -0.7958 -1.2450
 4068TIP3    H233620   2.739   2.201   9.812 -1.2885 -1.3402 -0.4432
 4069TIP3   OH233621   0.600   2.365  13.197  0.5281 -0.2514  0.0016
 4069TIP3    H133622   0.573   2.316  13.275 -1.9061  1.7330  0.4915
 4069TIP3    H233623   0.531   2.348  13.134 -0.4356  2.5369  0.2185
 4070TIP3   OH233624   5.676   1.824  11.720  0.3349  0.3307  0.0549
 4070TIP3    H133625   5.592   1.815  11.766  1.1146  3.0417  2.1018
 4070TIP3    H233626   5.737   1.771  11.772  0.4976  0.7032  0.2467
 4071TIP3   OH233627   2.244   4.240  13.137  0.4168  0.5638  0.3573
 4071TIP3    H133628   2.193   4.219  13.214  1.6432  1.8936  1.5684
 4071TIP3    H233629   2.180   4.271  13.073 -0.5607 -0.1683  0.9651
 4072TIP3   OH233630   0.760   5.371  11.034 -0.1325 -0.2164  0.2209
 4072TIP3    H133631   0.708   5.397  10.958 -0.0148 -0.2446  0.1294
 4072TIP3    H233632   0.787   5.281  11.015  1.1642  0.2945 -0.4075
 4073TIP3   OH233633   2.579   3.314  12.401 -0.0724 -0.6200  0.8262
 4073TIP3    H133634   2.551   3.316  12.309 -1.7357  3.8894  1.3195
 4073TIP3    H233635   2.675   3.320  12.396 -0.0389 -2.0412 -0.6354
 4074TIP3   OH233636   6.766   2.210  12.062  0.3977 -0.5416  0.2735
 4074TIP3    H133637   6.784   2.134  12.117  0.7011  0.8642  2.1985
 4074TIP3    H233638   6.687   2.249  12.099  1.1160  0.9473  0.3037
 4075TIP3   OH233639   1.217   3.335  13.002 -0.2618 -0.0457 -0.2202
 4075TIP3    H133640   1.185   3.349  13.091 -1.6070  2.2041 -1.0228
 4075TIP3    H233641   1.161   3.266  12.967 -1.4189  0.8606 -0.1744
 4076TIP3   OH233642   2.741   4.202  10.455  0.3207  0.3834 -0.0656
 4076TIP3    H133643   2.679   4.256  10.406  0.7173  0.4412 -0.5093
 4076TIP3    H233644   2.687   4.131  10.490 -0.4527  1.8118  1.7016
 4077TIP3   OH233645   4.507   2.431  13.117  0.2181 -0.0314 -0.0133
 4077TIP3    H133646   4.593   2.391  13.129 -0.7737 -1.7512  1.5404
 4077TIP3    H233647   4.475   2.444  13.207 -1.1297  0.6303 -0.5893
 4078TIP3   OH233648   1.763   2.342  12.590 -0.1744 -0.1916  0.0515
 4078TIP3    H133649   1.684   2.372  12.636  0.8567 -0.7004  2.1706
 4078TIP3    H233650   1.747   2.249  12.575 -0.6860  0.0577 -1.0302
 4079TIP3   OH233651   1.666   0.007   0.010 -0.4081  0.5936  0.4146
 4079TIP3    H133652   1.589   0.061   0.028 -0.4369  0.5481  0.4274
 4079TIP3    H233653   1.633  -0.066  -0.042 -0.1372  1.3599 -0.8663
 4080TIP3   OH233654   5.731   2.143  13.601 -0.1433 -0.5960  0.2626
 4080TIP3    H133655   5.710   2.158  13.509 -0.8844  1.1511  0.6997
 4080TIP3    H233656   5.820   2.178  13.611 -0.2524 -0.3444  0.3341
 4081TIP3   OH233657   0.281   1.244  10.089 -0.0961 -0.6038 -0.2749
 4081TIP3    H133658   0.329   1.326  10.104  0.5187 -0.6781 -1.8036
 4081TIP3    H233659   0.338   1.176  10.125 -0.0646 -0.4836 -0.0955
 4082TIP3   OH233660   1.833   3.835  11.290  0.4402  0.7490  0.1230
 4082TIP3    H133661   1.776   3.787  11.231  0.3135  0.7040  0.2812
 4082TIP3    H233662   1.774   3.872  11.356  0.8073 -1.0478  1.4957
 4083TIP3   OH233663   6.819   1.311  12.707  0.3146 -0.2250 -0.4670
 4083TIP3    H133664   6.873   1.366  12.764  0.0090  0.5770 -0.9395
 4083TIP3    H233665   6.867   1.306  12.624  0.1466 -0.3332 -0.5607
 4084TIP3   OH233666   5.908   7.156  14.128 -0.0697  0.2487  0.0188
 4084TIP3    H133667   5.920   7.221  14.059  0.3041  0.6866  0.4941
 4084TIP3    H233668   5.815   7.165  14.152 -0.1837  0.1424 -0.3780
 4085TIP3   OH233669   6.856   1.651  12.124 -0.3639  0.3360 -0.2016
 4085TIP3    H133670   6.862   1.557  12.139  1.0571  0.4592  0.0968
 4085TIP3    H233671   6.763   1.667  12.108 -1.2615 -0.5831  3.4952
 4086TIP3   OH233672   0.959   3.747  11.988 -0.3688 -0.6870  0.1402
 4086TIP3    H133673   0.917   3.706  12.064  0.2256 -1.8147 -0.1263
 4086TIP3    H233674   1.038   3.788  12.024 -1.3555  0.8977  0.5359
 4087TIP3   OH233675   2.198   5.950  12.530  0.2564  0.5427  0.1962
 4087TIP3    H133676   2.134   5.924  12.595  0.3927 -0.5799 -0.1155
 4087TIP3    H233677   2.150   6.006  12.469 -0.9546 -1.9134 -1.1776
 4088TIP3   OH233678   6.619   0.956  12.594  0.0255 -0.1493 -0.0308
 4088TIP3    H133679   6.655   0.956  12.505  0.0390  2.5983 -0.0706
 4088TIP3    H233680   6.585   0.867  12.606  1.5710 -1.0826 -2.1364
 4089TIP3   OH233681   4.457   2.679  14.045 -0.5500  0.4676 -0.0946
 4089TIP3    H133682   4.480   2.608  13.985 -0.4521  0.2677  0.1785
 4089TIP3    H233683   4.502   2.656  14.127 -1.1704  0.4267  0.2347
 4090TIP3   OH233684   0.667   2.003  12.580 -0.5399  1.0077 -0.0799
 4090TIP3    H133685   0.633   1.917  12.604 -1.5450  0.8087 -2.0619
 4090TIP3    H233686   0.762   1.993  12.578 -0.7222 -0.4939 -1.8385
 4091TIP3   OH233687   4.023   3.322  11.873  0.0518  0.0871  0.5893
 4091TIP3    H133688   3.953   3.309  11.809 -1.2611  2.4580  1.5047
 4091TIP3    H233689   4.018   3.246  11.930 -1.0724 -0.2766  0.0199
 4092TIP3   OH233690   6.639   3.466  10.131 -0.3183  0.0152 -0.5705
 4092TIP3    H133691   6.552   3.472  10.090  0.6952 -0.2601 -2.8187
 4092TIP3    H233692   6.687   3.541  10.095  0.5479 -0.1280  0.2816
 4093TIP3   OH233693   3.047   2.815  13.234 -0.1431 -0.3220 -0.3607
 4093TIP3    H133694   3.050   2.776  13.147  0.2397 -1.0579 -0.0266
 4093TIP3    H233695   2.954   2.818  13.256 -0.3957  1.6144 -1.5548
 4094TIP3   OH233696   1.109   2.691  14.918  0.7265 -0.3139  0.3218
 4094TIP3    H133697   1.174   2.685  14.848 -2.3526  0.2329 -2.7017
 4094TIP3    H233698   1.117   2.781  14.950  1.3002 -0.1839 -0.1628
 4095TIP3   OH233699   2.570   3.277  10.148 -0.0636  0.0222  0.1293
 4095TIP3    H133700   2.558   3.242  10.059 -0.5630  2.6980 -0.8940
 4095TIP3    H233701   2.660   3.253  10.171 -0.1679 -1.3384 -0.7761
 4096TIP3   OH233702   1.107   4.221  10.610  0.0197 -0.5961 -0.1582
 4096TIP3    H133703   1.128   4.179  10.694  1.3790 -1.1572 -0.7692
 4096TIP3    H233704   1.070   4.306  10.635  3.6870  0.7502  1.0057
 4097TIP3   OH233705   4.221   2.345  10.379  0.4038 -0.1822 -0.4806
 4097TIP3    H133706   4.220   2.308  10.467  4.0793  1.0581  0.1851
 4097TIP3    H233707   4.237   2.271  10.321  2.3982 -0.4485  0.3552
 4098TIP3   OH233708   0.856   2.659  13.072 -0.0577  0.2079  0.0535
 4098TIP3    H133709   0.843   2.603  12.995 -0.0397 -0.1075  0.2778
 4098TIP3    H233710   0.767   2.679  13.102 -0.0750  0.8317 -0.4094
 4099TIP3   OH233711   2.236   5.729  13.334  0.5073 -0.3757  0.0513
 4099TIP3    H133712   2.168   5.761  13.392 -0.3651 -0.4040 -0.9319
 4099TIP3    H233713   2.308   5.791  13.345 -0.8811  1.5497 -1.2770
 4100TIP3   OH233714   6.115   0.205  10.337  0.2507 -0.0686 -0.6574
 4100TIP3    H133715   6.074   0.256  10.406  0.4264 -0.9059  0.0806
 4100TIP3    H233716   6.197   0.174  10.376  0.4329 -0.4117 -1.3020
 4101TIP3   OH233717   3.277   2.686  13.364  0.7731  0.0054 -0.1938
 4101TIP3    H133718   3.203   2.735  13.327  1.6125  1.2781 -0.2054
 4101TIP3    H233719   3.237   2.606  13.399 -0.6545  0.8142  0.0714
 4102TIP3   OH233720   5.757   2.289  11.295 -0.6041  0.5357  0.1195
 4102TIP3    H133721   5.740   2.230  11.222 -0.1936  1.2931 -0.5908
 4102TIP3    H233722   5.716   2.246  11.371  0.0621 -0.8648 -0.3031
 4103TIP3   OH233723   2.306   5.575  12.458 -0.7357  0.1527 -0.0848
 4103TIP3    H133724   2.315   5.665  12.425 -0.0749 -0.0155 -0.3734
 4103TIP3    H233725   2.290   5.586  12.552  1.4268  0.5306  0.2752
 4104TIP3   OH233726   0.973   5.647  13.307  0.0358  0.2945  0.5944
 4104TIP3    H133727   0.990   5.719  13.368  0.9947 -0.2100  0.9292
 4104TIP3    H233728   1.030   5.576  13.337  0.8603  0.1935 -1.1631
 4105TIP3   OH233729   0.165   2.505  14.037 -0.1830 -0.4427 -0.0361
 4105TIP3    H133730   0.165   2.588  14.084 -0.8753 -1.2610  1.4375
 4105TIP3    H233731   0.254   2.497  14.002  0.6803 -0.3450  2.0852
 4106TIP3   OH233732   3.356   0.529  13.839 -0.1939  0.5265 -0.4391
 4106TIP3    H133733   3.447   0.519  13.868  0.3123 -0.5012 -2.2617
 4106TIP3    H233734   3.304   0.511  13.917  1.1452 -1.0306  0.1355
 4107TIP3   OH233735   3.896   3.407  10.005 -0.5253 -0.7178  0.8441
 4107TIP3    H133736   3.865   3.353   9.932 -1.7011 -0.8896  1.4604
 4107TIP3    H233737   3.819   3.418  10.061  0.4785 -0.9681  2.2961
 4108TIP3   OH233738   0.605   2.635  13.191 -0.1698 -0.3191 -0.3971
 4108TIP3    H133739   0.588   2.541  13.201 -1.1413  0.0265  1.4492
 4108TIP3    H233740   0.527   2.677  13.226  0.7071  1.1993 -0.2201
 4109TIP3   OH233741   2.161   6.441  10.232  0.4218 -0.7632  0.2513
 4109TIP3    H133742   2.143   6.384  10.157  1.0023  0.4071 -0.7859
 4109TIP3    H233743   2.089   6.504  10.232 -0.2756 -1.5204  1.4629
 4110TIP3   OH233744   6.718   4.153   0.107  0.8208 -0.3573 -0.1698
 4110TIP3    H133745   6.727   4.212   0.032 -1.0789  1.0318  0.6626
 4110TIP3    H233746   6.779   4.188   0.172  2.8582 -1.8687 -1.2008
 4111TIP3   OH233747   3.735   1.704  13.359  0.3150 -0.1167 -0.5313
 4111TIP3    H133748   3.699   1.790  13.339 -0.1954 -0.4260 -0.9371
 4111TIP3    H233749   3.725   1.695  13.454  2.3208  1.1573 -0.1640
 4112TIP3   OH233750   5.816   2.242  13.014 -0.0772  0.2885  0.1674
 4112TIP3    H133751   5.878   2.169  13.019  0.0933  0.5989  3.8025
 4112TIP3    H233752   5.866   2.314  12.977  0.4141 -0.7312 -1.1968
 4113TIP3   OH233753   0.266   5.629  13.288 -0.1127 -0.0140  0.3226
 4113TIP3    H133754   0.206   5.703  13.286 -0.6931 -0.4935 -0.1728
 4113TIP3    H233755   0.336   5.653  13.228 -0.2030  0.2058  0.3049
 4114TIP3   OH233756   6.848   1.812  12.954  0.7305  0.3903 -0.2742
 4114TIP3    H133757   6.878   1.850  12.871  1.4435 -0.2593 -0.3156
 4114TIP3    H233758   6.928   1.785  12.999  0.3533  0.8019  0.6640
 4115TIP3   OH233759   6.883   6.139  14.400  0.3846 -0.4687  0.1273
 4115TIP3    H133760   6.808   6.088  14.432  1.7215 -1.4225  1.8355
 4115TIP3    H233761   6.959   6.083  14.416  1.6710  1.2244  0.1312
 4116TIP3   OH233762   1.900   4.130  12.099 -0.5069 -0.4357  0.1219
 4116TIP3    H133763   1.988   4.114  12.067 -1.0917 -0.8509 -1.3065
 4116TIP3    H233764   1.873   4.047  12.138 -0.9055 -0.8369 -0.9903
 4117TIP3   OH233765   0.494   3.324  12.454 -0.0622  0.5200 -0.2382
 4117TIP3    H133766   0.420   3.268  12.428  0.7206 -0.8996  0.5033
 4117TIP3    H233767   0.532   3.354  12.371  0.0206 -0.7623 -0.6837
 4118TIP3   OH233768   6.332   6.212  11.810 -0.3048  1.0029 -0.4463
 4118TIP3    H133769   6.304   6.150  11.877  1.5841  0.5020 -0.0982
 4118TIP3    H233770   6.250   6.247  11.774 -1.3572  1.2758  2.0815
 4119TIP3   OH233771   1.174   2.042  11.952  0.3079 -0.0246  0.3409
 4119TIP3    H133772   1.183   2.137  11.963 -1.2189  0.4454 -2.0720
 4119TIP3    H233773   1.112   2.016  12.021 -0.1003  0.9138  0.3398
 4120TIP3   OH233774   1.790   5.799  11.389 -0.3759  0.0525 -0.2444
 4120TIP3    H133775   1.878   5.761  11.385  0.0759  0.9661  0.6367
 4120TIP3    H233776   1.733   5.733  11.350  0.5826 -0.9147 -0.0246
 4121TIP3   OH233777   2.192   6.105  15.358  0.2071  0.0329 -0.5561
 4121TIP3    H133778   2.167   6.061  15.439 -1.1164  0.7686 -0.5504
 4121TIP3    H233779   2.217   6.034  15.298 -0.8254 -0.6502 -0.1870
 4122TIP3   OH233780   1.593   0.355  13.406 -0.4669  0.1618 -0.0093
 4122TIP3    H133781   1.561   0.269  13.380  0.9534 -0.4062  0.0768
 4122TIP3    H233782   1.517   0.413  13.397 -1.6550 -1.2405  0.7123
 4123TIP3   OH233783   6.273   3.658  13.307 -0.5042 -0.4473 -0.2776
 4123TIP3    H133784   6.225   3.588  13.263  1.5826 -1.1936 -1.4494
 4123TIP3    H233785   6.311   3.615  13.385 -0.7951 -0.1536  0.0253
 4124TIP3   OH233786   0.965   3.621  11.679  0.2575 -0.0690  0.3411
 4124TIP3    H133787   0.976   3.604  11.773  1.0478 -0.2717  0.2183
 4124TIP3    H233788   0.870   3.621  11.666  0.1349  0.1827  1.1793
 4125TIP3   OH233789   5.251   1.766   0.051  0.0152  0.4975 -0.2613
 4125TIP3    H133790   5.244   1.735   0.142  0.7552  0.2267 -0.2951
 4125TIP3    H233791   5.344   1.788   0.040  0.0419 -0.0328 -1.1346
 4126TIP3   OH233792   1.865   1.642   2.785  0.0471  0.1592 -0.3836
 4126TIP3    H133793   1.815   1.720   2.760  0.5798  0.8026  0.5264
 4126TIP3    H233794   1.948   1.652   2.739  0.9736  1.2714  1.4785
 4127TIP3   OH233795   3.910   2.084  13.909  0.2260 -0.0992  0.1420
 4127TIP3    H133796   3.816   2.072  13.897  0.2537 -0.9888  0.7986
 4127TIP3    H233797   3.920   2.178  13.925 -0.8592 -0.3895  2.7523
 4128TIP3   OH233798   3.175   3.818  11.556  0.0232  0.5788  0.7226
 4128TIP3    H133799   3.182   3.902  11.602  0.7474  2.4387 -2.6531
 4128TIP3    H233800   3.081   3.800  11.555  0.0351  0.1436  3.4730
 4129TIP3   OH233801   5.018   3.183  10.013 -0.6696  0.5934 -0.0456
 4129TIP3    H133802   4.958   3.201  10.085 -0.6994  2.4312 -0.4805
 4129TIP3    H233803   4.960   3.162   9.939 -0.6897 -0.0247  0.1496
 4130TIP3   OH233804   1.878   6.044  11.219  0.4185  0.2355  0.0770
 4130TIP3    H133805   1.816   6.016  11.152  1.9749  0.1840 -1.3857
 4130TIP3    H233806   1.871   5.978  11.288 -0.5462 -0.2221 -0.4576
 4131TIP3   OH233807   3.216   3.113  14.393 -0.6805  0.1763 -0.0839
 4131TIP3    H133808   3.158   3.063  14.451 -1.0962 -0.8714 -1.3963
 4131TIP3    H233809   3.158   3.171  14.345 -0.3343  1.0200  0.4827
 4132TIP3   OH233810   5.554   1.508  12.765  0.4592 -0.9078  0.4785
 4132TIP3    H133811   5.644   1.532  12.788  1.4007 -2.9648 -0.8328
 4132TIP3    H233812   5.545   1.535  12.673 -0.7830  0.6617  1.0562
 4133TIP3   OH233813   1.399   2.629  11.979  0.4125  0.3238 -0.3137
 4133TIP3    H133814   1.356   2.564  11.923 -1.1708  0.7471  0.3811
 4133TIP3    H233815   1.477   2.585  12.012 -1.7521 -2.0089  1.8564
 4134TIP3   OH233816   1.656   7.151  12.347 -0.3376  0.2820  0.3961
 4134TIP3    H133817   1.658   7.126  12.255  0.4433 -1.2585  0.8178
 4134TIP3    H233818   1.746   7.176  12.368 -0.3886  0.0340  0.9126
 4135TIP3   OH233819   1.152   3.490  11.933 -0.1593 -0.2406  0.1020
 4135TIP3    H133820   1.190   3.556  11.992 -0.3371 -0.1741  0.1413
 4135TIP3    H233821   1.228   3.440  11.902 -0.0263 -0.0380  0.0963
 4136TIP3   OH233822   4.674   2.785  12.895 -0.1831  0.3848 -0.5455
 4136TIP3    H133823   4.611   2.756  12.962  0.6512  1.3689  0.6910
 4136TIP3    H233824   4.753   2.734  12.913 -0.4329 -0.4391 -1.7430
 4137TIP3   OH233825   2.890   4.880  14.581 -0.1544  0.0743  1.0497
 4137TIP3    H133826   2.901   4.975  14.591 -1.6350  0.2528  0.9869
 4137TIP3    H233827   2.923   4.862  14.493  0.2436  0.5066  1.1037
 4138TIP3   OH233828   1.706   1.697  10.018 -0.0470 -0.2627 -0.0671
 4138TIP3    H133829   1.641   1.629  10.035 -1.2440  0.6854 -0.6972
 4138TIP3    H233830   1.698   1.714   9.924  1.5368 -0.5372 -0.2713
 4139TIP3   OH233831   1.659   0.129  12.816  0.7974  0.3354 -0.1454
 4139TIP3    H133832   1.663   0.209  12.765 -0.0775  0.1481 -0.5235
 4139TIP3    H233833   1.641   0.060  12.752  0.4712 -0.0070  0.3090
 4140TIP3   OH233834   2.034   4.471  12.293 -0.2168  0.2540 -0.0857
 4140TIP3    H133835   2.053   4.562  12.316  1.4373 -0.2300  0.5751
 4140TIP3    H233836   2.047   4.423  12.375  0.8762 -0.8335 -0.8785
 4141TIP3   OH233837   1.314   1.553  13.086 -0.1919  0.1136  0.1674
 4141TIP3    H133838   1.259   1.582  13.014  0.6401 -1.4890 -1.1421
 4141TIP3    H233839   1.268   1.477  13.122  0.1273  0.0377  0.4160
 4142TIP3   OH233840   0.126   7.159  11.652 -0.2731  0.0884  0.2788
 4142TIP3    H133841   0.176   7.124  11.725  0.4181 -2.1923 -1.2324
 4142TIP3    H233842   0.193   7.191  11.591 -0.6718 -1.3498 -0.9499
 4143TIP3   OH233843   2.906   6.699  13.987 -0.1669 -0.1994  0.0774
 4143TIP3    H133844   2.843   6.634  14.018  1.7001 -1.4791  1.2959
 4143TIP3    H233845   2.983   6.648  13.961  0.5200  1.3510 -1.0481
 4144TIP3   OH233846   6.401   2.359  10.770  0.3166  0.0466  0.2849
 4144TIP3    H133847   6.428   2.437  10.820  0.6999 -0.1834  0.4410
 4144TIP3    H233848   6.320   2.385  10.727  1.6630  1.3259 -1.5776
 4145TIP3   OH233849   1.432   1.258  14.748 -0.5291 -0.5998 -0.4091
 4145TIP3    H133850   1.376   1.333  14.730 -1.8333 -1.3409  0.4866
 4145TIP3    H233851   1.482   1.245  14.667  0.1238  1.5616 -0.3862
 4146TIP3   OH233852   4.183   1.189  13.483  0.7702  0.0528 -1.1155
 4146TIP3    H133853   4.217   1.198  13.395 -2.3207 -2.3289 -2.6745
 4146TIP3    H233854   4.092   1.160  13.471  0.5831 -1.3836  2.8041
 4147TIP3   OH233855   4.468   5.851  10.529  0.2714  0.2819  0.3014
 4147TIP3    H133856   4.479   5.775  10.472 -0.7235 -0.6368  1.3385
 4147TIP3    H233857   4.502   5.924  10.477 -0.3627 -0.5920 -1.3834
 4148TIP3   OH233858   3.908   2.956  11.716  0.5252 -0.2629 -0.3353
 4148TIP3    H133859   3.992   2.929  11.753  0.9559  0.4980 -0.7303
 4148TIP3    H233860   3.909   3.052  11.724  0.8504 -0.0310 -2.7485
 4149TIP3   OH233861   3.807   2.190  13.492 -0.2331 -0.5863  0.0745
 4149TIP3    H133862   3.862   2.133  13.546  2.0083  0.9758 -0.4996
 4149TIP3    H233863   3.824   2.160  13.402  0.1070  0.2576 -0.1414
 4150TIP3   OH233864   3.897   0.842  10.129 -0.3239  0.0904  0.2222
 4150TIP3    H133865   3.947   0.876  10.055 -2.0386  1.1642 -0.4688
 4150TIP3    H233866   3.846   0.917  10.160 -1.2706 -0.9012  1.1004
 4151TIP3   OH233867   4.124   1.460  12.427 -0.4247 -0.4775  0.3867
 4151TIP3    H133868   4.066   1.414  12.366 -0.1629 -0.9311  0.4773
 4151TIP3    H233869   4.124   1.406  12.506  2.0249 -1.8015 -0.4581
 4152TIP3   OH233870   4.198   3.694   1.212 -0.5882  0.5451  0.1295
 4152TIP3    H133871   4.241   3.749   1.147  0.3889 -0.1454  0.1881
 4152TIP3    H233872   4.187   3.609   1.169 -1.3241  0.5323  0.3324
 4153TIP3   OH233873   6.761   2.875  10.471  0.3013  0.2913 -0.1478
 4153TIP3    H133874   6.726   2.791  10.502  0.0622 -0.2153 -1.7335
 4153TIP3    H233875   6.840   2.850  10.423  0.7880  1.0823  0.2398
 4154TIP3   OH233876   1.330   1.745  10.057  0.3118  0.6650 -0.4283
 4154TIP3    H133877   1.357   1.831  10.024  1.2479  0.3935 -0.3912
 4154TIP3    H233878   1.323   1.691   9.978  0.1355  0.6657 -0.4128
 4155TIP3   OH233879   3.286   7.052   0.951  0.2739  0.6430  0.5660
 4155TIP3    H133880   3.377   7.064   0.924  0.0099 -0.3765 -0.8233
 4155TIP3    H233881   3.289   6.984   1.018  0.2869 -0.9908 -1.0876
 4156TIP3   OH233882   4.894   0.424  14.902  0.1418 -0.2772  0.8917
 4156TIP3    H133883   4.905   0.360  14.973  1.5597  0.7380  1.6133
 4156TIP3    H233884   4.984   0.449  14.879 -0.4069  1.7774  0.9366
 4157TIP3   OH233885   2.676   5.644  13.805  0.4655  0.0959 -0.3501
 4157TIP3    H133886   2.641   5.616  13.889  0.5525  1.2771  0.0975
 4157TIP3    H233887   2.718   5.728  13.824  1.1856 -0.0136 -1.4143
 4158TIP3   OH233888   0.518   1.025  10.161  0.0835 -0.0240 -0.1198
 4158TIP3    H133889   0.448   0.977  10.205  0.7463 -0.8209  0.0989
 4158TIP3    H233890   0.590   1.024  10.224  1.0020 -1.0669 -1.1567
 4159TIP3   OH233891   1.037   5.030  13.408 -0.4213 -0.3767  0.2488
 4159TIP3    H133892   1.098   4.956  13.401 -2.2983 -1.9797  0.3140
 4159TIP3    H233893   1.090   5.102  13.443  1.7265 -1.3387 -0.9406
 4160TIP3   OH233894   6.844   2.773  14.544  0.6945 -0.4638 -0.3811
 4160TIP3    H133895   6.885   2.827  14.611 -1.8665 -1.2573  1.9308
 4160TIP3    H233896   6.770   2.825  14.512 -0.2365 -1.4936  0.0291
 4161TIP3   OH233897   4.108   3.079  10.100  0.1479 -0.4340 -0.1018
 4161TIP3    H133898   4.199   3.100  10.075  0.0154  2.0862  1.3085
 4161TIP3    H233899   4.059   3.086  10.018  0.9695 -0.2192 -0.5878
 4162TIP3   OH233900   3.251   1.604  11.671 -0.5188  0.5127 -0.2837
 4162TIP3    H133901   3.203   1.684  11.648 -1.0107 -0.2815 -2.0836
 4162TIP3    H233902   3.295   1.578  11.590 -1.5222 -1.8338 -0.1187
 4163TIP3   OH233903   6.014   3.301  13.562 -0.5227 -0.1886  0.3878
 4163TIP3    H133904   5.950   3.231  13.552  0.7097 -1.2590 -0.1907
 4163TIP3    H233905   6.078   3.285  13.493  1.3676 -0.2577  2.1162
 4164TIP3   OH233906   0.164   2.543  12.944  0.6392 -0.0194 -0.0886
 4164TIP3    H133907   0.196   2.458  12.974  1.5318  0.2319 -0.2944
 4164TIP3    H233908   0.070   2.531  12.932  0.8093 -1.0798 -0.4349
 4165TIP3   OH233909   0.353   4.299  13.544  0.0429 -0.1842  0.4767
 4165TIP3    H133910   0.375   4.283  13.452 -1.3032  1.7313 -0.2146
 4165TIP3    H233911   0.351   4.212  13.584  0.0641 -1.0903 -1.4582
 4166TIP3   OH233912   5.505   2.857   9.959  0.1898 -0.2368  0.1495
 4166TIP3    H133913   5.560   2.835  10.034  0.0284  4.0228  1.6610
 4166TIP3    H233914   5.561   2.842   9.883  1.3199 -1.8393  1.2615
 4167TIP3   OH233915   1.398   4.458  11.414 -0.3073 -0.4387  0.3461
 4167TIP3    H133916   1.346   4.385  11.447 -0.0509 -0.3765  0.8909
 4167TIP3    H233917   1.479   4.456  11.466 -0.6076  0.6841  0.8845
 4168TIP3   OH233918   3.178   4.303  14.768 -0.4205  0.3964  0.1792
 4168TIP3    H133919   3.177   4.257  14.684 -1.0411  0.8310 -0.0579
 4168TIP3    H233920   3.169   4.233  14.833 -2.1512  0.2319 -0.2107
 4169TIP3   OH233921   1.380   4.919  10.904 -0.8709  0.4593 -0.2848
 4169TIP3    H133922   1.452   4.928  10.966 -0.0014  2.5257 -1.5522
 4169TIP3    H233923   1.361   5.008  10.876 -1.4383 -0.4011 -2.7747
 4170TIP3   OH233924   0.287   6.697  10.668 -0.7561 -0.3202 -0.1486
 4170TIP3    H133925   0.374   6.672  10.700 -0.5937  0.1338 -0.2316
 4170TIP3    H233926   0.289   6.677  10.575 -0.1822  1.2010 -0.4721
 4171TIP3   OH233927   4.766   5.569  10.154 -0.8932 -0.3923  0.5780
 4171TIP3    H133928   4.799   5.489  10.113  1.6877  0.9385 -0.1077
 4171TIP3    H233929   4.845   5.623  10.166 -2.7286  2.5838 -0.2165
 4172TIP3   OH233930   4.193   6.124  14.697  0.0213  0.1195 -0.1865
 4172TIP3    H133931   4.196   6.118  14.601 -1.0602 -1.2873 -0.1422
 4172TIP3    H233932   4.273   6.170  14.720  0.4241  0.2495 -1.7547
 4173TIP3   OH233933   3.548   3.722  13.768  0.5103  0.1805  0.8727
 4173TIP3    H133934   3.579   3.795  13.821 -0.1474  0.5730  0.7209
 4173TIP3    H233935   3.493   3.671  13.827  0.6605  0.0138  0.8692
 4174TIP3   OH233936   3.086   3.207  12.012 -1.0995  0.7862  0.4249
 4174TIP3    H133937   3.055   3.184  11.925  0.1482  2.2861 -0.4400
 4174TIP3    H233938   3.048   3.140  12.070  2.2662 -3.3652 -1.9179
 4175TIP3   OH233939   3.189   5.314  10.646  0.0564 -0.0333  0.5115
 4175TIP3    H133940   3.273   5.358  10.632  0.4883 -0.6734  1.0540
 4175TIP3    H233941   3.200   5.227  10.606 -0.7608  0.2966 -0.4797
 4176TIP3   OH233942   0.756   4.102  10.842 -0.1552  0.0492 -0.0210
 4176TIP3    H133943   0.761   4.161  10.767  0.8986  0.4128  0.3167
 4176TIP3    H233944   0.766   4.015  10.804  0.9844  0.2698 -0.2502
 4177TIP3   OH233945   5.170   2.317  13.383  0.3531 -0.4456  0.1265
 4177TIP3    H133946   5.228   2.305  13.458  0.3452  1.2917  0.4413
 4177TIP3    H233947   5.227   2.353  13.315  0.0159 -0.4573 -0.1593
 4178TIP3   OH233948   5.314   2.264  12.291 -0.5740 -0.3500 -0.0705
 4178TIP3    H133949   5.260   2.334  12.254  1.1688  0.9733 -0.2219
 4178TIP3    H233950   5.330   2.205  12.218  0.2299  0.5781 -0.6626
 4179TIP3   OH233951   7.033   2.912  15.465 -0.0809  0.3115  0.5462
 4179TIP3    H133952   7.127   2.905  15.445 -0.0750  2.0314 -0.0858
 4179TIP3    H233953   6.990   2.879  15.386 -0.0126  1.9490 -0.1944
 4180TIP3   OH233954   2.571   5.305  12.783 -0.1401  0.6305  0.0498
 4180TIP3    H133955   2.538   5.392  12.805 -2.2850 -1.3086  5.2492
 4180TIP3    H233956   2.498   5.262  12.740  0.8560  1.2209 -2.3381
 4181TIP3   OH233957   0.869   6.333  11.003 -0.3149  0.1586 -0.2377
 4181TIP3    H133958   0.781   6.298  11.011 -0.2241 -0.6108 -2.4265
 4181TIP3    H233959   0.922   6.280  11.063 -1.2462  0.3731  0.7924
 4182TIP3   OH233960   3.558   5.791  11.222  0.2565 -0.2447  0.3415
 4182TIP3    H133961   3.626   5.852  11.251 -0.0424  0.7524 -0.9880
 4182TIP3    H233962   3.600   5.740  11.153 -0.0218 -0.3248  0.2296
 4183TIP3   OH233963   3.757   4.950  12.542 -0.2689  0.1010  0.1276
 4183TIP3    H133964   3.828   5.000  12.583 -0.3865  0.1372  0.2887
 4183TIP3    H233965   3.735   4.882  12.606  1.3745 -1.5292 -0.9980
 4184TIP3   OH233966   1.346   0.454   9.946  0.2712 -0.0513  0.0982
 4184TIP3    H133967   1.352   0.368   9.905  1.6632 -0.8181  1.8499
 4184TIP3    H233968   1.335   0.515   9.872  1.4801 -1.5111 -1.3392
 4185TIP3   OH233969   0.486   2.573  12.159  0.0801 -0.1178  0.8194
 4185TIP3    H133970   0.533   2.623  12.226 -0.8773  0.4251  1.0865
 4185TIP3    H233971   0.493   2.626  12.080 -0.5288  0.2013  0.9839
 4186TIP3   OH233972   0.381   5.168  13.259 -0.2548 -0.5270  0.3168
 4186TIP3    H133973   0.437   5.194  13.186  2.6491 -0.6158  2.3966
 4186TIP3    H233974   0.370   5.073  13.248 -1.4844 -0.2469 -1.0489
 4187TIP3   OH233975   2.831   5.422  13.268 -0.0198  0.2923 -0.1176
 4187TIP3    H133976   2.915   5.378  13.280  0.2805  1.2135  1.1716
 4187TIP3    H233977   2.839   5.466  13.183 -0.4598 -2.3915 -1.6185
 4188TIP3   OH233978   6.038   0.672  11.374 -0.4505 -0.1065  0.1771
 4188TIP3    H133979   6.036   0.666  11.278  1.2450 -1.7651  0.2182
 4188TIP3    H233980   5.956   0.633  11.402 -0.1443 -1.2964 -0.5493
 4189TIP3   OH233981   6.609   5.086  15.042 -0.2175  0.6983 -0.1860
 4189TIP3    H133982   6.682   5.029  15.067 -0.3342 -0.1061 -1.6409
 4189TIP3    H233983   6.589   5.135  15.122  0.2078 -0.9361  0.9404
 4190TIP3   OH233984   1.092   4.132   0.613 -0.2944  0.6911 -0.4095
 4190TIP3    H133985   1.141   4.059   0.650  0.8739  0.5838 -2.1336
 4190TIP3    H233986   1.026   4.152   0.679 -1.4981 -2.7884 -0.4658
 4191TIP3   OH233987   3.873   3.069  13.852  0.4866 -0.0510 -0.1913
 4191TIP3    H133988   3.807   3.128  13.889  0.1207  0.1552 -1.1704
 4191TIP3    H233989   3.952   3.086  13.904  0.5885  1.8315 -0.9611
 4192TIP3   OH233990   3.635   0.462   0.782  0.3550  0.3723 -0.0601
 4192TIP3    H133991   3.689   0.517   0.839 -1.0383  0.3264  1.3237
 4192TIP3    H233992   3.682   0.378   0.777  1.0023  0.7219  0.1663
 4193TIP3   OH233993   1.052   1.733   9.937  0.0360 -0.4888  0.2673
 4193TIP3    H133994   0.969   1.780   9.942 -0.0683 -0.5546 -0.7144
 4193TIP3    H233995   1.109   1.778  10.000 -0.0135  1.0596 -0.7532
 4194TIP3   OH233996   2.619   1.682  14.222 -0.0622  0.1268 -0.6753
 4194TIP3    H133997   2.647   1.599  14.184  0.9336  0.6681 -1.1538
 4194TIP3    H233998   2.534   1.663  14.262 -0.2711 -0.8918 -1.5768
 4195TIP3   OH233999   3.472   4.313  10.515 -0.2131  0.2338 -0.0056
 4195TIP3    H134000   3.489   4.220  10.524 -0.1446  0.2368 -0.1033
 4195TIP3    H234001   3.387   4.317  10.471 -0.1446  0.2163 -0.1402
 4196TIP3   OH234002   1.223   3.527  13.942 -0.0447 -0.2193 -0.5300
 4196TIP3    H134003   1.148   3.468  13.940  0.9026 -1.4032 -1.9726
 4196TIP3    H234004   1.293   3.478  13.899  1.4184  1.0554  0.3605
 4197TIP3   OH234005   4.729   1.956  11.959  0.4440 -0.8520  0.4457
 4197TIP3    H134006   4.814   1.969  11.918 -0.1760 -1.0687 -0.9378
 4197TIP3    H234007   4.745   1.967  12.052  1.6076  1.0821  0.0412
 4198TIP3   OH234008   5.599   4.784  13.039  0.0345 -0.6481 -0.1897
 4198TIP3    H134009   5.647   4.769  12.958  2.2626  1.0041  0.7763
 4198TIP3    H234010   5.544   4.861  13.020  0.7528 -0.0988 -0.0680
 4199TIP3   OH234011   1.583   0.893  11.824 -0.7521  0.1692  0.6654
 4199TIP3    H134012   1.583   0.802  11.852 -0.7931 -0.0424 -0.0059
 4199TIP3    H234013   1.668   0.927  11.852  0.2501 -0.7413 -1.1747
 4200TIP3   OH234014   2.740   2.756  11.354  0.3583  0.3808  0.4735
 4200TIP3    H134015   2.651   2.764  11.318  0.6237 -0.0743 -0.2878
 4200TIP3    H234016   2.746   2.665  11.381  0.6057  0.4089  0.5118
 4201TIP3   OH234017   6.076   4.975   4.163 -0.1148 -0.7265 -0.0582
 4201TIP3    H134018   6.028   5.053   4.190  0.4624 -1.0068  1.8396
 4201TIP3    H234019   6.036   4.903   4.213  2.4574 -0.9156  1.8260
 4202TIP3   OH234020   2.286   0.322  11.665  0.4231  0.3156 -0.1185
 4202TIP3    H134021   2.316   0.358  11.748 -0.8831 -1.0237  0.9697
 4202TIP3    H234022   2.365   0.308  11.614  1.4418 -0.6873  1.6692
 4203TIP3   OH234023   2.582   6.902  10.841  0.6596 -0.4723  0.5496
 4203TIP3    H134024   2.499   6.887  10.886 -1.4934  0.2926 -2.9162
 4203TIP3    H234025   2.598   6.996  10.850  0.0899 -0.2708 -0.3821
 4204TIP3   OH234026   0.122   4.666   9.576 -0.3102  0.0876  0.0898
 4204TIP3    H134027   0.041   4.687   9.530  0.0520 -0.1568 -0.6695
 4204TIP3    H234028   0.094   4.613   9.651 -0.9864  1.2523  0.6731
 4205TIP3   OH234029   3.334   2.827  14.509 -0.3441  0.6297  0.4544
 4205TIP3    H134030   3.329   2.738  14.475  0.2306  1.0350 -0.7283
 4205TIP3    H234031   3.387   2.874  14.445 -0.1160  1.6743  1.3919
 4206TIP3   OH234032   0.715   3.447  13.709 -0.7394  0.1228 -0.5908
 4206TIP3    H134033   0.626   3.419  13.686 -1.8420  2.2580  0.8762
 4206TIP3    H234034   0.707   3.542  13.723  1.2337 -0.0534  1.9753
 4207TIP3   OH234035   5.018   1.373   9.993 -0.5247  0.2476 -0.3594
 4207TIP3    H134036   4.979   1.290  10.021 -0.3046  0.0969 -0.4867
 4207TIP3    H234037   4.971   1.397   9.914  0.2307 -0.3952 -1.0184
 4208TIP3   OH234038   5.939   4.337  13.133 -0.2261  0.1894  0.9848
 4208TIP3    H134039   5.942   4.367  13.043 -0.4746  1.1498  1.2903
 4208TIP3    H234040   5.846   4.316  13.148 -0.6326  2.3206  1.7310
 4209TIP3   OH234041   4.845   5.897  10.669 -0.3359  0.3316  0.1515
 4209TIP3    H134042   4.922   5.902  10.612  1.1439 -0.3158  2.0273
 4209TIP3    H234043   4.772   5.927  10.614  1.3021  1.2951 -1.5560
 4210TIP3   OH234044   2.093   1.651  12.130 -0.2970  0.1941  0.4498
 4210TIP3    H134045   2.000   1.640  12.108 -0.2612 -0.3810  0.5809
 4210TIP3    H234046   2.135   1.571  12.098  0.0941  0.2890  0.7224
 4211TIP3   OH234047   3.253   5.044   9.964  1.0471  0.1034 -0.9189
 4211TIP3    H134048   3.306   5.095   9.903  3.0366 -1.4451 -0.5329
 4211TIP3    H234049   3.183   5.007   9.911  1.7804  0.1615 -1.9381
 4212TIP3   OH234050   7.100   1.743  13.078  0.5391  0.0407  0.3441
 4212TIP3    H134051   7.139   1.660  13.049 -0.9002 -0.5156 -0.0681
 4212TIP3    H234052   7.064   1.723  13.164  0.8189  0.4384  0.5513
 4213TIP3   OH234053   6.085   4.693  11.538 -0.1603  0.1256 -1.0736
 4213TIP3    H134054   6.118   4.776  11.572 -1.5624  0.7093 -1.1420
 4213TIP3    H234055   6.096   4.699  11.443  0.8072 -0.2459 -0.9995
 4214TIP3   OH234056   4.800   7.151  10.201 -0.0170  0.6859 -0.0820
 4214TIP3    H134057   4.774   7.226  10.255  1.1802  0.0798  1.3471
 4214TIP3    H234058   4.883   7.178  10.161 -1.7004  1.7941 -2.9965
 4215TIP3   OH234059   3.206   3.291  14.665 -0.5806  0.1356  0.3667
 4215TIP3    H134060   3.263   3.367  14.670  0.9476 -0.8137 -1.8768
 4215TIP3    H234061   3.123   3.325  14.631 -0.7552  1.2140  1.8710
 4216TIP3   OH234062   2.451   5.731  10.097 -0.6216  0.6954  0.1561
 4216TIP3    H134063   2.521   5.761  10.155  1.0789 -2.0229 -0.3650
 4216TIP3    H234064   2.452   5.791  10.023  1.6401  0.3162 -0.1451
 4217TIP3   OH234065   0.837   7.146  12.784 -0.5673 -0.1909  0.6014
 4217TIP3    H134066   0.837   7.081  12.853 -0.0269  0.5130  1.2764
 4217TIP3    H234067   0.758   7.128  12.733 -0.1247 -1.7192  0.4360
 4218TIP3   OH234068   2.623   6.328  12.792 -0.1057 -0.9517 -0.7393
 4218TIP3    H134069   2.669   6.278  12.723 -1.2008 -1.8646 -0.8209
 4218TIP3    H234070   2.548   6.274  12.815 -0.9147  0.3332 -0.2987
 4219TIP3   OH234071   4.419   4.057  10.192  0.6348 -0.0994 -0.0920
 4219TIP3    H134072   4.373   4.036  10.111  0.3691 -0.1867  0.0785
 4219TIP3    H234073   4.411   4.151  10.202  1.0559 -0.0311 -0.3987
 4220TIP3   OH234074   4.370   0.320   1.470 -0.1716 -0.0798  0.0838
 4220TIP3    H134075   4.461   0.344   1.485  0.0733 -0.0254 -1.3617
 4220TIP3    H234076   4.374   0.229   1.440 -0.7309 -0.5906  1.5393
 4221TIP3   OH234077   6.923   4.549   9.994 -0.5685  0.2982 -0.1663
 4221TIP3    H134078   6.932   4.468  10.044 -1.1091  0.4432  0.1720
 4221TIP3    H234079   6.847   4.534   9.938 -0.4594  0.4381 -0.3517
 4222TIP3   OH234080   2.787   5.223  12.197 -0.1963 -0.1176 -0.1578
 4222TIP3    H134081   2.814   5.222  12.105  1.0526 -0.4201  0.1928
 4222TIP3    H234082   2.805   5.134  12.228 -1.3375 -0.2306  0.1771
 4223TIP3   OH234083   1.533   2.120  11.471  0.0933  0.1971  0.5433
 4223TIP3    H134084   1.497   2.106  11.383  0.9245  1.9814 -0.1041
 4223TIP3    H234085   1.585   2.041  11.488  0.3924  0.0901 -0.7998
 4224TIP3   OH234086   3.676   4.198   9.955 -0.6677 -0.1287 -0.7764
 4224TIP3    H134087   3.714   4.210   9.867  1.1969 -0.7939 -0.0831
 4224TIP3    H234088   3.698   4.108   9.978 -0.7378  0.1949  0.5732
 4225TIP3   OH234089   4.584   2.883  13.899 -0.5903  0.6690  0.3334
 4225TIP3    H134090   4.551   2.832  13.974 -0.8747  0.5215  0.1067
 4225TIP3    H234091   4.590   2.973  13.933  3.5979 -0.0718  1.9565
 4226TIP3   OH234092   1.084   6.319  12.044  0.1712  0.8308  0.2443
 4226TIP3    H134093   1.137   6.335  12.122  0.1663 -0.4389  0.5178
 4226TIP3    H234094   1.148   6.305  11.975  0.1750  1.7444  0.0509
 4227TIP3   OH234095   1.326   4.330   0.785 -1.1113  0.8474  0.5464
 4227TIP3    H134096   1.252   4.374   0.827 -0.0063  1.4507  1.9147
 4227TIP3    H234097   1.362   4.274   0.854  1.3055  2.5753  0.7327
 4228TIP3   OH234098   4.334   3.776   0.500  0.1172  0.9849 -0.4439
 4228TIP3    H134099   4.337   3.780   0.405 -0.9199 -1.3446 -0.6027
 4228TIP3    H234100   4.388   3.700   0.523 -0.1466  1.1483  0.7803
 4229TIP3   OH234101   4.137   4.817   3.067  0.4328 -0.1369  0.1300
 4229TIP3    H134102   4.111   4.811   2.975 -0.3749 -0.4165  0.3702
 4229TIP3    H234103   4.167   4.729   3.088 -2.1465 -0.8764  0.9321
 4230TIP3   OH234104   5.880   3.866  12.586  0.1919  0.9287 -0.5536
 4230TIP3    H134105   5.946   3.850  12.653  0.3127  3.2922 -0.0463
 4230TIP3    H234106   5.864   3.960  12.590  0.1390  1.1272 -3.7841
 4231TIP3   OH234107   2.247   4.353  10.333  0.0096  0.0103 -0.1368
 4231TIP3    H134108   2.231   4.271  10.381  0.6900  0.2225  0.4605
 4231TIP3    H234109   2.330   4.385  10.367  0.9723 -0.3010 -2.1600
 4232TIP3   OH234110   2.586   6.171  13.877 -0.4120  0.0022  1.0633
 4232TIP3    H134111   2.559   6.254  13.918  0.0356  0.0851  1.1864
 4232TIP3    H234112   2.681   6.171  13.882 -0.2659  0.7139 -1.3641
 4233TIP3   OH234113   4.850   2.377  15.041  0.2920  0.1352  0.0129
 4233TIP3    H134114   4.900   2.410  15.117  0.8658 -0.0051 -0.2973
 4233TIP3    H234115   4.846   2.283  15.055 -1.3724  0.3338  0.9137
 4234TIP3   OH234116   4.200   6.780  13.926 -0.0791 -0.1830 -0.5502
 4234TIP3    H134117   4.203   6.729  13.846  1.1868 -0.4858 -0.3195
 4234TIP3    H234118   4.188   6.870  13.896  3.4562  0.1127 -1.2743
 4235TIP3   OH234119   3.705   2.269   0.530 -0.3888  0.5806 -0.6753
 4235TIP3    H134120   3.738   2.187   0.493 -0.0368 -0.0928  1.0710
 4235TIP3    H234121   3.650   2.242   0.603  1.9398  1.9121  1.6975
 4236TIP3   OH234122   3.944   0.290  12.600  0.2321 -0.4409  0.1670
 4236TIP3    H134123   3.916   0.248  12.681  0.0054 -1.1318 -0.2642
 4236TIP3    H234124   4.030   0.326  12.620  0.0435 -0.3452  0.8072
 4237TIP3   OH234125   3.334   1.044  11.168 -0.5556  0.2692  0.4164
 4237TIP3    H134126   3.251   1.041  11.216 -0.3000  1.6559  0.9762
 4237TIP3    H234127   3.399   1.010  11.229 -0.6085 -0.2302  0.1977
 4238TIP3   OH234128   7.091   6.615  10.071  0.0183 -0.1244 -0.5913
 4238TIP3    H134129   7.146   6.551  10.027  0.2722  0.1137 -0.6240
 4238TIP3    H234130   7.149   6.659  10.133 -0.7650 -1.7663  1.3898
 4239TIP3   OH234131   2.507   0.551  13.148 -0.0343  0.3703  0.2836
 4239TIP3    H134132   2.508   0.508  13.233  0.9101  0.3961  0.2849
 4239TIP3    H234133   2.423   0.598  13.146  0.2008  0.8468  1.4277
 4240TIP3   OH234134   4.938   0.917  15.527 -0.4634 -0.0140  0.4188
 4240TIP3    H134135   4.855   0.910  15.480  1.1666 -2.2768 -2.2740
 4240TIP3    H234136   4.967   1.007  15.512 -1.3457  0.1211 -0.5155
 4241TIP3   OH234137   1.921   3.049  13.448  0.1783 -0.6521 -0.2481
 4241TIP3    H134138   1.999   3.010  13.487  0.1146 -0.5594 -0.0285
 4241TIP3    H234139   1.942   3.141  13.437 -0.4186 -0.3245  1.1607
 4242TIP3   OH234140   3.271   6.418  10.992  0.4778  0.5078  0.4206
 4242TIP3    H134141   3.268   6.352  11.062 -2.4013  0.5320  0.3990
 4242TIP3    H234142   3.257   6.368  10.912  0.8226  0.8335  0.1570
 4243TIP3   OH234143   0.745   4.196   1.115 -0.1601  0.4469  0.0308
 4243TIP3    H134144   0.780   4.119   1.160 -0.0470  1.1109  1.1062
 4243TIP3    H234145   0.700   4.246   1.184 -1.4440  0.6498 -0.9216
 4244TIP3   OH234146   5.097   3.868  12.650  0.6915 -0.5398  0.2426
 4244TIP3    H134147   5.099   3.927  12.574  1.8457 -0.3190  0.4409
 4244TIP3    H234148   5.022   3.898  12.701 -0.1636 -0.7573 -0.8548
 4245TIP3   OH234149   2.175   3.478  13.862  0.2276  0.4394 -0.1576
 4245TIP3    H134150   2.098   3.533  13.879  0.2860  0.4945 -0.0688
 4245TIP3    H234151   2.144   3.411  13.803 -0.3599 -0.6601  1.3649
 4246TIP3   OH234152   2.264   0.641  13.403 -0.3022  0.2702  0.5967
 4246TIP3    H134153   2.313   0.692  13.339 -1.3625 -0.3975 -0.7586
 4246TIP3    H234154   2.226   0.706  13.462 -0.2570  0.9434 -0.1209
 4247TIP3   OH234155   1.381   6.202  15.537 -0.6748  0.3096 -0.2914
 4247TIP3    H134156   1.324   6.125  15.529 -0.6985  0.0938  1.5862
 4247TIP3    H234157   1.468   6.169  15.517 -0.6443 -0.2865  0.7811
 4248TIP3   OH234158   4.681   6.257  11.419  0.0240 -0.5150 -0.5930
 4248TIP3    H134159   4.770   6.289  11.404 -0.5413  0.8464 -1.0823
 4248TIP3    H234160   4.668   6.268  11.514  0.5861 -1.3183 -0.4093
 4249TIP3   OH234161   4.875   3.844  13.432  0.1792 -0.1572 -0.1808
 4249TIP3    H134162   4.820   3.910  13.389 -0.2407 -0.9209 -0.8266
 4249TIP3    H234163   4.843   3.840  13.522 -0.5281 -0.2778 -0.4354
 4250TIP3   OH234164   6.205   1.223  13.502 -0.1618 -0.0717 -0.0230
 4250TIP3    H134165   6.271   1.250  13.566  0.3365 -2.2261  0.3916
 4250TIP3    H234166   6.256   1.187  13.429 -0.7997  0.7354 -0.8828
 4251TIP3   OH234167   5.670   2.200  10.952 -0.4044  0.0412  0.1306
 4251TIP3    H134168   5.749   2.151  10.977 -0.2508  0.7114  0.9953
 4251TIP3    H234169   5.631   2.149  10.881 -0.2708 -1.3569  1.0473
 4252TIP3   OH234170   1.676   5.197  13.229 -0.3403  0.7124  0.0743
 4252TIP3    H134171   1.663   5.142  13.306  1.3880  2.7110  1.8888
 4252TIP3    H234172   1.595   5.248  13.222  0.1239  1.7288  1.6546
 4253TIP3   OH234173   3.727   6.429   0.359  0.3420  0.0611  0.0778
 4253TIP3    H134174   3.759   6.422   0.449  0.6900  1.9245  0.1201
 4253TIP3    H234175   3.747   6.519   0.334 -1.8138  0.2503 -1.0704
 4254TIP3   OH234176   2.096   5.277  11.080  0.0496  0.1415 -0.1192
 4254TIP3    H134177   2.081   5.352  11.137  0.0051  0.2917 -0.3288
 4254TIP3    H234178   2.039   5.291  11.005 -1.9570 -1.4252  1.0564
 4255TIP3   OH234179   2.160   1.482  11.910 -0.1537 -0.5329  0.3787
 4255TIP3    H134180   2.133   1.429  11.834  1.2008 -0.5989 -0.0596
 4255TIP3    H234181   2.172   1.418  11.980  1.4562 -0.8225 -0.1448
 4256TIP3   OH234182   2.533   6.667  11.222  0.4038 -0.0546  0.1870
 4256TIP3    H134183   2.492   6.584  11.198  0.7890  0.0576 -0.8897
 4256TIP3    H234184   2.477   6.702  11.291 -0.3504 -0.7017 -0.0853
 4257TIP3   OH234185   2.193   3.283  12.350 -0.4284 -0.6021 -0.0711
 4257TIP3    H134186   2.123   3.343  12.377  0.3446  0.5083 -0.5323
 4257TIP3    H234187   2.238   3.328  12.279  1.0009 -1.1486  0.4652
 4258TIP3   OH234188   5.867   6.081  11.326 -0.1199  0.0561  0.2553
 4258TIP3    H134189   5.786   6.061  11.279  0.1009 -0.1298 -0.0542
 4258TIP3    H234190   5.856   6.042  11.412 -0.4989  0.3279  0.3272
 4259TIP3   OH234191   0.848   4.363  12.330  0.1941  0.0105  0.1981
 4259TIP3    H134192   0.769   4.341  12.282  0.2094 -1.8607  0.9962
 4259TIP3    H234193   0.899   4.282  12.331  0.5044  0.2005  2.7592
 4260TIP3   OH234194   6.278   2.956  12.290 -0.0678  0.4081 -0.3168
 4260TIP3    H134195   6.350   2.894  12.300 -0.0242  0.3052 -1.2533
 4260TIP3    H234196   6.321   3.042  12.283 -0.0795  0.4383 -0.0230
 4261TIP3   OH234197   4.559   5.804  12.707 -0.0762 -0.0670  0.1710
 4261TIP3    H134198   4.616   5.854  12.764 -0.1104  0.7747 -0.5152
 4261TIP3    H234199   4.599   5.810  12.620 -0.6633 -0.3073 -0.1270
 4262TIP3   OH234200   0.399   1.354  13.795  0.1627 -0.2524  0.3296
 4262TIP3    H134201   0.490   1.328  13.805  0.5428  0.6691 -0.7468
 4262TIP3    H234202   0.386   1.421  13.863  0.1260 -0.7796  0.8477
 4263TIP3   OH234203   4.397   3.059   9.686 -0.5080  0.4927  0.3864
 4263TIP3    H134204   4.388   3.138   9.632  2.3513 -0.1492 -1.1376
 4263TIP3    H234205   4.352   2.991   9.637 -0.3998  0.5389  0.2220
 4264TIP3   OH234206   3.239   2.371  10.323 -0.1621  0.2384  0.1954
 4264TIP3    H134207   3.198   2.443  10.276 -1.1720 -0.8205 -0.5948
 4264TIP3    H234208   3.328   2.367  10.288  0.4741  2.2130  1.5275
 4265TIP3   OH234209   0.313   5.513  14.888 -0.4082  0.2820 -0.2283
 4265TIP3    H134210   0.383   5.516  14.823  0.0300  2.2328  0.2824
 4265TIP3    H234211   0.357   5.493  14.971 -0.3775  1.8812  0.1596
 4266TIP3   OH234212   5.708   1.687  14.128  0.3773 -0.5591 -0.3100
 4266TIP3    H134213   5.745   1.754  14.185 -0.2491 -0.3914 -0.0899
 4266TIP3    H234214   5.778   1.623  14.115 -0.4781 -2.3814  3.4205
 4267TIP3   OH234215   1.930   5.945  10.275  0.5874  0.7032  0.3963
 4267TIP3    H134216   1.916   5.954  10.369  1.0399 -0.3205  0.5760
 4267TIP3    H234217   1.845   5.923  10.239  0.5075  0.6228  0.6345
 4268TIP3   OH234218   4.562   4.494  13.943  0.2442 -0.0068  0.3775
 4268TIP3    H134219   4.496   4.424  13.947  0.5891 -0.5517 -2.2966
 4268TIP3    H234220   4.624   4.472  14.013 -0.2475 -1.7614  0.3001
 4269TIP3   OH234221   6.697   0.288   2.529 -0.1999  0.1141  0.3116
 4269TIP3    H134222   6.728   0.352   2.464  1.5144 -0.4087  0.5872
 4269TIP3    H234223   6.659   0.218   2.476 -0.1164  0.3594 -0.0804
 4270TIP3   OH234224   3.502   1.812  12.656 -0.3941  0.4345 -0.0281
 4270TIP3    H134225   3.453   1.892  12.637 -0.3981  0.5005  0.2529
 4270TIP3    H234226   3.525   1.777  12.570  0.2373  1.1304 -0.1521
 4271TIP3   OH234227   1.081   4.984   2.963  0.2340  0.3125 -0.0264
 4271TIP3    H134228   1.107   4.927   2.892 -1.4752 -1.8698  1.0527
 4271TIP3    H234229   1.139   4.961   3.036 -0.9260 -0.6096  0.6325
 4272TIP3   OH234230   0.423   5.177  15.061 -0.0152 -0.1079  0.7777
 4272TIP3    H134231   0.481   5.246  15.094  0.4321 -0.6108  1.0492
 4272TIP3    H234232   0.477   5.098  15.063 -0.0784 -0.2163 -0.8328
 4273TIP3   OH234233   6.605   3.216  10.258  0.7149  0.0982 -0.7683
 4273TIP3    H134234   6.544   3.240  10.189  0.6331  0.2047 -0.6611
 4273TIP3    H234235   6.670   3.286  10.259 -0.2070  0.9721  0.3602
 4274TIP3   OH234236   2.570   1.611  10.931 -0.3773 -0.2163  0.0235
 4274TIP3    H134237   2.599   1.680  10.870  0.1855  0.7531  1.3780
 4274TIP3    H234238   2.518   1.552  10.876 -1.5764  1.7252 -0.9883
 4275TIP3   OH234239   1.834   1.459  12.010  0.2796  0.3561  0.1071
 4275TIP3    H134240   1.750   1.443  11.967  0.2535  0.6452  0.0525
 4275TIP3    H234241   1.891   1.388  11.979 -0.0193  0.0037  0.3504
 4276TIP3   OH234242   6.880   2.388  14.508  0.5153  0.2557  0.4211
 4276TIP3    H134243   6.840   2.347  14.584  1.3778  0.0731  0.7896
 4276TIP3    H234244   6.916   2.316  14.457  0.3230  0.4081  0.0693
 4277TIP3   OH234245   5.303   2.489   0.372 -0.5016 -0.3675 -0.3922
 4277TIP3    H134246   5.331   2.576   0.400 -1.5694 -0.1077 -0.1446
 4277TIP3    H234247   5.218   2.475   0.413 -0.7773 -1.1419 -1.1953
 4278TIP3   OH234248   0.795   3.382   9.953  0.0438  0.4467 -0.3191
 4278TIP3    H134249   0.860   3.374   9.883 -0.6195  0.1662 -0.9022
 4278TIP3    H234250   0.754   3.467   9.937  1.1153  1.1872  0.7798
 4279TIP3   OH234251   2.622   0.869  10.522  0.0797  0.1684  0.4644
 4279TIP3    H134252   2.705   0.909  10.498 -0.0441  1.0678  1.4871
 4279TIP3    H234253   2.640   0.775  10.524  1.6940  0.4778  2.9191
 4280TIP3   OH234254   1.919   5.922  12.066 -0.0996 -0.0196 -0.3424
 4280TIP3    H134255   1.960   5.850  12.114 -1.1475 -0.5274 -0.2041
 4280TIP3    H234256   1.882   5.978  12.133  1.1338  0.9106 -0.4307
 4281TIP3   OH234257   3.898   7.028  14.563  0.5275  0.2188 -0.2842
 4281TIP3    H134258   3.974   6.979  14.594  0.8824 -0.0618 -1.5502
 4281TIP3    H234259   3.864   6.976  14.490 -0.2120  0.9110 -0.4427
 4282TIP3   OH234260   6.109   3.828  13.861 -0.0269 -0.2377 -0.1795
 4282TIP3    H134261   6.182   3.878  13.898  1.4298 -2.1294 -0.4430
 4282TIP3    H234262   6.151   3.767  13.800 -2.0226 -0.0258 -1.8019
 4283TIP3   OH234263   1.774   6.698  12.322 -0.7321 -0.0599  0.3695
 4283TIP3    H134264   1.724   6.759  12.268 -1.1443 -0.9103 -0.2252
 4283TIP3    H234265   1.850   6.676  12.269  0.0701  0.8921  1.0964
 4284TIP3   OH234266   0.428   4.282  11.350 -0.2489 -0.4027 -0.1437
 4284TIP3    H134267   0.424   4.207  11.410 -1.8486 -0.4454 -0.2868
 4284TIP3    H234268   0.421   4.243  11.263 -1.1035 -0.0797 -0.2174
 4285TIP3   OH234269   4.809   0.777  12.637  0.3516 -0.2228 -0.0737
 4285TIP3    H134270   4.742   0.795  12.703  0.9244 -0.2440  0.5169
 4285TIP3    H234271   4.765   0.720  12.574 -0.4170  0.3949 -0.1051
 4286TIP3   OH234272   3.702   3.523  11.989 -0.0077  0.5084  0.6841
 4286TIP3    H134273   3.708   3.521  11.894  0.8443  1.2945  0.7138
 4286TIP3    H234274   3.682   3.433  12.014 -2.0676  0.6618 -0.3462
 4287TIP3   OH234275   3.165   3.208  14.062 -0.2332  0.3630 -0.4758
 4287TIP3    H134276   3.089   3.177  14.014 -0.3156 -1.8487  1.0338
 4287TIP3    H234277   3.131   3.232  14.148  0.8356 -1.0812  0.3624
 4288TIP3   OH234278   4.468   1.155  12.701  0.2540  0.1957  0.2353
 4288TIP3    H134279   4.380   1.164  12.739  0.7214  0.6921  1.2354
 4288TIP3    H234280   4.453   1.118  12.614 -0.8756 -0.6258  0.7618
 4289TIP3   OH234281   2.964   3.095  13.891  0.0001  0.4926  0.5708
 4289TIP3    H134282   2.979   3.055  13.805  0.3418 -0.1820  0.9364
 4289TIP3    H234283   2.955   3.020  13.951  0.5080  0.9666  1.2455
 4290TIP3   OH234284   5.918   3.088  11.786  0.3891  0.3037  0.5695
 4290TIP3    H134285   5.852   3.129  11.842  2.4419  0.6687  2.8155
 4290TIP3    H234286   6.000   3.130  11.812  2.0764 -2.9097  0.5920
 4291TIP3   OH234287   0.667   4.766  13.935 -0.1390  0.0019  0.1128
 4291TIP3    H134288   0.572   4.772  13.936 -0.0392  1.5614  1.6282
 4291TIP3    H234289   0.685   4.673  13.917 -1.9109 -0.0154 -1.7043
 4292TIP3   OH234290   6.839   3.273  11.055  0.4746  0.4066 -0.4430
 4292TIP3    H134291   6.780   3.328  11.108 -0.7989 -1.3009 -0.0550
 4292TIP3    H234292   6.836   3.314  10.968 -1.5766  0.1823 -0.5221
 4293TIP3   OH234293   4.554   6.336  12.267 -0.3940 -0.0733 -0.2271
 4293TIP3    H134294   4.631   6.360  12.217 -0.5059 -0.5251 -0.6209
 4293TIP3    H234295   4.529   6.250  12.233  0.1021 -0.8310  1.2864
 4294TIP3   OH234296   3.023   1.855  10.541  0.4847 -0.0507  0.1785
 4294TIP3    H134297   3.015   1.915  10.467 -0.2594  0.1361  0.4120
 4294TIP3    H234298   3.117   1.841  10.550  0.5493 -0.9507 -1.5149
 4295TIP3   OH234299   0.628   3.058  11.481 -0.1416  0.0030 -0.4933
 4295TIP3    H134300   0.545   3.096  11.509 -0.5508 -3.0197  2.7440
 4295TIP3    H234301   0.604   2.978  11.434  0.9349 -0.7655  0.2450
 4296TIP3   OH234302   1.078   6.624  11.874 -0.0025 -0.1518 -1.1301
 4296TIP3    H134303   0.998   6.573  11.888  0.5441 -0.8531 -0.4858
 4296TIP3    H234304   1.049   6.703  11.828 -1.0685 -0.3729 -0.8517
 4297TIP3   OH234305   5.318   6.324  11.774 -0.2166 -0.5426  0.3063
 4297TIP3    H134306   5.339   6.287  11.688  0.3412 -0.3511  0.3586
 4297TIP3    H234307   5.386   6.291  11.832  0.4987  0.8395  0.2785
 4298TIP3   OH234308   0.073   3.274  15.383 -0.6180  0.4047  0.5069
 4298TIP3    H134309   0.071   3.293  15.477  1.0464  1.3771  0.3667
 4298TIP3    H234310   0.114   3.351  15.344 -1.8408  0.2631 -1.0975
 4299TIP3   OH234311   3.234   1.662  14.878  0.6695  0.1634  0.4037
 4299TIP3    H134312   3.156   1.621  14.839  0.1869  0.9301  0.5578
 4299TIP3    H234313   3.306   1.632  14.822  0.5012 -1.9006  1.2452
 4300TIP3   OH234314   5.056   3.076  13.357  0.6158 -0.3592 -0.0595
 4300TIP3    H134315   4.970   3.078  13.314  0.4741 -1.7684  0.1574
 4300TIP3    H234316   5.107   3.012  13.307  2.6874  2.8692 -2.2903
 4301TIP3   OH234317   4.502   6.011  15.336  0.0407 -0.1140  0.2442
 4301TIP3    H134318   4.504   6.100  15.300 -0.7483  0.2402  1.0628
 4301TIP3    H234319   4.471   6.022  15.426 -1.9804 -1.4178 -0.2643
 4302TIP3   OH234320   4.005   5.920  11.505 -0.1274 -0.0934  0.2357
 4302TIP3    H134321   4.021   5.834  11.466 -0.5367 -0.5978  1.1660
 4302TIP3    H234322   4.086   5.939  11.554  0.9505  1.1643 -1.9411
 4303TIP3   OH234323   5.023   6.838  12.601  0.2437  0.2025  0.5192
 4303TIP3    H134324   5.077   6.774  12.554  1.1470  0.6094  1.0014
 4303TIP3    H234325   5.059   6.923  12.575 -0.5907  0.4977  0.3212
 4304TIP3   OH234326   3.095   6.759  11.491 -0.4212  0.0809  0.7567
 4304TIP3    H134327   3.177   6.775  11.445 -0.9451  1.4906  0.3047
 4304TIP3    H234328   3.112   6.784  11.581 -0.4217  0.5813  0.6165
 4305TIP3   OH234329   0.341   0.646  12.830 -0.0332  0.2661  0.1825
 4305TIP3    H134330   0.279   0.693  12.775 -0.7102  0.3910  1.0422
 4305TIP3    H234331   0.328   0.683  12.917 -0.0549 -1.0023  0.7246
 4306TIP3   OH234332   1.768   0.171   1.425 -0.7728  0.0589  0.0385
 4306TIP3    H134333   1.735   0.108   1.490  1.0689  1.6659  2.6115
 4306TIP3    H234334   1.861   0.178   1.444 -0.5620  2.0273 -1.5784
 4307TIP3   OH234335   5.223   4.303  10.073  0.0773  0.3484  0.1331
 4307TIP3    H134336   5.265   4.374  10.026 -0.2527 -0.4831 -1.4672
 4307TIP3    H234337   5.133   4.301  10.039  0.4669 -1.6825 -0.8701
 4308TIP3   OH234338   1.814   3.871  13.885  0.1310  0.8334 -0.2160
 4308TIP3    H134339   1.799   3.938  13.952  0.9387  0.9751 -0.1707
 4308TIP3    H234340   1.746   3.805  13.901 -0.5575  1.5475 -0.1445
 4309TIP3   OH234341   6.365   1.763  12.914  0.5991 -0.3538  0.5277
 4309TIP3    H134342   6.305   1.690  12.931  1.4979 -1.7355 -2.0551
 4309TIP3    H234343   6.439   1.746  12.973 -0.3807 -0.0266  1.8878
 4310TIP3   OH234344   4.753   1.150  15.557 -0.0933 -0.2938  0.0746
 4310TIP3    H134345   4.820   1.171  15.622 -1.1224  0.3764  0.9418
 4310TIP3    H234346   4.692   1.223  15.561 -0.6283 -0.6632 -1.0518
 4311TIP3   OH234347   3.532   2.380  10.502 -0.0468 -0.3410 -0.6532
 4311TIP3    H134348   3.499   2.292  10.518  2.2562 -1.0184  0.6078
 4311TIP3    H234349   3.540   2.386  10.406 -0.1560 -1.5261 -0.7403
 4312TIP3   OH234350   2.526   4.336   0.102 -0.0003 -0.6259  0.0706
 4312TIP3    H134351   2.511   4.350   0.195 -1.1354 -0.8727 -0.0720
 4312TIP3    H234352   2.477   4.256   0.082 -0.9823  0.2399 -1.0551
 4313TIP3   OH234353   2.858   4.084   9.788  0.4792  0.5696 -0.1301
 4313TIP3    H134354   2.888   4.133   9.864 -0.0616  1.2408 -0.3409
 4313TIP3    H234355   2.888   4.135   9.712  0.9063 -0.0275 -0.3727
 4314TIP3   OH234356   2.891   6.195  10.089  0.0263  0.4035  0.4435
 4314TIP3    H134357   2.932   6.246  10.159  1.8859 -0.0364 -0.3017
 4314TIP3    H234358   2.820   6.251  10.057 -0.4337  0.8711  2.2461
 4315TIP3   OH234359   3.079   3.483  13.054 -0.0623 -0.3094 -0.1183
 4315TIP3    H134360   3.141   3.425  13.010 -0.8049 -1.3901  0.2466
 4315TIP3    H234361   3.107   3.484  13.145  0.9260  1.2040 -0.4330
 4316TIP3   OH234362   0.496   3.085  10.392 -0.7596  0.0568 -0.1000
 4316TIP3    H134363   0.411   3.066  10.352 -1.3979  1.8503  0.3595
 4316TIP3    H234364   0.484   3.064  10.484 -0.5622 -0.0857 -0.1057
 4317TIP3   OH234365   2.503   2.689  13.626  0.7340  0.1534  0.0235
 4317TIP3    H134366   2.443   2.615  13.632 -0.3083  0.8919 -1.0890
 4317TIP3    H234367   2.468   2.754  13.687 -1.4327  1.8233 -2.9022
 4318TIP3   OH234368   1.894   7.096  12.118 -0.3929 -0.2353 -0.1732
 4318TIP3    H134369   1.832   7.026  12.140 -0.0794 -0.5705 -0.3492
 4318TIP3    H234370   1.901   7.094  12.023  0.4843 -0.7226 -0.1120
 4319TIP3   OH234371   2.612   0.104  13.527 -0.2995 -0.3417  0.2119
 4319TIP3    H134372   2.522   0.125  13.502 -0.5262 -1.2881  0.1767
 4319TIP3    H234373   2.665   0.175  13.491 -0.8113 -0.7954 -1.4827
 4320TIP3   OH234374   4.615   3.395  12.878 -0.1483 -0.2344  0.2547
 4320TIP3    H134375   4.544   3.332  12.893  0.1249 -0.3618  1.0508
 4320TIP3    H234376   4.678   3.378  12.948  0.1264  0.6459  0.2374
 4321TIP3   OH234377   0.631   4.201  14.005 -0.1120  0.1878 -0.4772
 4321TIP3    H134378   0.620   4.113  14.041  0.8165  0.3738  0.2863
 4321TIP3    H234379   0.552   4.248  14.032 -0.1177 -0.1104  0.0307
 4322TIP3   OH234380   6.772   5.229   0.443  0.1222  0.0132 -0.2771
 4322TIP3    H134381   6.844   5.277   0.484 -0.4280  0.0353  0.6899
 4322TIP3    H234382   6.792   5.137   0.459  0.1970  0.0001 -0.4488
 4323TIP3   OH234383   2.270   4.178   9.551 -0.4862  0.2364 -0.1890
 4323TIP3    H134384   2.278   4.196   9.458  0.7136 -0.7053 -0.2742
 4323TIP3    H234385   2.193   4.228   9.578 -1.1499  0.1057 -1.7796
 4324TIP3   OH234386   3.024   3.247  11.736  0.7789  0.3582 -0.2682
 4324TIP3    H134387   3.025   3.217  11.645  2.5857 -0.4530 -0.0203
 4324TIP3    H234388   3.039   3.341  11.731  0.4583  0.3816 -0.8323
 4325TIP3   OH234389   4.597   2.380   9.687  0.2483 -0.4526  0.2684
 4325TIP3    H134390   4.672   2.431   9.657 -0.6603  1.2509  0.7938
 4325TIP3    H234391   4.629   2.331   9.763  0.7935  0.4171  0.6051
 4326TIP3   OH234392   2.013   1.653  10.837 -0.1258  0.6664 -0.2217
 4326TIP3    H134393   2.063   1.733  10.826  0.8137  0.2888  1.2114
 4326TIP3    H234394   1.969   1.640  10.753  1.2115  1.6509 -1.0776
 4327TIP3   OH234395   1.406   2.859  13.564  0.2281  0.2061 -0.8466
 4327TIP3    H134396   1.387   2.766  13.553 -0.6758  0.4112 -1.0229
 4327TIP3    H234397   1.501   2.865  13.553  0.2865 -0.6919 -0.8624
 4328TIP3   OH234398   4.111   1.608  12.021  0.2354 -0.0605 -0.0052
 4328TIP3    H134399   4.163   1.652  11.954  0.5500 -0.5810 -0.1045
 4328TIP3    H234400   4.020   1.629  11.999  0.4460  2.2757  1.1453
 4329TIP3   OH234401   4.759   4.000  13.814 -0.0652 -0.6254 -0.9322
 4329TIP3    H134402   4.666   3.978  13.811 -0.7795  1.7151  1.8401
 4329TIP3    H234403   4.804   3.920  13.785 -2.9154 -1.4144 -3.4636
 4330TIP3   OH234404   2.550   3.003  11.863  0.0937  0.3377 -0.0373
 4330TIP3    H134405   2.476   2.956  11.901 -0.8606  1.5088 -0.4159
 4330TIP3    H234406   2.558   2.968  11.774 -0.0593  0.2752 -0.0265
 4331TIP3   OH234407   6.760   1.384  14.952  0.0898  0.1018 -0.1939
 4331TIP3    H134408   6.811   1.312  14.914  0.6170  0.9551 -1.1120
 4331TIP3    H234409   6.721   1.346  15.031  0.7457 -1.0588 -0.4148
 4332TIP3   OH234410   4.185   0.027  10.237  0.0974  0.8313 -0.2463
 4332TIP3    H134411   4.143   0.042  10.152  0.9123  1.4212 -0.5527
 4332TIP3    H234412   4.279   0.039  10.220  0.4105 -0.5344  0.4053
 4333TIP3   OH234413   1.532   1.784  12.825  0.6768  0.1825 -0.0935
 4333TIP3    H134414   1.443   1.796  12.790  0.6649  1.1395  0.2472
 4333TIP3    H234415   1.530   1.698  12.867  0.2511 -0.3238 -1.1062
 4334TIP3   OH234416   3.801   1.767  14.162  0.0920 -0.3330  0.4267
 4334TIP3    H134417   3.861   1.780  14.088 -0.6841  0.2064 -0.1146
 4334TIP3    H234418   3.856   1.728  14.230  0.9109 -0.4562 -0.2870
 4335TIP3   OH234419   3.064   5.232  12.997 -0.3067  0.3931  0.2045
 4335TIP3    H134420   3.002   5.223  12.924 -0.3511  0.6898  0.2050
 4335TIP3    H234421   3.050   5.321  13.029  0.6383  0.7252 -0.2701
 4336TIP3   OH234422   2.902   6.219  12.286  0.0849 -0.0572 -0.0384
 4336TIP3    H134423   2.993   6.214  12.314  0.1236  1.0132  0.0645
 4336TIP3    H234424   2.864   6.134  12.309  0.9698 -0.3830  0.2161
 4337TIP3   OH234425   5.135   4.938   0.208  0.1118 -0.3963  0.8823
 4337TIP3    H134426   5.192   4.870   0.244 -0.4914 -1.1809  0.3643
 4337TIP3    H234427   5.171   4.955   0.121 -0.0947 -0.4756  0.7819
 4338TIP3   OH234428   3.277   1.239  14.232  0.2991 -0.7516 -0.2219
 4338TIP3    H134429   3.201   1.183  14.221 -1.1731  0.9645  0.9685
 4338TIP3    H234430   3.352   1.179  14.231 -1.1103 -2.5342 -0.6046
 4339TIP3   OH234431   1.221   3.316  13.569  0.3826 -1.0967 -0.0525
 4339TIP3    H134432   1.305   3.361  13.571  0.4418 -1.1320 -1.6977
 4339TIP3    H234433   1.240   3.232  13.527 -0.5902 -0.8528 -0.9900
 4340TIP3   OH234434   2.891   4.432  13.837 -0.1319 -0.4441 -0.2242
 4340TIP3    H134435   2.924   4.511  13.794 -1.3398  0.0086 -0.3409
 4340TIP3    H234436   2.966   4.398  13.885  0.9875 -0.4799 -1.9958
 4341TIP3   OH234437   1.042   0.684  14.506  0.0951  0.0815  0.1448
 4341TIP3    H134438   1.085   0.676  14.421  0.0501 -0.0720  0.1372
 4341TIP3    H234439   0.967   0.742  14.489 -1.0091 -1.4603 -0.3362
 4342TIP3   OH234440   2.230   1.662  14.582  0.1687  0.6172  1.0177
 4342TIP3    H134441   2.162   1.719  14.547 -0.7439 -0.7091  0.5969
 4342TIP3    H234442   2.237   1.687  14.674 -1.2691  0.3983  1.2006
 4343TIP3   OH234443   2.891   0.549   4.029  0.3457  0.0477  0.4472
 4343TIP3    H134444   2.982   0.539   4.058  0.7410  0.7184 -0.5557
 4343TIP3    H234445   2.897   0.559   3.934 -0.9223 -1.7357  0.1588
 4344TIP3   OH234446   0.899   2.475  13.544  0.2444  0.0337 -0.1690
 4344TIP3    H134447   0.852   2.470  13.627  0.5254 -1.6956 -0.1050
 4344TIP3    H234448   0.932   2.387  13.529 -1.3535 -0.1245 -3.0585
 4345TIP3   OH234449   1.766   0.894  14.245 -0.1421  0.0073  0.1903
 4345TIP3    H134450   1.725   0.977  14.271  1.4100  0.8908 -0.0940
 4345TIP3    H234451   1.818   0.916  14.168  0.0238 -1.3062 -0.0841
 4346TIP3   OH234452   3.855   5.347  11.033  0.0171 -0.3063  0.2527
 4346TIP3    H134453   3.812   5.297  11.102  1.2272 -2.6457 -0.6329
 4346TIP3    H234454   3.941   5.307  11.025 -0.5586 -0.9613 -3.4601
 4347TIP3   OH234455   1.273   4.775  11.580  0.0405  0.2499  0.0683
 4347TIP3    H134456   1.346   4.757  11.639 -0.3366 -2.4826 -0.2309
 4347TIP3    H234457   1.305   4.751  11.493 -0.2025  1.9897 -0.5274
 4348TIP3   OH234458   3.703   0.324  12.412  0.2306  0.1165 -0.7033
 4348TIP3    H134459   3.785   0.318  12.462  0.5681  1.3123 -1.1135
 4348TIP3    H234460   3.698   0.240  12.365  1.4883  0.2462 -1.0936
 4349TIP3   OH234461   6.570   3.293  15.221 -0.3325  0.1422  0.2903
 4349TIP3    H134462   6.613   3.378  15.216  0.5906 -0.3105  0.3431
 4349TIP3    H234463   6.638   3.234  15.253 -1.0993 -0.5211  0.7130
 4350TIP3   OH234464   1.700   3.115  15.450 -0.0570  0.5229 -0.2141
 4350TIP3    H134465   1.725   3.190  15.397  1.9217  0.9645  1.2864
 4350TIP3    H234466   1.771   3.052  15.438  2.3405  2.0564  4.6145
 4351TIP3   OH234467   4.512   3.652  13.388  0.5509 -0.6801  0.3215
 4351TIP3    H134468   4.434   3.708  13.393  1.5442  0.6514  1.6006
 4351TIP3    H234469   4.550   3.671  13.303  0.2995 -0.1849  0.3160
 4352TIP3   OH234470   6.287   4.263  11.689 -0.5716 -0.2027 -0.1816
 4352TIP3    H134471   6.271   4.171  11.666  1.3727 -0.3291 -1.2039
 4352TIP3    H234472   6.381   4.266  11.709 -0.7730  1.4133  0.5914
 4353TIP3   OH234473   4.284   2.432  12.345 -0.0470 -0.3967 -0.0516
 4353TIP3    H134474   4.255   2.346  12.375  0.1286 -1.2498 -2.2570
 4353TIP3    H234475   4.205   2.485  12.341 -0.1704 -0.4769  1.2141
 4354TIP3   OH234476   2.867   3.287  12.349  0.4080  0.1831  0.1771
 4354TIP3    H134477   2.884   3.314  12.259  1.4036  0.8739  0.5657
 4354TIP3    H234478   2.869   3.191  12.346 -0.7577  0.1728 -0.7504
 4355TIP3   OH234479   0.273   1.703  12.541  0.1438 -0.5583  0.1689
 4355TIP3    H134480   0.355   1.737  12.507 -0.3601 -0.0353 -0.5475
 4355TIP3    H234481   0.233   1.657  12.467 -0.2317 -0.7676  0.4954
 4356TIP3   OH234482   1.743   3.738  13.630 -0.0955  0.2642  0.3616
 4356TIP3    H134483   1.806   3.779  13.690  1.1437  0.9975 -1.4097
 4356TIP3    H234484   1.787   3.736  13.546 -1.8351 -0.7315 -0.5643
 4357TIP3   OH234485   2.949   1.369  14.057  0.1808  0.8463 -0.1634
 4357TIP3    H134486   2.998   1.345  13.979  0.7204  1.0624  0.1047
 4357TIP3    H234487   2.900   1.447  14.032  1.0972  1.4868 -0.0135
 4358TIP3   OH234488   2.269   1.567  13.486  0.0995 -0.6372  1.0370
 4358TIP3    H134489   2.205   1.604  13.546 -1.6243  2.2192 -2.4105
 4358TIP3    H234490   2.352   1.607  13.511 -1.0749  2.6842 -0.1351
 4359TIP3   OH234491   6.939   7.090  11.018  0.3691  0.3010 -0.6069
 4359TIP3    H134492   6.900   7.023  11.074 -0.9323  0.0570 -1.7806
 4359TIP3    H234493   6.997   7.139  11.076  0.0003 -0.7365  0.6590
 4360TIP3   OH234494   5.085   6.292  13.061  0.4239  0.0301  0.1993
 4360TIP3    H134495   5.057   6.209  13.022 -0.6229 -1.0428  3.1338
 4360TIP3    H234496   5.181   6.290  13.054  0.4161 -1.4987  0.3527
 4361TIP3   OH234497   6.376   3.146  14.714  0.3317  0.0063 -0.1313
 4361TIP3    H134498   6.306   3.180  14.658 -0.1036  0.8573  0.9197
 4361TIP3    H234499   6.373   3.051  14.702  0.3722  0.1897 -1.6974
 4362TIP3   OH234500   2.371   3.915  11.619 -0.4646 -0.2246  0.6196
 4362TIP3    H134501   2.428   3.898  11.544 -1.5780 -0.4831 -0.1879
 4362TIP3    H234502   2.371   3.833  11.668 -0.3120 -0.2943  0.5042
 4363TIP3   OH234503   4.792   0.507  15.508 -0.3542 -0.7607 -0.2793
 4363TIP3    H134504   4.844   0.526  15.431 -0.2113  1.5426  0.3605
 4363TIP3    H234505   4.718   0.567  15.503 -1.1661 -1.6564  0.5937
 4364TIP3   OH234506   1.388   3.901  11.908 -0.2969  0.7222  0.3743
 4364TIP3    H134507   1.397   3.976  11.966 -1.6351  1.9985 -1.0050
 4364TIP3    H234508   1.477   3.880  11.881  0.0641  1.9484  0.6055
 4365TIP3   OH234509   2.619   0.414  14.389 -0.8870 -0.1429 -0.1573
 4365TIP3    H134510   2.567   0.335  14.379 -0.0449 -0.9248  1.5298
 4365TIP3    H234511   2.558   0.478  14.428 -0.3870 -1.3302  2.6845
 4366TIP3   OH234512   5.514   4.650  10.431 -0.4645  0.1788 -0.0099
 4366TIP3    H134513   5.444   4.708  10.400  0.0931  0.9405  0.1635
 4366TIP3    H234514   5.595   4.693  10.405  0.0162  0.8967  2.6146
 4367TIP3   OH234515   2.241   6.243  11.703  0.7255  0.3943  0.0223
 4367TIP3    H134516   2.182   6.318  11.705  0.1892 -0.0336  0.8132
 4367TIP3    H234517   2.196   6.176  11.754  1.7763 -0.0310  0.4138
 4368TIP3   OH234518   2.759   4.468  11.304 -0.7372  0.4304  0.3437
 4368TIP3    H134519   2.835   4.522  11.323  1.1516 -1.6026 -1.1026
 4368TIP3    H234520   2.748   4.413  11.382 -0.7529  0.7713  0.5787
 4369TIP3   OH234521   2.445   1.859  14.084 -0.0563  0.0199 -0.5578
 4369TIP3    H134522   2.519   1.797  14.085  1.3263  1.6303  0.7565
 4369TIP3    H234523   2.480   1.938  14.126 -2.2072  1.2115 -0.9595
 4370TIP3   OH234524   1.367   0.637  12.243 -0.0851 -0.3844  0.2880
 4370TIP3    H134525   1.447   0.687  12.257 -1.1885  1.2015  0.9928
 4370TIP3    H234526   1.397   0.547  12.232  1.8457  0.2869 -0.1357
 4371TIP3   OH234527   1.901   3.347  10.232  0.1791 -0.3581  0.2166
 4371TIP3    H134528   1.997   3.346  10.232  0.1828 -0.6845 -0.7271
 4371TIP3    H234529   1.877   3.438  10.218  0.3531 -0.1970  0.9826
 4372TIP3   OH234530   3.836   5.733  14.178 -0.2375  0.5894  0.0916
 4372TIP3    H134531   3.765   5.763  14.235 -1.5858 -0.3600 -1.0643
 4372TIP3    H234532   3.897   5.807  14.175 -2.0430  2.0940 -0.3016
 4373TIP3   OH234533   4.519   2.931  14.443  0.3959  0.0028 -0.1584
 4373TIP3    H134534   4.499   2.843  14.413 -0.1822 -0.0607  0.4065
 4373TIP3    H234535   4.487   2.988  14.373 -0.8157 -0.1502  0.2577
 4374TIP3   OH234536   2.469   3.531  10.214 -0.4715  0.0628  0.2368
 4374TIP3    H134537   2.506   3.593  10.150 -3.0598  1.5813  0.1479
 4374TIP3    H234538   2.518   3.450  10.199 -0.7193  0.5019 -3.4135
 4375TIP3   OH234539   3.154   2.616  10.499  0.4087 -0.0981 -0.6457
 4375TIP3    H134540   3.140   2.631  10.592 -0.0845 -1.8348 -0.4276
 4375TIP3    H234541   3.203   2.693  10.470  0.2995  0.6067  0.9757
 4376TIP3   OH234542   6.276   6.346  12.944  0.0050  0.7786  0.4066
 4376TIP3    H134543   6.301   6.435  12.919  0.4377 -0.1119 -2.4708
 4376TIP3    H234544   6.181   6.345  12.938  0.0298  0.9204 -0.0035
 4377TIP3   OH234545   2.477   1.567   0.166  0.3962  0.0487 -0.2609
 4377TIP3    H134546   2.455   1.625   0.093 -0.4174 -1.5426 -1.3080
 4377TIP3    H234547   2.459   1.619   0.245  0.8924  1.6376 -1.1766
 4378TIP3   OH234548   1.631   1.204  13.531 -0.4219  0.5053  0.2925
 4378TIP3    H134549   1.699   1.140  13.552 -0.6314  0.6447  1.4186
 4378TIP3    H234550   1.679   1.283  13.505 -0.1620  0.2701  0.0578
 4379TIP3   OH234551   4.532   2.665  14.360 -0.7675  0.0915  0.1185
 4379TIP3    H134552   4.614   2.645  14.315 -1.6919 -0.3516 -1.4195
 4379TIP3    H234553   4.511   2.586  14.410  0.7683  0.9323  2.1896
 4380TIP3   OH234554   6.696   1.230  13.095 -0.5653  0.4726 -0.1436
 4380TIP3    H134555   6.618   1.207  13.045  0.4225 -1.1809 -0.9639
 4380TIP3    H234556   6.693   1.326  13.103 -1.8042  0.5616 -1.5738
 4381TIP3   OH234557   3.371   1.536  10.814 -0.3601 -0.2003  0.0485
 4381TIP3    H134558   3.428   1.519  10.739  0.5266 -0.0016  0.6744
 4381TIP3    H234559   3.429   1.535  10.889 -1.5059 -2.1241  0.9554
 4382TIP3   OH234560   2.774   5.143  13.127  0.0228  0.1147 -0.2217
 4382TIP3    H134561   2.774   5.220  13.070 -0.5154 -0.3326 -0.8386
 4382TIP3    H234562   2.765   5.069  13.067  1.3454 -0.4801  0.3083
 4383TIP3   OH234563   6.976   1.285  12.489 -0.1640  0.1462  0.4786
 4383TIP3    H134564   7.003   1.261  12.400 -0.6995  0.9292  0.0940
 4383TIP3    H234565   7.051   1.264  12.544  1.1488  2.0475 -0.5365
 4384TIP3   OH234566   6.539   3.152  11.222  0.3377 -0.6364  0.5209
 4384TIP3    H134567   6.584   3.128  11.303 -0.4216 -0.2341  1.0714
 4384TIP3    H234568   6.604   3.203  11.173  0.8576 -1.0315  0.8015
 4385TIP3   OH234569   5.276   4.429  12.727  0.2386  0.2146 -0.7206
 4385TIP3    H134570   5.281   4.337  12.702 -0.0591  0.0553 -0.2049
 4385TIP3    H234571   5.203   4.465  12.676 -1.9783 -0.6920  1.6521
 4386TIP3   OH234572   5.737   5.172   1.106  0.6089 -0.4114  0.6550
 4386TIP3    H134573   5.745   5.078   1.117 -0.6587 -0.3756  2.0749
 4386TIP3    H234574   5.808   5.209   1.159  1.5524 -0.5765 -0.4779
 4387TIP3   OH234575   1.874   3.441   0.076  0.6033 -0.2605 -0.1349
 4387TIP3    H134576   1.830   3.370   0.122  0.8548 -0.1342  0.3063
 4387TIP3    H234577   1.932   3.480   0.142  1.5500 -0.5794 -0.7806
 4388TIP3   OH234578   3.868   3.804  14.631  0.3547 -0.6584 -0.1322
 4388TIP3    H134579   3.888   3.720  14.591  0.6118 -0.1524 -1.0786
 4388TIP3    H234580   3.909   3.869  14.574 -1.2773  0.2055 -0.3516
 4389TIP3   OH234581   6.976   4.113  12.154  0.0057 -0.4501  0.4786
 4389TIP3    H134582   6.882   4.126  12.167 -0.1968 -1.3320 -0.0851
 4389TIP3    H234583   6.985   4.022  12.128  0.5946  0.5895 -3.2592
 4390TIP3   OH234584   1.549   6.666  10.352  0.2480  0.0076  0.3462
 4390TIP3    H134585   1.465   6.622  10.338  0.7444 -1.4269  1.7512
 4390TIP3    H234586   1.599   6.606  10.407  1.6627  1.5019  0.7354
 4391TIP3   OH234587   5.542   3.468   9.799  0.0258 -0.0625  0.2552
 4391TIP3    H134588   5.513   3.559   9.804 -1.5137 -0.5168  0.1591
 4391TIP3    H234589   5.573   3.458   9.709  0.0482  0.3326  0.2168
 4392TIP3   OH234590   4.574   2.176  13.595  0.8184 -0.6126  0.1727
 4392TIP3    H134591   4.526   2.105  13.636 -2.7127  0.8567 -1.2168
 4392TIP3    H234592   4.558   2.166  13.501  1.5519  1.0864 -0.1706
 4393TIP3   OH234593   2.349   6.158  12.122 -0.3554 -0.5021 -0.2086
 4393TIP3    H134594   2.338   6.141  12.216  1.0321 -2.9287 -0.4508
 4393TIP3    H234595   2.440   6.135  12.104 -1.0470 -1.5988 -2.4719
 4394TIP3   OH234596   1.377   4.700  13.950  0.1618 -0.1545 -0.2991
 4394TIP3    H134597   1.425   4.731  13.874 -0.7435  1.4494 -0.2358
 4394TIP3    H234598   1.365   4.606  13.934  1.8272 -0.2460 -1.0974
 4395TIP3   OH234599   4.559   1.085  10.736  0.3778  0.5911 -0.0293
 4395TIP3    H134600   4.588   1.027  10.806 -1.7315 -2.4976 -1.5579
 4395TIP3    H234601   4.630   1.083  10.672 -0.5569 -2.1715 -1.0633
 4396TIP3   OH234602   5.783   4.986  12.232 -0.3052  0.6372 -0.4852
 4396TIP3    H134603   5.759   5.079  12.238 -1.4379  0.2379  1.8300
 4396TIP3    H234604   5.750   4.959  12.147 -3.8931  1.3413  0.5691
 4397TIP3   OH234605   5.273   2.596  10.696  0.3709  0.4588 -0.0609
 4397TIP3    H134606   5.191   2.553  10.674 -0.2059  1.7063 -0.4295
 4397TIP3    H234607   5.256   2.639  10.779  1.2330 -0.7822  0.7661
 4398TIP3   OH234608   4.076   4.709  10.551  0.0690 -0.0021 -0.4965
 4398TIP3    H134609   4.016   4.680  10.483 -1.5182 -1.9694  1.6659
 4398TIP3    H234610   4.105   4.628  10.594  3.0234  1.0152 -0.4511
 4399TIP3   OH234611   0.008   1.244  14.025  0.2681 -0.7802 -0.2545
 4399TIP3    H134612  -0.077   1.246  13.980 -0.1010  0.7014  0.4583
 4399TIP3    H234613  -0.012   1.211  14.113  0.1368  1.0427  0.4319
 4400TIP3   OH234614   5.699   2.162  14.325  0.0794 -0.4489  0.0823
 4400TIP3    H134615   5.661   2.128  14.405 -1.9371  2.8640  0.6423
 4400TIP3    H234616   5.722   2.253  14.346 -0.2034  0.3998 -2.9764
 4401TIP3   OH234617   2.090   0.346  11.356  0.0201  0.7135 -0.8453
 4401TIP3    H134618   2.038   0.338  11.276 -2.6057 -0.5815  0.9382
 4401TIP3    H234619   2.153   0.273  11.351 -2.1993 -1.2903 -0.2837
 4402TIP3   OH234620   2.401   2.633  10.441 -0.1082  0.1035 -0.4268
 4402TIP3    H134621   2.385   2.540  10.461 -2.8375 -0.1162 -3.1873
 4402TIP3    H234622   2.326   2.678  10.480  0.3125  0.9399 -0.5889
 4403TIP3   OH234623   1.577   5.967  15.020 -0.0257 -0.4518  0.3956
 4403TIP3    H134624   1.659   5.919  15.033 -1.0030 -2.0431  0.7036
 4403TIP3    H234625   1.543   5.980  15.109 -0.8214 -1.0465  0.1791
 4404TIP3   OH234626   3.906   3.538  11.026  0.1848  0.4376  0.2014
 4404TIP3    H134627   3.964   3.588  10.968  0.5063 -0.4840 -0.2809
 4404TIP3    H234628   3.898   3.452  10.984 -1.3433  0.4715  0.3937
 4405TIP3   OH234629   3.964   4.143  12.655 -0.0658  0.0095  0.3514
 4405TIP3    H134630   3.893   4.079  12.646 -2.3064  2.0688  2.4381
 4405TIP3    H234631   4.022   4.125  12.581 -2.7075 -1.8537 -1.3871
 4406TIP3   OH234632   2.564   1.149  11.517 -0.0883 -0.0274  0.0862
 4406TIP3    H134633   2.534   1.144  11.426 -2.6077  0.3334  0.8610
 4406TIP3    H234634   2.655   1.118  11.514 -0.1961 -0.1922 -2.5165
 4407TIP3   OH234635   4.126   6.346  12.290  0.3707 -0.2560 -0.2239
 4407TIP3    H134636   4.150   6.372  12.201  0.3754  0.3431 -0.0480
 4407TIP3    H234637   4.049   6.399  12.310 -1.3162 -2.3706 -0.9011
 4408TIP3   OH234638   4.470   1.102  12.093 -0.0835 -0.2567 -0.3706
 4408TIP3    H134639   4.408   1.084  12.022 -1.0463 -3.0074  1.1075
 4408TIP3    H234640   4.417   1.137  12.163  0.9532  2.9880 -1.1221
 4409TIP3   OH234641   2.758   4.860  10.704 -0.5235 -0.1620  0.1544
 4409TIP3    H134642   2.853   4.859  10.715 -0.1373 -0.1180 -2.9508
 4409TIP3    H234643   2.731   4.946  10.735  0.6746  0.5532 -0.7831
 4410TIP3   OH234644   2.745   1.704  13.620  0.3008 -0.3245 -0.3747
 4410TIP3    H134645   2.796   1.677  13.696 -0.7968 -1.2251  0.0607
 4410TIP3    H234646   2.724   1.796  13.636  0.0091 -0.5367  0.4463
 4411TIP3   OH234647   1.162   3.549   9.928 -0.8187  0.0503  0.1391
 4411TIP3    H134648   1.105   3.473   9.923 -0.0381 -0.4808 -0.9079
 4411TIP3    H234649   1.242   3.517   9.968 -1.1454  0.7409  1.3871
 4412TIP3   OH234650   2.005   4.727  11.110 -0.4260  0.1313 -0.1340
 4412TIP3    H134651   1.953   4.690  11.038 -0.2580 -2.3777  0.9745
 4412TIP3    H234652   1.971   4.684  11.189  2.1439 -0.2920  0.8018
 4413TIP3   OH234653   2.311   3.020  11.002 -0.1178 -0.3084 -0.2501
 4413TIP3    H134654   2.334   2.993  10.913 -1.2791 -0.4361 -0.5152
 4413TIP3    H234655   2.393   3.011  11.051  0.5851 -0.0471 -1.3445
 4414TIP3   OH234656   2.730   6.844  11.158  0.4214 -0.0568  0.1498
 4414TIP3    H134657   2.668   6.778  11.187  1.7935 -2.2095 -1.6933
 4414TIP3    H234658   2.800   6.841  11.223 -0.5452  1.2081  1.2997
 4415TIP3   OH234659   5.216   1.122  13.394  0.2672  0.7202  0.4832
 4415TIP3    H134660   5.173   1.204  13.374  0.9923  1.2502  1.0812
 4415TIP3    H234661   5.148   1.055  13.383 -0.0228  1.2687 -1.1600
 4416TIP3   OH234662   4.638   3.935  12.698  0.1695  0.4373  0.2123
 4416TIP3    H134663   4.679   3.851  12.678  0.4719  0.2624  1.5306
 4416TIP3    H234664   4.554   3.912  12.738  0.7057  0.7424  1.5332
 4417TIP3   OH234665   2.212   6.784  12.230 -0.0934  0.2393  0.0361
 4417TIP3    H134666   2.153   6.806  12.303  1.1709  0.2300  1.0798
 4417TIP3    H234667   2.228   6.868  12.186 -0.2187  0.3805  0.2577
 4418TIP3   OH234668   4.298   1.302  14.845 -0.4333  0.1515  0.6065
 4418TIP3    H134669   4.272   1.212  14.862  0.0230  0.0381  0.6956
 4418TIP3    H234670   4.267   1.351  14.922 -0.7878  0.0940  0.5014
 4419TIP3   OH234671   5.937   2.901  10.682 -0.3404  0.0521  0.0679
 4419TIP3    H134672   6.020   2.933  10.647 -0.3648  1.4563  1.2384
 4419TIP3    H234673   5.872   2.962  10.649 -0.6959 -0.1003  0.4877
 4420TIP3   OH234674   2.022   3.474  11.996 -0.2114 -0.0929  0.3609
 4420TIP3    H134675   2.000   3.418  11.922  0.1905 -0.1743  0.3045
 4420TIP3    H234676   2.093   3.529  11.964  0.5814 -0.7548  0.9846
 4421TIP3   OH234677   4.577   3.034  12.875 -0.2527 -0.1871 -0.4644
 4421TIP3    H134678   4.639   3.106  12.884  1.1641 -1.2018 -1.7159
 4421TIP3    H234679   4.627   2.956  12.900 -1.3926 -0.8846 -0.3068
 4422TIP3   OH234680   0.842   2.127  10.273 -0.1510  0.0717  0.7565
 4422TIP3    H134681   0.914   2.106  10.214 -2.2850 -0.2469 -1.8331
 4422TIP3    H234682   0.781   2.177  10.219 -3.3244 -2.3347  1.9795
 4423TIP3   OH234683   5.833   1.458  14.903  0.0457 -0.1614  0.3521
 4423TIP3    H134684   5.747   1.485  14.937 -0.2405  1.9795 -1.9608
 4423TIP3    H234685   5.881   1.540  14.891  1.1706 -1.0917 -1.6624
 4424TIP3   OH234686   4.460   0.469  11.277  0.6721 -0.3421 -0.7674
 4424TIP3    H134687   4.435   0.392  11.226  2.1948 -1.4823  0.1783
 4424TIP3    H234688   4.457   0.439  11.368  3.5992  0.0053 -0.5087
 4425TIP3   OH234689   2.071   0.873  11.739  0.4639  0.1382 -0.0935
 4425TIP3    H134690   2.004   0.918  11.688 -0.7879 -0.0417  1.3606
 4425TIP3    H234691   2.151   0.924  11.724  0.0708  0.2538 -1.9847
 4426TIP3   OH234692   5.745   5.526  13.474  0.0801  0.3355  0.1082
 4426TIP3    H134693   5.748   5.600  13.414  0.0174  1.4565  1.4408
 4426TIP3    H234694   5.699   5.560  13.551  0.6676 -0.8887  1.0158
 4427TIP3   OH234695   5.722   0.336  12.940  0.4741  0.0043  0.2260
 4427TIP3    H134696   5.635   0.372  12.928  1.3432  1.2566 -2.6599
 4427TIP3    H234697   5.760   0.388  13.011 -0.6288  0.3714  0.5552
 4428TIP3   OH234698   3.710   0.852  14.238  0.2945  0.6952 -0.0259
 4428TIP3    H134699   3.702   0.864  14.143  0.1691 -1.8490 -0.3618
 4428TIP3    H234700   3.796   0.889  14.259 -0.5118  3.0995 -0.7721
 4429TIP3   OH234701   6.602   4.436  12.151  0.8150 -0.3411  0.7512
 4429TIP3    H134702   6.598   4.501  12.221  2.5144  2.0126 -1.2417
 4429TIP3    H234703   6.696   4.425  12.133  0.4598 -1.7929 -0.3755
 4430TIP3   OH234704   2.920   4.661  13.966 -0.3696 -0.1105 -0.1307
 4430TIP3    H134705   3.002   4.696  13.931 -0.7179  0.1423 -0.7003
 4430TIP3    H234706   2.860   4.736  13.967  0.2433  0.4115  2.9700
 4431TIP3   OH234707   4.472   2.642  13.706 -0.1597  0.5043 -0.3941
 4431TIP3    H134708   4.388   2.685  13.722 -0.6030 -0.7025  0.6405
 4431TIP3    H234709   4.449   2.550  13.693  0.7624  0.5747 -2.6695
 4432TIP3   OH234710   1.628   2.694   0.200  0.3643  0.4624 -0.0047
 4432TIP3    H134711   1.541   2.669   0.170  1.6844 -1.7933 -2.1485
 4432TIP3    H234712   1.631   2.789   0.190 -1.6877  0.4987 -0.3409
 4433TIP3   OH234713   5.908   1.233  13.444 -0.3674 -0.4929  0.4722
 4433TIP3    H134714   5.986   1.241  13.498  1.4139 -2.3540 -1.7043
 4433TIP3    H234715   5.899   1.139  13.428 -0.5470  0.0233 -2.7900
 4434TIP3   OH234716   6.537   4.824  14.113 -0.3189 -0.8884 -0.6977
 4434TIP3    H134717   6.621   4.825  14.158  0.2050  0.8018 -1.6812
 4434TIP3    H234718   6.486   4.892  14.155 -1.1502 -1.7807 -0.2335
 4435TIP3   OH234719   6.204   2.418  11.834  0.2651 -0.5130  0.1447
 4435TIP3    H134720   6.247   2.436  11.750 -2.0578  0.5020 -0.8774
 4435TIP3    H234721   6.116   2.390  11.810 -0.2608 -0.7318  2.2557
 4436TIP3   OH234722   0.752   7.043  13.052  0.0194  0.0600 -0.1666
 4436TIP3    H134723   0.815   7.113  13.042  1.6207 -1.1714  0.9777
 4436TIP3    H234724   0.669   7.087  13.071  0.7692  1.6469 -0.5477
 4437TIP3   OH234725   5.730   3.825  13.629 -0.1028 -0.1677  0.4935
 4437TIP3    H134726   5.786   3.884  13.680  0.9044 -0.3124 -0.4110
 4437TIP3    H234727   5.730   3.864  13.541 -0.5961 -0.7316  0.2421
 4438TIP3   OH234728   3.332   3.002  10.686 -0.5725 -0.2260  0.0263
 4438TIP3    H134729   3.421   3.028  10.662 -0.7142 -0.6871 -0.9964
 4438TIP3    H234730   3.311   3.057  10.762  1.5050 -1.8799  1.8339
 4439TIP3   OH234731   0.313   3.164  12.300  0.3324  0.2321 -0.0472
 4439TIP3    H134732   0.220   3.141  12.293  0.9613 -2.1473 -1.1923
 4439TIP3    H234733   0.339   3.188  12.211  0.7599  1.1749  0.3251
 4440TIP3   OH234734   4.941   1.717  14.270  0.2568 -0.6214  0.4120
 4440TIP3    H134735   4.882   1.661  14.321 -2.0972 -0.0554 -1.5792
 4440TIP3    H234736   4.906   1.806  14.281  1.5042 -0.1000  0.2399
 4441TIP3   OH234737   1.504   3.222  15.080  0.2560  0.0011  0.1327
 4441TIP3    H134738   1.466   3.199  14.995 -0.8578 -2.6685  1.2845
 4441TIP3    H234739   1.592   3.184  15.078 -0.0926 -0.8532  0.4699
 4442TIP3   OH234740   2.222   3.031  11.288 -0.2359 -0.3202  0.5022
 4442TIP3    H134741   2.242   2.993  11.203 -3.0969 -0.3225 -0.2018
 4442TIP3    H234742   2.131   3.009  11.304 -0.9777  3.1610  1.6671
 4443TIP3   OH234743   0.867   4.390  12.606  0.0396  0.5580 -0.4854
 4443TIP3    H134744   0.856   4.370  12.513  0.5463 -1.0594 -0.1990
 4443TIP3    H234745   0.860   4.486  12.610  0.3454  0.6756 -2.2231
 4444TIP3   OH234746   3.307   5.783  10.636 -0.3503 -1.1561  0.0820
 4444TIP3    H134747   3.253   5.798  10.559  0.1701 -2.2051 -0.4929
 4444TIP3    H234748   3.247   5.789  10.710 -0.8980 -0.4159 -0.4151
 4445TIP3   OH234749   4.680   2.448  12.040  0.3009  0.1267 -0.0442
 4445TIP3    H134750   4.627   2.520  12.075 -1.6156 -0.6697 -1.2587
 4445TIP3    H234751   4.657   2.373  12.094 -0.1297 -0.3295 -0.8709
 4446TIP3   OH234752   5.435   4.796  15.016  0.1721  0.3181  0.1689
 4446TIP3    H134753   5.347   4.789  14.978 -0.6852 -3.0347  2.5767
 4446TIP3    H234754   5.491   4.745  14.956 -0.3259 -1.1288  0.9315
 4447TIP3   OH234755   0.537   5.966  13.789  0.3521 -0.3064  0.0137
 4447TIP3    H134756   0.628   5.947  13.767 -0.0285 -1.0386 -0.9550
 4447TIP3    H234757   0.505   6.017  13.714 -0.4576 -1.3356 -0.3493
 4448TIP3   OH234758   1.913   2.522  11.709 -0.0280  0.5396  0.0428
 4448TIP3    H134759   1.832   2.513  11.758 -0.3659 -0.6259 -0.7102
 4448TIP3    H234760   1.981   2.530  11.776 -0.4355 -1.4264  0.7279
 4449TIP3   OH234761   1.157   2.425  12.296 -0.2757  0.0353 -0.2932
 4449TIP3    H134762   1.067   2.443  12.321 -0.0811 -0.0284  0.4588
 4449TIP3    H234763   1.198   2.390  12.375  0.8148  1.4984 -0.1802
 4450TIP3   OH234764   7.134   2.663  10.001  0.3459 -0.4510 -0.2165
 4450TIP3    H134765   7.050   2.645   9.959  0.2956  0.0919 -0.3610
 4450TIP3    H234766   7.199   2.650   9.932  0.2980  0.0349 -0.3594
 4451TIP3   OH234767   1.378   1.527  10.719  0.8017  0.5738 -0.1729
 4451TIP3    H134768   1.466   1.555  10.695  0.5618  1.6539  0.1615
 4451TIP3    H234769   1.389   1.480  10.802  1.1388  0.1554 -0.4529
 4452TIP3   OH234770   6.901   3.382  10.815  0.1534 -0.4498 -0.2596
 4452TIP3    H134771   6.968   3.360  10.751 -0.8667  0.0655 -1.5360
 4452TIP3    H234772   6.894   3.477  10.811 -1.0594 -0.5413 -0.5786
 4453TIP3   OH234773   6.409   3.660  11.190 -0.3547 -0.6070  0.3396
 4453TIP3    H134774   6.363   3.601  11.130  2.7112  0.2682 -3.0326
 4453TIP3    H234775   6.395   3.747  11.153  1.4469 -0.0208  0.9907
 4454TIP3   OH234776   3.530   1.978  15.558  0.1307  0.2792 -0.1325
 4454TIP3    H134777   3.512   2.072  15.564  1.7414  0.5996 -0.0136
 4454TIP3    H234778   3.534   1.949  15.649  1.0105  0.3748 -0.1404
 4455TIP3   OH234779   0.867   2.456  14.611 -0.3977  0.1364  0.3932
 4455TIP3    H134780   0.933   2.478  14.677  2.4496 -2.3309 -1.5055
 4455TIP3    H234781   0.809   2.394  14.654  0.7779 -0.5982  0.9318
 4456TIP3   OH234782   2.248   2.116  15.433  0.1060 -0.7675  0.3862
 4456TIP3    H134783   2.197   2.118  15.352 -0.4567  1.4916  0.7614
 4456TIP3    H234784   2.184   2.134  15.502  0.6777 -2.1680  1.3016
 4457TIP3   OH234785   6.237   0.337   0.136  0.4018  0.6733 -0.7986
 4457TIP3    H134786   6.159   0.358   0.083 -1.2263 -0.0573  1.2580
 4457TIP3    H234787   6.228   0.245   0.157  1.1586  0.8949  0.5501
 4458TIP3   OH234788   2.208   2.752  11.680  0.0808 -0.3304  0.2273
 4458TIP3    H134789   2.245   2.760  11.592 -0.7315 -1.6296 -0.2420
 4458TIP3    H234790   2.271   2.796  11.736  1.3642 -0.7975 -0.8142
 4459TIP3   OH234791   3.340   0.623  12.507 -0.1077  0.2555 -0.7351
 4459TIP3    H134792   3.258   0.651  12.466 -0.4397  1.3391  0.6574
 4459TIP3    H234793   3.326   0.529  12.525 -0.6062  0.1726 -1.5393
 4460TIP3   OH234794   4.678   6.090  11.160 -0.6440 -0.4541  0.2722
 4460TIP3    H134795   4.593   6.056  11.132 -0.8762  0.6935 -0.4616
 4460TIP3    H234796   4.663   6.121  11.249 -0.6543 -1.4814  0.6248
 4461TIP3   OH234797   3.910   3.291  10.905 -0.3063 -0.0088  0.0387
 4461TIP3    H134798   3.962   3.213  10.922  0.3016  0.6574  1.2824
 4461TIP3    H234799   3.827   3.257  10.870  1.0747 -1.0425 -2.3364
 4462TIP3   OH234800   0.276   4.105   9.673 -0.2894 -0.0872  0.2097
 4462TIP3    H134801   0.282   4.028   9.616 -1.4986 -0.6846  0.8563
 4462TIP3    H234802   0.277   4.068   9.762 -1.9214  0.5378  0.5154
 4463TIP3   OH234803   4.798   5.884  12.851 -0.9890 -0.1655 -0.0060
 4463TIP3    H134804   4.809   5.972  12.816 -0.9174 -1.0120 -2.1893
 4463TIP3    H234805   4.823   5.891  12.943  1.9147  1.4908 -0.8537
 4464TIP3   OH234806   4.307   0.005  13.699 -0.1804  0.3870 -0.6375
 4464TIP3    H134807   4.393   0.027  13.664 -0.3343  1.1619 -0.5242
 4464TIP3    H234808   4.252   0.080  13.677 -0.9360 -0.2962 -1.1012
 4465TIP3   OH234809   4.273   3.825  13.334  0.3056 -0.5695  0.6732
 4465TIP3    H134810   4.246   3.907  13.375 -0.3720 -0.3255 -0.2461
 4465TIP3    H234811   4.310   3.851  13.249 -0.0906 -1.2226  0.2946
 4466TIP3   OH234812   4.133   1.750  10.992 -0.0325 -0.1743  0.3554
 4466TIP3    H134813   4.108   1.661  11.016 -0.4724 -0.1810 -0.1110
 4466TIP3    H234814   4.212   1.740  10.940  1.5155 -0.0899  2.6239
 4467TIP3   OH234815   2.461   1.401   9.863 -0.4024  0.2910 -0.5092
 4467TIP3    H134816   2.412   1.324   9.892  1.5078 -0.0396  2.0492
 4467TIP3    H234817   2.405   1.475   9.883 -1.2997 -0.2704 -0.8886
 4468TIP3   OH234818   4.294   1.632   1.940  0.1227  0.4218 -0.1992
 4468TIP3    H134819   4.375   1.593   1.909  0.7053  1.1674  0.3777
 4468TIP3    H234820   4.229   1.562   1.930  0.9598 -0.3900 -0.0419
 4469TIP3   OH234821   0.270   1.516   0.936 -0.0632 -0.1095  0.4783
 4469TIP3    H134822   0.299   1.433   0.974 -2.6628 -1.2831 -0.0180
 4469TIP3    H234823   0.301   1.582   0.998  2.5259 -1.3672  0.6026
 4470TIP3   OH234824   4.088   2.931   0.638 -0.0004 -0.1902  0.8304
 4470TIP3    H134825   4.070   3.017   0.674 -1.7132 -0.3265  0.3779
 4470TIP3    H234826   4.002   2.898   0.611  0.9332 -0.9982 -1.3264
 4471TIP3   OH234827   3.832   2.026  10.244  0.1253  0.5650  0.3420
 4471TIP3    H134828   3.853   2.018  10.151  0.8612 -0.5328  0.5971
 4471TIP3    H234829   3.802   2.117  10.254  0.0953  0.7023 -0.9490
 4472TIP3   OH234830   4.239   3.095  11.741  0.4549 -0.6063  0.2411
 4472TIP3    H134831   4.299   3.144  11.797  0.3443 -0.5087  0.2748
 4472TIP3    H234832   4.263   3.003  11.754  0.0663 -0.6205  0.8731
 4473TIP3   OH234833   2.229   4.937  12.769 -0.0893  0.3716 -0.2981
 4473TIP3    H134834   2.278   4.989  12.705 -0.2290  2.2465  1.1044
 4473TIP3    H234835   2.138   4.945  12.741 -0.1874  1.4706  0.3112
 4474TIP3   OH234836   2.224   2.606  11.335 -0.7299 -0.5491  0.1361
 4474TIP3    H134837   2.257   2.565  11.256 -0.4084  0.6639 -0.3670
 4474TIP3    H234838   2.152   2.550  11.363  0.3024 -1.9553 -0.0148
 4475TIP3   OH234839   3.048   3.848  13.267 -0.3428  0.8636  0.3757
 4475TIP3    H134840   2.957   3.856  13.295 -0.3827  1.2799  0.1349
 4475TIP3    H234841   3.043   3.831  13.173 -0.2282 -1.2256  0.7374
 4476TIP3   OH234842   4.053   4.356  10.523 -0.2885  0.2483  0.0276
 4476TIP3    H134843   4.098   4.388  10.445  0.4790  1.5352  0.9623
 4476TIP3    H234844   3.967   4.328  10.492  0.3417 -0.1045 -1.4176
 4477TIP3   OH234845   6.185   4.054  13.342 -0.0029  0.0440  0.2459
 4477TIP3    H134846   6.119   4.008  13.394  0.6581 -1.1112  0.0869
 4477TIP3    H234847   6.268   4.010  13.363  0.6069  0.9679 -0.1445
 4478TIP3   OH234848   3.337   6.040  13.137  0.0423 -0.4401 -0.1952
 4478TIP3    H134849   3.279   5.970  13.106 -1.4201  1.1530 -1.1365
 4478TIP3    H234850   3.349   6.021  13.230  0.2006 -2.2998 -0.5707
 4479TIP3   OH234851   6.971   1.825  10.881  0.3516  0.5827 -0.0986
 4479TIP3    H134852   6.959   1.870  10.797  1.3612  1.3946  0.1914
 4479TIP3    H234853   7.009   1.740  10.856  1.5446  1.1979 -0.3939
 4480TIP3   OH234854   4.976   3.887  10.516  0.8695 -0.0428 -0.1943
 4480TIP3    H134855   4.948   3.979  10.511  0.6466  0.0082  1.6693
 4480TIP3    H234856   5.047   3.887  10.579 -0.1985 -1.4108  1.0357
 4481TIP3   OH234857   0.074   2.714  15.098  0.0225 -0.2578 -0.4856
 4481TIP3    H134858   0.084   2.658  15.021 -1.3957 -0.4543 -0.5324
 4481TIP3    H234859   0.036   2.656  15.164 -2.3293  0.8433 -0.8133
 4482TIP3   OH234860   3.894   1.414  12.737  0.0968  0.0205 -0.9463
 4482TIP3    H134861   3.876   1.507  12.750  1.2660  0.5522 -2.8682
 4482TIP3    H234862   3.839   1.388  12.663 -2.1064 -1.4713  1.1641
 4483TIP3   OH234863   2.795   0.332  12.564 -0.3451  0.0228 -0.2679
 4483TIP3    H134864   2.790   0.304  12.473  0.1921 -2.1650  0.3492
 4483TIP3    H234865   2.846   0.413  12.561  0.8805 -0.7790 -1.7689
 4484TIP3   OH234866   6.702   2.594  11.922 -0.0578 -0.0298  0.1949
 4484TIP3    H134867   6.668   2.562  12.006 -0.1520  0.0436  0.1841
 4484TIP3    H234868   6.732   2.515  11.877  2.0908  0.1525  1.2276
 4485TIP3   OH234869   0.597   4.302  12.219  0.0325 -0.6678  0.0873
 4485TIP3    H134870   0.527   4.342  12.169 -0.4805 -2.6752 -0.8628
 4485TIP3    H234871   0.560   4.290  12.307 -1.2320 -2.6921 -0.6885
 4486TIP3   OH234872   4.413   1.352  11.268  0.0160 -0.7302  0.1912
 4486TIP3    H134873   4.320   1.353  11.247 -0.0890  0.7636  0.6819
 4486TIP3    H234874   4.448   1.278  11.218 -0.8990  0.4253 -2.2316
 4487TIP3   OH234875   3.968   0.055  12.433 -0.4777 -0.2027 -0.1053
 4487TIP3    H134876   3.886   0.068  12.384  0.2307  2.4984 -0.6418
 4487TIP3    H234877   3.984   0.139  12.476  2.9455 -0.1065 -1.4230
 4488TIP3   OH234878   5.174   6.590  12.174  0.5168 -0.0806 -0.0490
 4488TIP3    H134879   5.104   6.527  12.191 -0.6731  0.6226 -2.2057
 4488TIP3    H234880   5.153   6.664  12.231 -0.0557 -0.1992 -0.1042
 4489TIP3   OH234881   6.547   2.492  12.825 -0.0468  0.2809  0.4248
 4489TIP3    H134882   6.618   2.429  12.834 -1.5810 -1.4969  0.3404
 4489TIP3    H234883   6.532   2.498  12.731  0.5263  1.3097  0.3824
 4490TIP3   OH234884   5.650   1.438  11.752  0.1548 -0.3013 -0.4363
 4490TIP3    H134885   5.640   1.494  11.674  1.3878  0.4348 -0.0754
 4490TIP3    H234886   5.665   1.351  11.717  0.2065 -0.0613 -1.0246
 4491TIP3   OH234887   2.257   4.146  12.008 -0.4006  0.1433 -0.2412
 4491TIP3    H134888   2.231   4.130  12.098  1.4539  0.7731  0.4199
 4491TIP3    H234889   2.299   4.065  11.980  1.2966  0.8050  0.3115
 4492TIP3   OH234890   0.249   0.770  13.056  0.2346 -0.8094  0.3374
 4492TIP3    H134891   0.311   0.752  13.127  1.1957  1.1993  0.0737
 4492TIP3    H234892   0.164   0.778  13.100  0.4900 -1.6254  0.9853
 4493TIP3   OH234893   5.890   2.822  10.348  0.8132  0.4714 -0.3077
 4493TIP3    H134894   5.879   2.873  10.428  1.3255 -0.4647  0.3711
 4493TIP3    H234895   5.950   2.874  10.294 -0.2570  1.5430 -0.4739
 4494TIP3   OH234896   3.540   3.547   2.643  0.0027  0.2428  0.1371
 4494TIP3    H134897   3.558   3.620   2.583 -1.2907  0.0239 -0.5399
 4494TIP3    H234898   3.551   3.585   2.731 -1.0543  1.3680 -0.2080
 4495TIP3   OH234899   0.008   1.181  14.288 -0.4660  0.1005 -0.4801
 4495TIP3    H134900   0.002   1.101  14.341  1.4836  0.0614 -0.2499
 4495TIP3    H234901   0.027   1.250  14.351  0.0393  0.3668 -0.9153
 4496TIP3   OH234902   4.232   4.276   4.058  0.6634  0.6327  0.1487
 4496TIP3    H134903   4.258   4.294   3.968  2.6111  0.6543  0.6846
 4496TIP3    H234904   4.137   4.277   4.056  0.6488  3.9951 -1.2695
 4497TIP3   OH234905   4.365   3.910  14.993  0.1669  0.2155 -0.4199
 4497TIP3    H134906   4.383   3.820  14.968 -2.0788 -0.4586  0.2891
 4497TIP3    H234907   4.411   3.922  15.077  0.1707 -0.3847 -0.3386
 4498TIP3   OH234908   6.923   1.826  12.486 -0.6964  0.2640 -0.5838
 4498TIP3    H134909   6.897   1.839  12.578  1.3307  0.5084 -0.0298
 4498TIP3    H234910   6.908   1.732  12.471  0.2537 -0.0668  0.4345
 4499TIP3   OH234911   3.620   1.079  12.260  0.1776 -0.1790  0.1213
 4499TIP3    H134912   3.580   1.041  12.338 -1.4854  0.4545 -0.3949
 4499TIP3    H234913   3.545   1.108  12.207  1.3239  0.6359 -1.0686
 4500TIP3   OH234914   3.173   2.974  12.976 -1.2879  0.4415  0.9594
 4500TIP3    H134915   3.223   2.895  12.956 -0.5280  1.0756  0.3366
 4500TIP3    H234916   3.105   2.977  12.908 -0.2493  1.2408 -0.0765
 4501TIP3   OH234917   0.007   3.438  11.644  0.0237 -0.0603  0.0389
 4501TIP3    H134918   0.083   3.381  11.632  2.5669  3.2362 -0.1487
 4501TIP3    H234919  -0.026   3.416  11.731  1.8184 -0.8474  0.5421
 4502TIP3   OH234920   1.107   0.658  12.151 -0.0694  0.2736  0.4449
 4502TIP3    H134921   1.200   0.637  12.159 -0.1012  0.1251  0.4388
 4502TIP3    H234922   1.084   0.696  12.236 -0.2303 -0.6023  0.8048
 4503TIP3   OH234923   3.624   5.775  14.342  0.2026  0.3432 -0.4303
 4503TIP3    H134924   3.565   5.700  14.339  0.8846 -0.1547 -2.0174
 4503TIP3    H234925   3.580   5.838  14.398 -0.1684 -1.4237  1.3274
 4504TIP3   OH234926   2.861   1.701  13.361 -0.7411 -0.5560  0.0099
 4504TIP3    H134927   2.801   1.690  13.435  0.0634 -0.5868  0.6691
 4504TIP3    H234928   2.948   1.695  13.400 -0.3071 -0.2447 -0.8977
 4505TIP3   OH234929   6.116   1.365  12.318  0.3947  0.1655  0.1020
 4505TIP3    H134930   6.110   1.333  12.228 -1.4698 -1.6933  0.8417
 4505TIP3    H234931   6.152   1.291  12.367  1.2041  1.0992  0.9250
 4506TIP3   OH234932   4.777   2.453   0.573  0.6672  0.1246  0.3855
 4506TIP3    H134933   4.760   2.528   0.516  0.1753 -0.0961  0.2402
 4506TIP3    H234934   4.793   2.492   0.659 -2.2623  0.2683  0.9087
 4507TIP3   OH234935   4.982   2.564  11.089 -0.5416  0.2346  0.0765
 4507TIP3    H134936   4.995   2.497  11.156 -1.5066 -1.9724 -1.8645
 4507TIP3    H234937   5.067   2.570  11.045 -0.6420 -0.2179 -0.1830
 4508TIP3   OH234938   4.311   2.053  14.374  0.3240  0.4040  0.1880
 4508TIP3    H134939   4.295   2.088  14.287 -1.0578 -1.0142 -0.1474
 4508TIP3    H234940   4.276   2.118  14.434 -1.4727 -0.0169 -0.3986
 4509TIP3   OH234941   2.312   0.339  12.001  0.2149 -0.0932 -0.3556
 4509TIP3    H134942   2.373   0.411  11.986  1.3488 -1.4670 -2.3934
 4509TIP3    H234943   2.339   0.302  12.085  1.7450 -0.2743 -0.9284
 4510TIP3   OH234944   4.197   3.322  12.616 -0.3554 -0.3731  0.2798
 4510TIP3    H134945   4.259   3.250  12.628  0.2710 -0.0455 -0.9255
 4510TIP3    H234946   4.120   3.281  12.575 -0.5103 -0.5792  0.7682
 4511TIP3   OH234947   2.060   6.045  13.694 -0.9107 -0.3107  0.0596
 4511TIP3    H134948   1.997   6.116  13.687  0.6688  1.0490 -0.5465
 4511TIP3    H234949   2.141   6.086  13.725  0.7087 -1.3967 -2.4882
 4512TIP3   OH234950   4.343   5.410  12.895 -0.2433  0.9840 -0.4874
 4512TIP3    H134951   4.263   5.425  12.845  0.1011 -0.3764 -1.4822
 4512TIP3    H234952   4.366   5.495  12.930 -3.1202  1.0690  1.3103
 4513TIP3   OH234953   2.715   2.019  13.337 -0.1450  0.2419  0.1307
 4513TIP3    H134954   2.738   2.034  13.246  1.4095 -0.1109  0.4366
 4513TIP3    H234955   2.629   1.976  13.335  0.9419 -1.9707 -1.2930
 4514TIP3   OH234956   4.698   5.925  12.461  0.4545 -0.2469  0.2811
 4514TIP3    H134957   4.671   6.004  12.508  0.4987  0.9304 -1.5851
 4514TIP3    H234958   4.792   5.938  12.446  0.2755 -0.2129 -0.8393
 4515TIP3   OH234959   0.720   4.738  10.215  0.1926 -0.5650  0.8264
 4515TIP3    H134960   0.638   4.692  10.193 -0.5999  0.3822  1.7362
 4515TIP3    H234961   0.705   4.827  10.185  0.8953 -0.3875  1.0222
 4516TIP3   OH234962   2.837   1.095  10.190  0.5148  0.3197  0.0932
 4516TIP3    H134963   2.759   1.040  10.180  0.5740 -0.1895  2.1702
 4516TIP3    H234964   2.807   1.183  10.169 -0.4465  0.0111  0.1356
 4517TIP3   OH234965   5.420   3.829  10.397 -0.1735  0.1709 -0.1558
 4517TIP3    H134966   5.453   3.824  10.487 -0.8538 -1.2067  0.0228
 4517TIP3    H234967   5.490   3.874  10.349  0.8148 -0.3323  0.7774
 4518TIP3   OH234968   2.186   6.424  13.027 -0.4606 -0.1816 -0.4531
 4518TIP3    H134969   2.242   6.398  12.955 -1.7670 -1.7749 -0.9295
 4518TIP3    H234970   2.132   6.494  12.992  1.2784  1.4477  0.0457
 4519TIP3   OH234971   1.928   1.281  10.753 -0.4541 -0.0828  0.8000
 4519TIP3    H134972   2.009   1.254  10.711 -1.0967  0.2966 -0.7070
 4519TIP3    H234973   1.867   1.296  10.681 -1.2769  1.5370  1.8036
 4520TIP3   OH234974   5.665   2.822  10.180  0.5085  0.6096  0.3390
 4520TIP3    H134975   5.718   2.893  10.143  0.1730  1.9057  2.2684
 4520TIP3    H234976   5.722   2.780  10.244  0.2581  0.0120  0.1700
 4521TIP3   OH234977   1.541   2.672   3.100 -1.1360  0.1260  0.1385
 4521TIP3    H134978   1.584   2.607   3.044 -1.3685  0.4521 -0.4202
 4521TIP3    H234979   1.538   2.631   3.186 -0.2199 -0.1330  0.0536
 4522TIP3   OH234980   3.175   4.761   0.729 -0.1456  0.5008 -0.4414
 4522TIP3    H134981   3.229   4.821   0.780  1.0278 -0.6534 -0.2984
 4522TIP3    H234982   3.154   4.691   0.790  0.5744 -0.4725 -1.2951
 4523TIP3   OH234983   0.347   4.612  12.503 -0.1964 -0.1143  0.7839
 4523TIP3    H134984   0.363   4.527  12.462 -1.8139 -0.4390  0.7657
 4523TIP3    H234985   0.421   4.625  12.563 -0.5807 -2.1402  1.7411
 4524TIP3   OH234986   6.855   2.050  11.670 -0.0727  0.6796 -0.3170
 4524TIP3    H134987   6.838   1.988  11.741 -1.4379 -1.3651 -2.3437
 4524TIP3    H234988   6.918   2.112  11.706  0.0722 -0.9302  2.3061
 4525TIP3   OH234989   6.002   2.709  14.495 -0.0154 -0.3601 -0.3389
 4525TIP3    H134990   5.982   2.783  14.438  0.6931  0.9344  1.0387
 4525TIP3    H234991   5.951   2.725  14.575 -0.7713 -1.9833 -0.4632
 4526TIP3   OH234992   5.183   3.795  13.487  0.1553  0.0327  0.0716
 4526TIP3    H134993   5.182   3.710  13.443 -0.5072 -0.0909  0.3167
 4526TIP3    H234994   5.236   3.780  13.566  0.2241 -0.1009  0.0010
 4527TIP3   OH234995   6.428   3.049  14.376  0.2869 -0.6223 -0.3083
 4527TIP3    H134996   6.523   3.058  14.382  0.4000 -1.3862 -0.8230
 4527TIP3    H234997   6.409   2.972  14.430  0.1595 -1.4648 -1.5281
 4528TIP3   OH234998   6.777   6.188  12.069 -0.1915  0.1568 -0.1793
 4528TIP3    H134999   6.686   6.215  12.055  0.2133  1.2676 -0.7281
 4528TIP3    H235000   6.826   6.235  12.002  0.4534 -2.5643 -1.6903
 4529TIP3   OH235001   5.911   0.905  11.844  0.4795 -0.1715  0.0824
 4529TIP3    H135002   5.965   0.889  11.922  0.3723  0.5057  0.2949
 4529TIP3    H235003   5.961   0.866  11.772 -0.0570 -2.0206  0.6804
 4530TIP3   OH235004   4.450   0.384  15.074 -0.0972 -0.2614  0.0039
 4530TIP3    H135005   4.545   0.373  15.076  0.0580  1.0702  0.2489
 4530TIP3    H235006   4.417   0.311  15.127  0.9758  1.2601  2.8560
 4531TIP3   OH235007   5.739   1.985  11.259 -0.2928  0.1026  0.1279
 4531TIP3    H135008   5.646   2.005  11.270 -0.2986  0.1171  0.0494
 4531TIP3    H235009   5.745   1.948  11.171 -0.2087  0.1977  0.0932
 4532TIP3   OH235010   3.656   6.564  11.298 -0.3958 -0.1761 -0.0181
 4532TIP3    H135011   3.623   6.477  11.275  2.1865 -1.1637 -0.1702
 4532TIP3    H235012   3.716   6.587  11.228 -0.2363  1.2828  0.5635
 4533TIP3   OH235013   5.794   0.282  12.004 -0.2091 -0.1280  0.0059
 4533TIP3    H135014   5.845   0.251  11.929  0.5791 -2.6456  1.5076
 4533TIP3    H235015   5.786   0.376  11.991  3.4218  0.0856 -1.1482
 4534TIP3   OH235016   6.245   2.898   2.783 -0.5878 -0.0724  0.2036
 4534TIP3    H135017   6.292   2.938   2.710 -0.4861  1.5639  1.1356
 4534TIP3    H235018   6.181   2.840   2.741  0.4943 -0.3232 -1.1347
 4535TIP3   OH235019   3.953   6.828  13.368 -0.3023 -0.1500 -0.2760
 4535TIP3    H135020   4.024   6.776  13.330 -0.8446 -0.9105 -0.2541
 4535TIP3    H235021   3.898   6.853  13.294  0.1196  0.6571 -0.3286
 4536TIP3   OH235022   0.728   2.191  13.596  0.1192  0.1442 -0.1184
 4536TIP3    H135023   0.695   2.110  13.634 -0.8021  0.3122 -0.5496
 4536TIP3    H235024   0.824   2.181  13.598  0.0359 -0.5643  0.6487
 4537TIP3   OH235025   2.371   3.904  13.805 -0.2998 -0.8949 -0.0344
 4537TIP3    H135026   2.429   3.831  13.784  0.5050 -0.2385 -0.1598
 4537TIP3    H235027   2.283   3.867  13.806 -0.1879 -1.3188 -2.8004
 4538TIP3   OH235028   4.391   1.522  12.729 -0.2187 -0.1298  0.0807
 4538TIP3    H135029   4.402   1.473  12.647  0.7762  0.6476 -0.2546
 4538TIP3    H235030   4.350   1.459  12.789 -0.2895 -0.9253 -0.7926
 4539TIP3   OH235031   3.161   0.495  11.314  0.1374 -0.3669  0.4691
 4539TIP3    H135032   3.254   0.512  11.326  0.0118 -0.5788  1.8585
 4539TIP3    H235033   3.150   0.403  11.341 -0.3985 -0.4723 -0.1038
 4540TIP3   OH235034   2.900   4.693  11.418 -0.2183  0.3911 -0.2020
 4540TIP3    H135035   2.967   4.757  11.443  0.3968  0.1184 -1.1501
 4540TIP3    H235036   2.821   4.723  11.463  0.5039  0.7888  0.8243
 4541TIP3   OH235037   2.765   1.372  12.131  0.0042  0.3222  1.0092
 4541TIP3    H135038   2.744   1.394  12.041  1.9732  2.9330  1.1259
 4541TIP3    H235039   2.770   1.277  12.132 -0.9797  0.2089 -1.3864
 4542TIP3   OH235040   3.463   4.170  11.077  0.4677 -1.1024  0.2430
 4542TIP3    H135041   3.528   4.125  11.132  2.2594  0.5121 -0.5254
 4542TIP3    H235042   3.506   4.180  10.992 -1.1163 -0.7609 -0.5343
 4543TIP3   OH235043   7.043   2.728  14.102  0.1837  0.4027 -0.1605
 4543TIP3    H135044   7.000   2.794  14.156 -0.5443 -0.8249  0.8018
 4543TIP3    H235045   6.974   2.664  14.085  1.0198 -0.3782 -0.6100
 4544TIP3   OH235046   5.866   5.882  11.089  0.1049  0.7101  0.6050
 4544TIP3    H135047   5.871   5.890  10.993 -0.5598  0.7318  0.5691
 4544TIP3    H235048   5.812   5.957  11.116 -0.5964  0.1077  0.8893
 4545TIP3   OH235049   5.295   3.650  15.220  0.2405 -0.1837  0.2597
 4545TIP3    H135050   5.240   3.609  15.286 -0.3022 -1.0254 -0.6899
 4545TIP3    H235051   5.317   3.579  15.160  3.8029 -0.2460  1.5235
 4546TIP3   OH235052   4.188   0.463  12.600 -0.3544 -0.8524  0.2361
 4546TIP3    H135053   4.249   0.423  12.538  1.5475  0.9737  0.8498
 4546TIP3    H235054   4.219   0.435  12.686  0.8486  1.5966  0.6630
 4547TIP3   OH235055   6.926   0.062  14.038  0.5057 -0.5469 -0.0810
 4547TIP3    H135056   6.948   0.154  14.023 -0.3375 -0.2946  0.2337
 4547TIP3    H235057   6.936   0.051  14.133  0.1761 -0.6740 -0.0647
 4548TIP3   OH235058   4.713   0.747  10.113 -0.0298  0.1563  0.0090
 4548TIP3    H135059   4.711   0.839  10.090 -0.3765  0.5698  1.6345
 4548TIP3    H235060   4.747   0.703  10.035  1.6267  1.8220 -0.2488
 4549TIP3   OH235061   4.545   4.957  11.809 -0.6744 -0.5861  0.2774
 4549TIP3    H135062   4.610   5.023  11.832  0.2092 -0.8037 -1.4481
 4549TIP3    H235063   4.464   5.006  11.797 -0.0195  0.2281 -0.9969
 4550TIP3   OH235064   4.856   0.186  14.723 -0.5064  0.2422  0.0398
 4550TIP3    H135065   4.940   0.158  14.760 -2.0138 -1.6254  2.1804
 4550TIP3    H235066   4.837   0.269  14.766 -0.3032  0.0814  0.4469
 4551TIP3   OH235067   1.954   7.033  10.038 -0.4812  0.1230  0.3250
 4551TIP3    H135068   1.888   7.102  10.049 -0.2286  0.2632  1.0154
 4551TIP3    H235069   1.905   6.957  10.009 -1.1326 -0.1259  2.0088
 4552TIP3   OH235070   3.255   0.149   9.732  0.2763 -0.2721 -0.5899
 4552TIP3    H135071   3.238   0.136   9.825 -0.9249  0.6563 -0.6710
 4552TIP3    H235072   3.249   0.244   9.719 -1.4632 -0.5376 -1.9547
 4553TIP3   OH235073   3.935   3.446   0.819 -0.2668 -0.6961  0.2379
 4553TIP3    H135074   3.853   3.478   0.856 -0.3157 -0.3373 -0.1676
 4553TIP3    H235075   3.991   3.524   0.817 -0.9925 -0.1926 -2.4482
 4554TIP3   OH235076   6.245   5.182  11.460 -0.2652 -0.3640 -0.1634
 4554TIP3    H135077   6.271   5.145  11.544 -1.3586  1.7442  1.1345
 4554TIP3    H235078   6.326   5.212  11.420  0.3698 -2.1812 -0.2798
 4555TIP3   OH235079   0.292   3.825   2.304  0.3686 -0.7446 -0.1837
 4555TIP3    H135080   0.327   3.748   2.259 -0.6811 -1.0502 -0.5057
 4555TIP3    H235081   0.348   3.897   2.276 -0.3040 -0.9163 -2.0699
 4556TIP3   OH235082   3.565   1.301  12.066  0.2873 -0.1475 -0.6679
 4556TIP3    H135083   3.508   1.375  12.047  1.9245  1.9987  2.3549
 4556TIP3    H235084   3.648   1.322  12.023  0.8969  0.0379  0.5692
 4557TIP3   OH235085   5.861   2.477  11.909 -0.2519 -0.2760  0.3207
 4557TIP3    H135086   5.794   2.545  11.904  1.2071  1.1656 -0.1294
 4557TIP3    H235087   5.867   2.444  11.819 -0.1704 -0.2079  0.3014
 4558TIP3   OH235088   4.989   1.990  11.860 -0.5227  0.4552 -0.3842
 4558TIP3    H135089   5.063   1.939  11.893 -0.0084  0.6655 -1.2104
 4558TIP3    H235090   4.951   1.936  11.791 -0.9662  0.4834 -0.1689
 4559TIP3   OH235091   3.497   6.599  10.972 -0.2985  0.1276  0.6152
 4559TIP3    H135092   3.501   6.653  11.051  1.2750 -1.2431  1.5050
 4559TIP3    H235093   3.454   6.519  11.000  2.0505 -1.1785  0.6123
 4560TIP3   OH235094   1.486   1.490   0.267  0.0311 -0.3925 -0.0992
 4560TIP3    H135095   1.477   1.546   0.189  0.6126  0.7934  0.6643
 4560TIP3    H235096   1.544   1.419   0.239 -0.0724 -0.1808 -0.8587
 4561TIP3   OH235097   3.663   5.566  13.729 -0.0785 -0.2363 -0.3257
 4561TIP3    H135098   3.736   5.504  13.728 -0.7978 -1.0866 -1.1855
 4561TIP3    H235099   3.660   5.601  13.639 -0.8382 -0.3469 -0.3487
 4562TIP3   OH235100   3.501   6.817  10.125 -0.3637 -0.2460  0.2073
 4562TIP3    H135101   3.554   6.883  10.080 -0.0082 -1.4779 -1.2278
 4562TIP3    H235102   3.453   6.866  10.191  1.3814  1.1465  0.4901
 4563TIP3   OH235103   5.079   6.868  10.689  0.3044  0.2380  0.4863
 4563TIP3    H135104   5.099   6.785  10.647 -0.2804 -0.5983  1.8209
 4563TIP3    H235105   5.061   6.928  10.616  1.1551 -0.6778 -0.4955
 4564TIP3   OH235106   2.813   2.788   0.356 -0.0678  0.3548 -0.0476
 4564TIP3    H135107   2.896   2.812   0.316  0.5903  0.8323  1.5449
 4564TIP3    H235108   2.792   2.862   0.414 -1.4703  0.1334 -0.2472
 4565TIP3   OH235109   7.101   4.268  10.875  0.5721  0.2911 -0.4980
 4565TIP3    H135110   7.160   4.215  10.929  1.0549 -1.3308 -2.5689
 4565TIP3    H235111   7.128   4.359  10.893  2.1226 -0.3199  0.3880
 4566TIP3   OH235112   5.332   4.618  14.059  0.1571 -0.0500  0.2937
 4566TIP3    H135113   5.382   4.698  14.077 -1.1184  1.0527 -0.8988
 4566TIP3    H235114   5.379   4.577  13.986 -0.6587  1.0091 -0.8569
 4567TIP3   OH235115   6.064   3.790  12.802 -0.0605  0.7811  0.1017
 4567TIP3    H135116   6.158   3.787  12.786  0.0052 -3.1400  0.7734
 4567TIP3    H235117   6.056   3.829  12.889  0.9635  0.7842  0.1995
 4568TIP3   OH235118   0.353   5.648  12.765  0.1534 -0.3405  0.0967
 4568TIP3    H135119   0.431   5.683  12.808  1.0657 -1.0537 -0.9449
 4568TIP3    H235120   0.359   5.554  12.778 -1.2905 -0.2769  1.2347
 4569TIP3   OH235121   4.716   4.026  13.282  0.5280  0.2524  0.5230
 4569TIP3    H135122   4.663   4.022  13.202  1.5030  0.3345 -0.1375
 4569TIP3    H235123   4.751   4.115  13.282  1.6727 -0.1919  0.2906
 4570TIP3   OH235124   3.905   1.028  12.775 -0.0726  0.2380  0.2658
 4570TIP3    H135125   3.870   0.944  12.805 -1.1294  1.0411  1.3274
 4570TIP3    H235126   3.939   1.070  12.854  0.0441  1.0101 -0.1849
 4571TIP3   OH235127   3.701   3.271  13.889 -0.3386 -0.6353  0.0556
 4571TIP3    H135128   3.716   3.311  13.974  1.1570 -0.4840 -0.2641
 4571TIP3    H235129   3.606   3.278  13.875 -0.5362 -0.2853  1.5027
 4572TIP3   OH235130   3.528   4.570  10.557 -0.2873  0.0349  0.0104
 4572TIP3    H135131   3.444   4.614  10.564  0.2968  0.8788  2.0927
 4572TIP3    H235132   3.506   4.478  10.546 -1.4800  0.4034 -0.8372
 4573TIP3   OH235133   7.048   3.626   1.422  0.4742 -0.2040 -0.2161
 4573TIP3    H135134   7.125   3.575   1.401  0.1980 -0.9200  0.4979
 4573TIP3    H235135   7.062   3.657   1.511  0.0332 -0.1589 -0.1576
 4574TIP3   OH235136   7.050   1.835  10.364 -0.0553  0.2941 -1.0548
 4574TIP3    H135137   7.107   1.828  10.287 -2.1929 -0.3599 -2.6094
 4574TIP3    H235138   6.973   1.883  10.334 -1.9979 -2.0461  0.0219
 4575TIP3   OH235139   7.017   4.308  12.792  0.5729 -0.1703  0.2177
 4575TIP3    H135140   7.023   4.389  12.742 -0.0674 -0.7489 -0.8380
 4575TIP3    H235141   6.926   4.305  12.822  0.4444 -0.7383 -0.2026
 4576TIP3   OH235142   5.682   3.867  11.712 -0.1553  0.0230  0.2598
 4576TIP3    H135143   5.718   3.822  11.789  0.5088  0.1963  0.0597
 4576TIP3    H235144   5.680   3.959  11.737  2.3602  0.4051 -0.7679
 4577TIP3   OH235145   3.468   1.413  15.295  0.0644 -0.5044 -0.3909
 4577TIP3    H135146   3.521   1.452  15.364  0.1875  1.3519 -1.5286
 4577TIP3    H235147   3.388   1.465  15.294 -0.9045 -1.9396 -0.1486
 4578TIP3   OH235148   4.748   2.326  13.090  0.3160 -0.2435 -0.7515
 4578TIP3    H135149   4.776   2.251  13.142 -0.1019  1.2860  1.7772
 4578TIP3    H235150   4.829   2.371  13.068  0.3279  0.9513  1.5425
 4579TIP3   OH235151   6.926   3.791  13.886  0.1663 -0.3337  0.0284
 4579TIP3    H135152   6.926   3.729  13.813  1.0790 -1.0224  0.5909
 4579TIP3    H235153   7.019   3.800  13.909  0.0159  1.0374  0.1335
 4580TIP3   OH235154   6.432   2.784  11.134  0.0900 -0.0562  0.2055
 4580TIP3    H135155   6.525   2.808  11.143  0.0298  0.3676 -0.2557
 4580TIP3    H235156   6.391   2.863  11.099 -0.4128 -0.3064  0.2380
 4581TIP3   OH235157   4.127   1.498  14.704  0.3155 -0.2452 -0.3189
 4581TIP3    H135158   4.140   1.488  14.609  1.5316  1.2576 -0.3368
 4581TIP3    H235159   4.183   1.432  14.743 -1.3711 -1.9196 -0.6597
 4582TIP3   OH235160   5.635   2.707  12.251 -0.2610  0.0479 -0.3337
 4582TIP3    H135161   5.707   2.691  12.311 -1.4134  1.4909  1.5147
 4582TIP3    H235162   5.673   2.759  12.180  0.7920 -0.3416 -0.0529
 4583TIP3   OH235163   5.636   3.283   1.077 -0.0565 -0.4620  0.2850
 4583TIP3    H135164   5.729   3.263   1.088  0.0625  1.0317  2.2389
 4583TIP3    H235165   5.591   3.201   1.099  0.7366 -0.8114  0.6205
 4584TIP3   OH235166   4.943   5.838  10.117  0.0945 -0.1664 -0.2209
 4584TIP3    H135167   4.971   5.928  10.101 -0.3927  0.0903  0.3335
 4584TIP3    H235168   4.980   5.788  10.045  2.6468  0.0245  0.9065
 4585TIP3   OH235169   5.059   2.170  13.856 -0.4768 -0.3195  0.4114
 4585TIP3    H135170   5.111   2.181  13.777 -1.3342 -1.7523 -0.3910
 4585TIP3    H235171   4.968   2.169  13.825 -0.8468 -0.3621  1.4678
 4586TIP3   OH235172   4.141   4.310   0.205 -0.4270  0.1579  0.5421
 4586TIP3    H135173   4.201   4.351   0.143 -0.1688  1.8816  1.8881
 4586TIP3    H235174   4.179   4.224   0.223  0.5950  0.4780 -0.0841
 4587TIP3   OH235175   5.778   6.678  10.826  0.0775 -0.3655 -0.4583
 4587TIP3    H135176   5.712   6.620  10.789  0.4326 -0.3839 -1.0610
 4587TIP3    H235177   5.857   6.659  10.776  0.9170 -1.3567  1.1816
 4588TIP3   OH235178   0.269   4.009  13.337 -0.1845  0.1406  0.4225
 4588TIP3    H135179   0.325   4.023  13.413  0.9115  0.0922 -0.3785
 4588TIP3    H235180   0.287   3.918  13.311 -2.8697 -0.9307  1.9829
 4589TIP3   OH235181   3.643   4.587  11.971  0.8744 -0.2312 -0.1071
 4589TIP3    H135182   3.693   4.663  11.943  0.7125  1.5886  4.1923
 4589TIP3    H235183   3.695   4.549  12.042 -1.8685 -0.6251  1.7773
 4590TIP3   OH235184   2.979   1.543  10.088 -0.0872  0.2930  0.0591
 4590TIP3    H135185   3.036   1.599  10.140  1.9748 -1.2019 -0.4989
 4590TIP3    H235186   2.972   1.462  10.138  0.2670 -0.4203 -1.0172
 4591TIP3   OH235187   3.579   1.017  13.611  0.1295  0.3340 -0.3367
 4591TIP3    H135188   3.590   0.929  13.647  1.3313  0.1479 -1.1445
 4591TIP3    H235189   3.641   1.071  13.660  0.5303  0.4169 -0.9259
 4592TIP3   OH235190   3.728   1.551  10.356 -0.5331 -0.1577  0.6713
 4592TIP3    H135191   3.791   1.500  10.408  0.0676 -0.8376 -0.6847
 4592TIP3    H235192   3.765   1.550  10.268 -1.0300  1.8355  0.4397
 4593TIP3   OH235193   4.972   5.384  12.449 -0.6119  0.1043 -0.5251
 4593TIP3    H135194   4.895   5.360  12.501 -2.1616  2.4226 -1.6650
 4593TIP3    H235195   5.044   5.386  12.512 -1.8759 -0.0313  0.9596
 4594TIP3   OH235196   5.986   2.617  14.089 -0.3510  0.0062 -0.0938
 4594TIP3    H135197   6.047   2.673  14.138 -0.2638 -0.9878  0.9538
 4594TIP3    H235198   6.024   2.611  14.002  0.0381  0.9649 -0.0048
 4595TIP3   OH235199   4.344   1.798  10.659  0.1337 -0.2584 -0.4343
 4595TIP3    H135200   4.412   1.738  10.627  0.3733 -0.5105  0.5225
 4595TIP3    H235201   4.301   1.750  10.730  1.3691  1.2785  1.4104
 4596TIP3   OH235202   1.222   1.387  11.770  0.9523 -0.3079  0.1084
 4596TIP3    H135203   1.184   1.473  11.756 -1.4873 -1.1270  1.3740
 4596TIP3    H235204   1.176   1.353  11.847  2.6443 -2.3028  0.2836
 4597TIP3   OH235205   6.442   5.424  11.774 -0.2498 -0.6002 -0.0331
 4597TIP3    H135206   6.354   5.435  11.811 -0.4708 -0.7463 -0.5026
 4597TIP3    H235207   6.436   5.462  11.686  0.5806  0.7685  0.4933
 4598TIP3   OH235208   0.615   5.670  12.949  0.1559  0.8739  0.3037
 4598TIP3    H135209   0.679   5.633  13.010  0.7887  0.9534 -0.3036
 4598TIP3    H235210   0.667   5.728  12.893 -0.7995  2.6113  1.1664
 4599TIP3   OH235211   3.113   4.204  14.508 -0.0525  0.0206 -0.3225
 4599TIP3    H135212   3.163   4.206  14.427 -1.0326 -0.5182 -0.9440
 4599TIP3    H235213   3.022   4.213  14.481 -0.4595 -1.0454  0.6462
 4600TIP3   OH235214   3.956   7.003  15.026  0.1912 -0.0446  0.5181
 4600TIP3    H135215   4.013   6.970  15.094 -0.3990 -1.1910  0.4687
 4600TIP3    H235216   3.877   6.948  15.031 -1.3937  2.2357  1.3473
 4601TIP3   OH235217   6.700   4.728  11.440  0.3860  0.1178  0.4554
 4601TIP3    H135218   6.616   4.758  11.476  0.9025  0.4998  1.3421
 4601TIP3    H235219   6.678   4.697  11.352 -0.8180 -0.4662  0.9488
 4602TIP3   OH235220   1.183   3.248  12.173  0.4191  0.1467 -0.6786
 4602TIP3    H135221   1.224   3.263  12.088  0.3777 -1.0190 -0.9151
 4602TIP3    H235222   1.204   3.326  12.224  0.9679  0.5795 -1.5582
 4603TIP3   OH235223   4.476   4.528  12.060 -0.6056 -0.8126  0.6417
 4603TIP3    H135224   4.416   4.519  12.134 -1.6524 -0.5138 -0.1762
 4603TIP3    H235225   4.426   4.574  11.993  0.5323 -0.5542 -0.0430
 4604TIP3   OH235226   2.363   0.080  11.030  0.5416  0.6192  0.0295
 4604TIP3    H135227   2.359   0.067  11.124 -1.7636  2.7472  0.2803
 4604TIP3    H235228   2.427   0.151  11.018  2.1588 -0.8348 -0.1902
 4605TIP3   OH235229   2.348   3.724  12.320  0.4895  0.0119 -0.0097
 4605TIP3    H135230   2.354   3.801  12.376 -1.4640 -0.1646  0.4728
 4605TIP3    H235231   2.342   3.650  12.380 -0.2060 -0.3035 -0.4615
 4606TIP3   OH235232   5.801   1.151  11.886  0.0357 -0.2753  0.5656
 4606TIP3    H135233   5.855   1.073  11.902  0.5293  0.0764  0.6482
 4606TIP3    H235234   5.818   1.208  11.961 -0.2221 -0.0331  0.4419
 4607TIP3   OH235235   0.293   5.544  10.725  0.0254  0.0935 -0.7672
 4607TIP3    H135236   0.347   5.526  10.801 -0.7278 -0.8363 -0.4316
 4607TIP3    H235237   0.345   5.514  10.650 -0.0209 -0.7945 -0.4501
 4608TIP3   OH235238   4.289   1.745  14.725  0.5759 -0.0804 -0.3185
 4608TIP3    H135239   4.246   1.660  14.735  0.1093  0.0653 -1.0871
 4608TIP3    H235240   4.271   1.790  14.808  1.2435 -0.9145  0.2897
 4609TIP3   OH235241   5.160   0.093  11.533  0.0878 -0.2806 -0.6804
 4609TIP3    H135242   5.194   0.149  11.603 -0.2377  0.2995 -0.9828
 4609TIP3    H235243   5.225   0.099  11.463  0.5518 -1.0800 -0.3295
 4610TIP3   OH235244   4.746   0.494   1.881 -0.4262 -0.3109  0.4172
 4610TIP3    H135245   4.676   0.497   1.946 -1.1182  2.0035 -0.3857
 4610TIP3    H235246   4.703   0.517   1.799  1.4494  2.2708  0.0942
 4611TIP3   OH235247   3.406   5.384  13.650 -0.4412  0.3064 -0.0166
 4611TIP3    H135248   3.320   5.414  13.680  0.6935  1.6563  1.9809
 4611TIP3    H235249   3.418   5.427  13.566 -0.9936  1.4450  0.4789
 4612TIP3   OH235250   2.241   3.552  10.879 -0.1282  0.2627  0.5861
 4612TIP3    H135251   2.276   3.467  10.905  0.7159 -0.1770 -1.8931
 4612TIP3    H235252   2.146   3.544  10.894 -0.4090 -2.0553 -1.9319
 4613TIP3   OH235253   4.398   1.533   9.955 -0.6693  0.3124  0.2472
 4613TIP3    H135254   4.437   1.621   9.951 -1.0215  0.4271 -0.8770
 4613TIP3    H235255   4.404   1.500   9.866  0.1326 -1.1177  0.8132
 4614TIP3   OH235256   0.690   2.443  15.227  0.6895  0.0878 -0.8354
 4614TIP3    H135257   0.783   2.464  15.237  0.6743  0.1462 -0.8131
 4614TIP3    H235258   0.689   2.359  15.183  0.8055 -1.2873  1.7130
 4615TIP3   OH235259   5.377   2.083  10.408  0.3456 -0.7374 -0.1893
 4615TIP3    H135260   5.386   2.152  10.343  0.3327  1.2827  1.9028
 4615TIP3    H235261   5.294   2.102  10.453  0.9042 -1.4119  1.1859
 4616TIP3   OH235262   1.032   4.357  15.156  0.2174 -0.1171  0.0841
 4616TIP3    H135263   1.091   4.284  15.175  1.5806  0.6546 -1.0910
 4616TIP3    H235264   1.015   4.351  15.062 -2.4457 -0.9304  0.5662
 4617TIP3   OH235265   2.529   0.355  15.104 -0.1806  0.2363 -0.3425
 4617TIP3    H135266   2.588   0.344  15.029 -0.0327  0.1418 -0.2125
 4617TIP3    H235267   2.449   0.311  15.078 -0.0128 -0.0850 -0.3120
 4618TIP3   OH235268   3.552   2.080   9.841  0.2778 -0.1434  0.1493
 4618TIP3    H135269   3.614   2.067   9.769  0.0844  0.1510 -0.0729
 4618TIP3    H235270   3.519   1.992   9.860  0.6772 -0.2824  0.1901
 4619TIP3   OH235271   2.183   3.848  13.413  0.2421  0.0325 -0.0152
 4619TIP3    H135272   2.163   3.911  13.482 -0.8176 -1.1774  0.8037
 4619TIP3    H235273   2.119   3.867  13.344 -1.2229 -1.2385  0.9492
 4620TIP3   OH235274   2.893   6.462  14.766 -0.6631 -0.2072  0.0294
 4620TIP3    H135275   2.868   6.454  14.674 -0.4453 -0.8475  0.0209
 4620TIP3    H235276   2.984   6.491  14.763 -0.6471 -0.2557  0.0414
 4621TIP3   OH235277   3.730   3.289   9.743 -0.2128  0.4925 -0.3427
 4621TIP3    H135278   3.775   3.207   9.722 -0.8001  0.5417 -1.8845
 4621TIP3    H235279   3.638   3.263   9.755 -0.6588  1.1054 -2.2491
 4622TIP3   OH235280   3.765   4.666  13.072 -0.4960 -0.0006  0.3214
 4622TIP3    H135281   3.726   4.595  13.021 -0.3374 -0.2638  0.5635
 4622TIP3    H235282   3.690   4.712  13.109 -0.6332  0.5843 -0.6744
 4623TIP3   OH235283   5.336   0.244  14.787  0.7301 -0.1593  0.1083
 4623TIP3    H135284   5.246   0.269  14.763  1.3087  3.5937  1.4949
 4623TIP3    H235285   5.391   0.288  14.723  1.7070  0.2355  1.1942
 4624TIP3   OH235286   0.171   0.770   9.741  0.3558  0.2943  0.1912
 4624TIP3    H135287   0.245   0.746   9.797  1.8459  0.8520 -1.4690
 4624TIP3    H235288   0.101   0.710   9.766  0.1173  2.1587  4.3948
 4625TIP3   OH235289   0.084   4.548  12.585 -0.0454 -0.5248  0.2389
 4625TIP3    H135290   0.035   4.630  12.577 -0.8786 -0.9872  0.4901
 4625TIP3    H235291   0.174   4.572  12.564 -0.3422  0.3823 -0.0498
 4626TIP3   OH235292   0.391   6.028  10.707  0.6129  0.1293  0.5448
 4626TIP3    H135293   0.480   6.060  10.698  0.3005  1.0340  0.5862
 4626TIP3    H235294   0.367   6.050  10.798  0.6714 -0.9496  0.8303
 4627TIP3   OH235295   4.675   3.708  15.193 -0.1755 -0.0477  0.2450
 4627TIP3    H135296   4.601   3.656  15.224 -1.5771  0.8326 -1.5750
 4627TIP3    H235297   4.750   3.649  15.202 -0.9517 -0.7133  2.7681
 4628TIP3   OH235298   4.350   5.304  10.559  0.2635 -0.8582  0.3351
 4628TIP3    H135299   4.385   5.332  10.474  2.5648 -1.1779  1.1293
 4628TIP3    H235300   4.262   5.343  10.563 -0.2714 -1.6815 -2.5898
 4629TIP3   OH235301   4.396   2.538  15.446  0.1212  0.0525 -0.0559
 4629TIP3    H135302   4.324   2.597  15.424  0.7585  0.5547 -0.8279
 4629TIP3    H235303   4.473   2.595  15.449  0.5729 -0.5733  0.1960
 4630TIP3   OH235304   6.027   4.016  15.393  0.0867  0.6174  0.1273
 4630TIP3    H135305   6.016   4.029  15.299  0.6555  2.2894  0.2725
 4630TIP3    H235306   5.939   4.028  15.429 -0.1894 -0.3328 -0.2088
 4631TIP3   OH235307   1.070   6.012  10.959  0.7951 -0.7416  0.3545
 4631TIP3    H135308   1.123   5.932  10.953  2.3275  0.2003  1.0184
 4631TIP3    H235309   1.130   6.083  10.935 -1.0181  0.0799 -2.0506
 4632TIP3   OH235310   6.689   4.768  12.179  0.3763 -0.0971 -0.2990
 4632TIP3    H135311   6.741   4.754  12.100 -0.2008  0.7252 -0.8408
 4632TIP3    H235312   6.697   4.862  12.196 -1.0713  0.0777 -0.4946
 4633TIP3   OH235313   6.899   3.955   0.036 -0.1502  0.1676 -0.0287
 4633TIP3    H135314   6.851   4.013   0.094  1.2091  0.4480  0.8329
 4633TIP3    H235315   6.877   3.867   0.066  0.3926  0.3087  0.7888
 4634TIP3   OH235316   0.255   3.310  10.258  0.0912 -0.4443 -0.0852
 4634TIP3    H135317   0.258   3.214  10.260  0.0517 -0.4408  0.2197
 4634TIP3    H235318   0.263   3.332  10.165 -1.7338 -0.8068 -0.3427
 4635TIP3   OH235319   0.889   2.669   9.607  0.6228  0.8076 -0.1453
 4635TIP3    H135320   0.810   2.684   9.555  0.7661 -0.0062 -0.5993
 4635TIP3    H235321   0.897   2.747   9.662 -1.1029  0.4292  0.6787
 4636TIP3   OH235322   6.478   3.405  10.576 -0.3878 -0.3079  0.1255
 4636TIP3    H135323   6.533   3.479  10.551 -0.4528 -0.4188 -0.3706
 4636TIP3    H235324   6.398   3.417  10.524 -0.0960 -1.1212 -0.5250
 4637TIP3   OH235325   1.199   2.037  14.382 -0.0417  0.6115 -0.2536
 4637TIP3    H135326   1.133   1.981  14.342  1.0381 -1.4110  0.7530
 4637TIP3    H235327   1.244   1.981  14.445  1.2970  2.5122  0.5367
 4638TIP3   OH235328   6.307   7.084  13.130 -0.6544 -0.5118  0.2387
 4638TIP3    H135329   6.329   7.159  13.185 -1.7528 -0.2318  0.3056
 4638TIP3    H235330   6.269   7.123  13.051  0.3275 -0.9363 -0.4482
 4639TIP3   OH235331   0.026   2.269   9.712 -0.1753 -0.4013  0.1470
 4639TIP3    H135332   0.031   2.177   9.740 -0.4853 -0.0503  1.3582
 4639TIP3    H235333   0.104   2.309   9.750 -1.0340  0.2649  1.2423
 4640TIP3   OH235334   6.731   3.184  13.843 -0.0972  0.1665  0.5511
 4640TIP3    H135335   6.806   3.143  13.886  0.4522  1.3092  0.7137
 4640TIP3    H235336   6.767   3.263  13.802 -0.9522 -0.0066 -0.5441
 4641TIP3   OH235337   2.957   6.139  10.678 -0.1024  0.2733  0.2899
 4641TIP3    H135338   2.875   6.089  10.677  0.2116 -0.2770  1.0646
 4641TIP3    H235339   2.936   6.221  10.633 -0.3235 -1.0018 -2.0173
 4642TIP3   OH235340   1.645   0.572  13.680  0.0121 -0.1772 -0.1805
 4642TIP3    H135341   1.624   0.650  13.627 -0.3723  0.2241  0.5485
 4642TIP3    H235342   1.563   0.551  13.724  1.1238  1.5014  2.8414
 4643TIP3   OH235343   2.871   1.481  10.741 -0.7852  0.1837 -0.4495
 4643TIP3    H135344   2.844   1.554  10.686  1.2385  1.5865  0.3402
 4643TIP3    H235345   2.822   1.406  10.708 -1.8310  1.6039 -2.2034
 4644TIP3   OH235346   5.432   1.100  12.017  0.1947 -0.1931  0.1217
 4644TIP3    H135347   5.465   1.134  11.934 -0.0850 -0.4450 -0.0911
 4644TIP3    H235348   5.433   1.005  12.006  1.2636 -0.2677  0.8311
 4645TIP3   OH235349   1.505   3.786  13.340  0.1012 -0.2734  0.3597
 4645TIP3    H135350   1.527   3.877  13.319 -0.1891 -0.1920  0.4063
 4645TIP3    H235351   1.494   3.786  13.435  0.1833 -0.3749  0.3686
 4646TIP3   OH235352   3.019   3.185  11.435 -0.5566 -0.1559 -0.3237
 4646TIP3    H135353   2.975   3.106  11.466 -0.7536  0.3662  0.7446
 4646TIP3    H235354   3.111   3.158  11.424 -0.5695 -0.4778  0.2907
 4647TIP3   OH235355   6.545   6.814  10.374  0.2351 -0.0471  0.4204
 4647TIP3    H135356   6.574   6.738  10.423 -1.7409 -0.8019  0.4763
 4647TIP3    H235357   6.566   6.889  10.429  0.8899 -0.6606  1.0028
 4648TIP3   OH235358   4.801   2.472  11.584  0.0076 -0.8192 -0.0380
 4648TIP3    H135359   4.862   2.515  11.523  0.0815  0.5525  0.9902
 4648TIP3    H235360   4.719   2.464  11.534  0.1321  0.0986 -0.4000
 4649TIP3   OH235361   6.179   6.026   9.646 -0.4260  0.3122  0.3774
 4649TIP3    H135362   6.189   5.941   9.601 -0.9931 -0.6100  1.9672
 4649TIP3    H235363   6.256   6.076   9.619  0.0794 -0.8168 -0.3324
 4650TIP3   OH235364   5.360   4.293  13.850  0.3592 -0.1129  0.1109
 4650TIP3    H135365   5.417   4.233  13.801  0.8415  1.7968 -1.7215
 4650TIP3    H235366   5.273   4.280  13.811 -0.1143 -1.6473  1.6299
 4651TIP3   OH235367   5.094   1.796  14.910  0.3655  0.6599 -0.5251
 4651TIP3    H135368   5.018   1.850  14.932 -0.3628  0.3319 -2.1885
 4651TIP3    H235369   5.131   1.837  14.832  0.6046 -0.4680 -1.0163
 4652TIP3   OH235370   6.710   0.561  12.417  0.0151 -0.4003  0.3671
 4652TIP3    H135371   6.678   0.614  12.345 -0.0666  1.0336  1.4348
 4652TIP3    H235372   6.786   0.609  12.450  1.2077 -2.0133  0.0404
 4653TIP3   OH235373   2.596   2.399   0.272  0.4289  0.4775  0.0046
 4653TIP3    H135374   2.653   2.378   0.198 -1.7943  0.0225 -1.6175
 4653TIP3    H235375   2.507   2.392   0.237 -0.7132 -0.6219  2.9371
 4654TIP3   OH235376   2.114   5.733  11.420 -0.0421  0.5315  0.2345
 4654TIP3    H135377   2.193   5.786  11.410  0.6191 -0.4594  0.1020
 4654TIP3    H235378   2.147   5.645  11.438 -1.1296  0.2729  0.9624
 4655TIP3   OH235379   2.953   1.032  13.165  0.4003 -0.1206  0.3592
 4655TIP3    H135380   2.927   0.964  13.228  1.0636  0.8908  1.7676
 4655TIP3    H235381   2.881   1.037  13.103 -0.3007 -1.1210  1.0779
 4656TIP3   OH235382   4.978   5.950  10.922  0.1513 -0.1998 -0.1667
 4656TIP3    H135383   4.938   5.902  10.849 -0.1749  0.0967 -0.1828
 4656TIP3    H235384   4.910   5.953  10.989  0.7120 -1.1686  0.4762
 4657TIP3   OH235385   6.964   4.980  14.544 -0.0316 -0.0329  0.1857
 4657TIP3    H135386   6.948   5.065  14.502  0.8967  0.7921  1.4508
 4657TIP3    H235387   7.000   5.002  14.630  1.1864 -1.7234  0.1423
 4658TIP3   OH235388   6.836   5.194  12.366  0.2114  0.0182 -0.3172
 4658TIP3    H135389   6.782   5.273  12.368 -0.7524 -0.6426  0.1191
 4658TIP3    H235390   6.844   5.172  12.273 -2.2709 -1.2171 -0.2776
 4659TIP3   OH235391   0.257   1.937  11.650 -0.3970  0.1440  0.3602
 4659TIP3    H135392   0.324   1.929  11.582 -0.8184  0.0622 -0.0378
 4659TIP3    H235393   0.303   1.912  11.731  0.0470  0.0571  0.0843
 4660TIP3   OH235394   0.731   1.880  10.209  0.0896 -0.8007  0.7080
 4660TIP3    H135395   0.822   1.881  10.180  0.3371 -0.6919  1.4648
 4660TIP3    H235396   0.691   1.957  10.167  0.3731 -0.7890  0.4613
 4661TIP3   OH235397   3.866   3.739  10.430 -0.2477  0.0280 -0.2726
 4661TIP3    H135398   3.827   3.824  10.409 -0.5232  0.3292  1.3856
 4661TIP3    H235399   3.933   3.726  10.363 -0.8231  1.1325 -1.0754
 4662TIP3   OH235400   6.497   4.881  10.342  0.1704  0.6078 -0.3238
 4662TIP3    H135401   6.497   4.942  10.416 -1.1170 -1.0321  1.0651
 4662TIP3    H235402   6.590   4.867  10.324  0.5549 -0.2240  2.0628
 4663TIP3   OH235403   3.643   3.539  11.098  0.8924 -0.3075  0.0164
 4663TIP3    H135404   3.733   3.560  11.077  0.8030 -0.2650 -0.3293
 4663TIP3    H235405   3.629   3.575  11.186  0.9536  0.4401 -0.2781
 4664TIP3   OH235406   4.436   2.057  10.734  0.0853 -0.6047  0.5671
 4664TIP3    H135407   4.429   2.041  10.828  2.6049 -1.0632  0.7115
 4664TIP3    H235408   4.416   1.973  10.693 -0.8457 -0.4465  0.6771
 4665TIP3   OH235409   6.078   1.146  10.979  0.4279 -0.4014 -0.1688
 4665TIP3    H135410   6.104   1.187  10.897 -3.4865  1.4847 -0.5633
 4665TIP3    H235411   6.105   1.209  11.046  3.0254 -1.6421  0.0141
 4666TIP3   OH235412   4.676   5.168  10.639  0.2250  0.3337 -1.0378
 4666TIP3    H135413   4.583   5.162  10.615 -0.4797  2.3499  0.9821
 4666TIP3    H235414   4.721   5.182  10.556 -1.2029 -1.2152 -2.1107
 4667TIP3   OH235415   1.774   4.012  14.446 -0.1299 -0.1714 -0.3041
 4667TIP3    H135416   1.723   3.994  14.524 -0.2631 -1.2579 -0.6318
 4667TIP3    H235417   1.722   4.075  14.396 -1.2366 -1.3909 -0.7120
 4668TIP3   OH235418   1.171   7.108   0.515  0.5352  0.1841 -0.1810
 4668TIP3    H135419   1.169   7.105   0.611  0.1044 -1.3505 -0.2244
 4668TIP3    H235420   1.201   7.196   0.495  0.3997  0.6080  1.3683
 4669TIP3   OH235421   4.893   3.305  10.994 -0.2484  0.5289 -0.2288
 4669TIP3    H135422   4.818   3.357  11.020  0.8535  1.9470  0.1729
 4669TIP3    H235423   4.892   3.229  11.053 -1.0349  0.8237  0.1343
 4670TIP3   OH235424   6.895   6.868   9.969 -0.1348 -0.4400  0.2626
 4670TIP3    H135425   6.833   6.926   9.923 -0.7226 -0.2021  1.3387
 4670TIP3    H235426   6.972   6.867   9.913  1.1266  3.8763  1.6822
 4671TIP3   OH235427   0.597   5.028  13.687 -0.1275  0.1122  1.0744
 4671TIP3    H135428   0.594   4.934  13.666  0.5506 -0.0923  1.8884
 4671TIP3    H235429   0.510   5.047  13.720 -0.7915  0.1390 -0.6151
 4672TIP3   OH235430   5.495   2.700   0.075  0.6964 -0.7316  0.7371
 4672TIP3    H135431   5.432   2.707   0.147  0.9990 -0.9047  1.0158
 4672TIP3    H235432   5.564   2.762   0.098  1.5028 -1.8489  1.3077
 4673TIP3   OH235433   5.921   1.549  10.556  0.1464 -0.0289 -0.3188
 4673TIP3    H135434   5.918   1.642  10.577  1.0377 -0.1240  0.2527
 4673TIP3    H235435   5.864   1.508  10.621 -0.3848  0.1320 -0.6792
 4674TIP3   OH235436   4.262   3.166  11.479  0.1349 -0.1576  0.0765
 4674TIP3    H135437   4.355   3.160  11.457  0.0228 -1.0903 -0.1541
 4674TIP3    H235438   4.256   3.138  11.570  0.2218  0.9573  0.4266
 4675TIP3   OH235439   2.476   4.654  13.995 -0.6907 -0.0482  0.1921
 4675TIP3    H135440   2.455   4.575  13.946 -0.5064 -1.3522  2.1464
 4675TIP3    H235441   2.434   4.725  13.947 -2.0789 -1.5142 -0.7827
 4676TIP3   OH235442   7.067   2.607  14.423  0.1535 -0.2550 -0.2705
 4676TIP3    H135443   7.018   2.689  14.428 -1.8116 -1.4589  1.0577
 4676TIP3    H235444   7.001   2.539  14.435  2.0711 -1.9733  0.9341
 4677TIP3   OH235445   3.687   2.161  15.018  0.1684  0.3821 -0.2067
 4677TIP3    H135446   3.596   2.182  14.996  0.0375 -0.4066 -0.4689
 4677TIP3    H235447   3.689   2.160  15.113 -0.1069  0.3912 -0.1992
 4678TIP3   OH235448   5.476   2.755  12.841 -0.1848 -0.1665  0.3538
 4678TIP3    H135449   5.520   2.727  12.761  0.5112  0.3991  0.5256
 4678TIP3    H235450   5.541   2.810  12.885 -0.7013 -0.1656  1.1176
 4679TIP3   OH235451   0.724   5.798  15.192 -0.3933 -0.3597  0.1454
 4679TIP3    H135452   0.705   5.878  15.240 -0.8564 -0.1801 -0.3285
 4679TIP3    H235453   0.784   5.825  15.122 -0.2897 -0.4880  0.1838
 4680TIP3   OH235454   3.043   2.802  15.039  0.3422  0.1751 -0.1118
 4680TIP3    H135455   3.127   2.834  15.005  1.2980 -2.6348 -0.5689
 4680TIP3    H235456   2.984   2.877  15.033  2.1558  1.4885 -2.1509
 4681TIP3   OH235457   6.427   3.190  12.258 -0.2224 -0.8862  0.5319
 4681TIP3    H135458   6.378   3.267  12.227  0.2480 -1.3556 -1.4792
 4681TIP3    H235459   6.504   3.227  12.302 -0.4199 -0.1787  0.2942
 4682TIP3   OH235460   2.616   3.677  11.466 -0.2605 -0.2207  0.3236
 4682TIP3    H135461   2.566   3.600  11.438 -2.0779  1.0729 -0.0974
 4682TIP3    H235462   2.668   3.700  11.389  0.2622 -0.9883  0.4381
 4683TIP3   OH235463   0.635   1.186  13.989  0.4746  0.2593 -0.0061
 4683TIP3    H135464   0.667   1.240  13.917 -1.0655  0.1559 -0.7912
 4683TIP3    H235465   0.586   1.117  13.946  0.4152 -0.3927  1.1121
 4684TIP3   OH235466   2.925   0.190  14.407 -0.3031 -0.6371  0.3563
 4684TIP3    H135467   2.913   0.264  14.347  1.3081  0.7558  1.6858
 4684TIP3    H235468   2.944   0.116  14.350  0.9207  0.5975 -0.8793
 4685TIP3   OH235469   6.535   1.216  11.780  0.1142 -0.1392  0.6904
 4685TIP3    H135470   6.496   1.188  11.697 -1.3390  2.6205  0.3864
 4685TIP3    H235471   6.621   1.250  11.755 -0.7993  1.8234  0.0779
 4686TIP3   OH235472   1.185   5.593  12.949 -0.1746  0.1559  0.0801
 4686TIP3    H135473   1.179   5.550  12.864  2.1904  0.1568 -0.1081
 4686TIP3    H235474   1.162   5.525  13.013  1.2281 -0.7419 -0.3612
 4687TIP3   OH235475   6.391   4.543   9.797  0.5658  0.4669  0.5345
 4687TIP3    H135476   6.309   4.558   9.749  0.3771  0.8070  0.9642
 4687TIP3    H235477   6.405   4.449   9.792  0.2467  0.4334  0.2960
 4688TIP3   OH235478   5.374   5.255  14.201  0.4452  0.4256  0.1326
 4688TIP3    H135479   5.407   5.204  14.275  1.5167  0.5424 -0.2562
 4688TIP3    H235480   5.378   5.346  14.231  0.1984  0.4180  0.1892
 4689TIP3   OH235481   5.063   2.907  11.980 -0.3674  0.4997  0.2450
 4689TIP3    H135482   5.082   2.853  11.904  0.7568 -2.6064  2.6062
 4689TIP3    H235483   5.143   2.957  11.995  0.5089 -1.1177  1.1078
 4690TIP3   OH235484   4.473   0.024  13.282 -0.2847  0.3485  0.0256
 4690TIP3    H135485   4.387   0.050  13.251 -0.7422  0.5870  1.4546
 4690TIP3    H235486   4.465  -0.070  13.300  0.3958 -0.1054 -1.9082
 4691TIP3   OH235487   6.985   1.430  10.130 -0.1459  0.2705 -0.1537
 4691TIP3    H135488   7.035   1.350  10.116 -0.7937 -0.1926  0.1219
 4691TIP3    H235489   6.931   1.411  10.207  0.4920  1.3655  0.5781
 4692TIP3   OH235490   2.622   1.065  13.284 -0.2439 -0.0863 -0.7039
 4692TIP3    H135491   2.659   1.003  13.221  2.4072 -0.0014  0.6990
 4692TIP3    H235492   2.660   1.149  13.260  1.4080 -0.1720  1.3809
 4693TIP3   OH235493   4.698   6.980  10.523  0.9092  0.5533  0.3576
 4693TIP3    H135494   4.792   6.995  10.526  1.0742  0.1440 -2.0349
 4693TIP3    H235495   4.689   6.887  10.504  0.0739  1.1285 -2.2226
 4694TIP3   OH235496   0.160   4.115  12.762  0.0508  0.1173  0.2400
 4694TIP3    H135497   0.067   4.098  12.748  0.1156  0.1089 -0.1792
 4694TIP3    H235498   0.177   4.197  12.716  0.3279 -0.0594  0.0280
 4695TIP3   OH235499   2.869   2.962  11.168  0.1349 -0.2646  0.3668
 4695TIP3    H135500   2.876   2.899  11.240 -0.5403 -0.1176  0.5661
 4695TIP3    H235501   2.814   3.032  11.203  2.4303  1.3804  0.8101
 4696TIP3   OH235502   0.433   3.275  11.506 -0.2991  0.2023  0.1523
 4696TIP3    H135503   0.456   3.348  11.563 -0.2680 -0.1838  0.6395
 4696TIP3    H235504   0.452   3.306  11.417 -1.1657  1.1203  0.2719
 4697TIP3   OH235505   2.392   7.052  12.516 -0.0608 -0.0628 -0.5983
 4697TIP3    H135506   2.471   7.101  12.494  0.7942 -1.4348 -0.6129
 4697TIP3    H235507   2.414   6.961  12.498 -0.5438 -0.8302  2.5121
 4698TIP3   OH235508   2.364   2.353   1.250  0.1745 -0.4510  0.5614
 4698TIP3    H135509   2.280   2.389   1.278  0.8016 -0.1799  2.1647
 4698TIP3    H235510   2.345   2.306   1.170 -1.4507 -0.1165  0.7433
 4699TIP3   OH235511   6.893   2.010  12.718  0.9485  0.6137  0.0472
 4699TIP3    H135512   6.839   2.046  12.648  2.0838  0.9022 -0.6994
 4699TIP3    H235513   6.949   2.083  12.745  2.6701 -0.3383 -0.8788
 4700TIP3   OH235514   6.986   1.804  11.541  0.2873 -0.0441  0.6950
 4700TIP3    H135515   7.081   1.799  11.526  0.1500 -1.1544  0.0926
 4700TIP3    H235516   6.955   1.870  11.479  0.6409  0.1692  0.7440
 4701TIP3   OH235517   4.461   0.165  10.751  0.0041 -0.1032 -0.1600
 4701TIP3    H135518   4.470   0.087  10.805 -1.8873  0.0640  0.4128
 4701TIP3    H235519   4.374   0.157  10.712  0.6638  0.6387 -1.8289
 4702TIP3   OH235520   6.747   6.409  10.854 -0.2937 -0.4866 -0.4102
 4702TIP3    H135521   6.795   6.453  10.785 -1.5576 -1.2334 -1.8137
 4702TIP3    H235522   6.657   6.404  10.821 -0.8264 -1.2357  1.0956
 4703TIP3   OH235523   4.292   6.271  11.425 -0.2691  0.3055 -0.6432
 4703TIP3    H135524   4.266   6.230  11.342  0.5903  0.8139 -1.1743
 4703TIP3    H235525   4.347   6.345  11.398 -0.2389  0.6560  0.3748
 4704TIP3   OH235526   6.892   6.210  12.339  0.1750 -0.1036 -0.2276
 4704TIP3    H135527   6.855   6.197  12.252 -0.7698 -2.0400  0.4225
 4704TIP3    H235528   6.931   6.297  12.336 -1.1189  0.4453 -2.1240
 4705TIP3   OH235529   6.391   1.534  10.859  0.0474 -0.7274  0.0125
 4705TIP3    H135530   6.485   1.538  10.843  0.1119  0.5516  0.6454
 4705TIP3    H235531   6.383   1.519  10.954 -0.3951  1.1925  0.2851
 4706TIP3   OH235532   6.867   1.558  12.442 -0.0551 -0.6117 -0.2307
 4706TIP3    H135533   6.837   1.519  12.360  0.7326  1.4089 -1.5069
 4706TIP3    H235534   6.942   1.505  12.469  0.8939 -0.1097 -1.8506
 4707TIP3   OH235535   2.957   3.377  10.396  0.0044 -0.1681 -0.2926
 4707TIP3    H135536   2.874   3.392  10.441 -0.4551 -0.9336 -0.8809
 4707TIP3    H235537   3.015   3.445  10.430 -1.2697  1.2455 -0.9185
 4708TIP3   OH235538   7.030   2.920  10.794 -0.5178  0.3320 -0.3243
 4708TIP3    H135539   7.063   2.834  10.768 -2.2517 -0.0687 -1.2799
 4708TIP3    H235540   6.967   2.901  10.863  0.3079  0.9993  0.6354
 4709TIP3   OH235541   5.192   0.281   0.896  0.1127 -0.0897 -0.5377
 4709TIP3    H135542   5.109   0.237   0.914 -0.3667  0.3764 -1.5566
 4709TIP3    H235543   5.177   0.371   0.923  0.4858 -0.1399 -0.1655
 4710TIP3   OH235544   5.268   3.544  10.579 -0.1160 -0.2361  0.0134
 4710TIP3    H135545   5.222   3.592  10.647 -1.4523  0.6509 -1.4862
 4710TIP3    H235546   5.200   3.491  10.538  0.6382 -0.5928 -0.7763
 4711TIP3   OH235547   3.682   2.928  12.623 -0.3853 -0.1575  0.3452
 4711TIP3    H135548   3.766   2.901  12.586 -1.4610 -1.6306 -1.1227
 4711TIP3    H235549   3.666   3.015  12.587  0.1240 -0.2229 -0.0467
 4712TIP3   OH235550   1.632   5.413   0.116 -0.3678  0.0569 -0.2889
 4712TIP3    H135551   1.656   5.485   0.058  2.5885  0.4161  1.3085
 4712TIP3    H235552   1.551   5.441   0.157 -0.3477  1.5532 -1.2318
 4713TIP3   OH235553   2.151   3.823  12.169 -0.0948 -0.0854  0.2180
 4713TIP3    H135554   2.172   3.915  12.187 -0.2467  0.5851 -2.6436
 4713TIP3    H235555   2.227   3.774  12.199  2.2709  1.5291 -2.8067
 4714TIP3   OH235556   1.517   1.218  10.043  0.0197  0.0072 -0.4100
 4714TIP3    H135557   1.435   1.238   9.998  0.7757 -0.7036 -2.1638
 4714TIP3    H235558   1.500   1.134  10.085 -0.6170  0.5552  0.4379
 4715TIP3   OH235559   0.217   2.208  10.474 -0.4081 -0.1963  0.0161
 4715TIP3    H135560   0.173   2.290  10.496  0.0895  0.1830 -0.3784
 4715TIP3    H235561   0.244   2.171  10.558 -0.9414 -0.1328  0.2181
 4716TIP3   OH235562   6.094   4.703  10.094 -0.1051 -0.8790  0.3315
 4716TIP3    H135563   6.185   4.733  10.098  0.4873 -2.4789 -0.5204
 4716TIP3    H235564   6.085   4.645  10.169 -0.9203  0.5629  1.3562
 4717TIP3   OH235565   7.009   1.059   0.868 -0.0132  0.3743 -0.5866
 4717TIP3    H135566   6.957   0.992   0.912  0.8638 -2.0786 -3.2138
 4717TIP3    H235567   7.081   1.077   0.928 -1.6378  0.9073  1.2798
 4718TIP3   OH235568   1.400   0.260  15.313 -0.4196  0.0031  0.4956
 4718TIP3    H135569   1.445   0.325  15.260 -0.7768 -0.3754 -0.2854
 4718TIP3    H235570   1.307   0.274  15.294 -0.4311 -1.5993 -0.7173
 4719TIP3   OH235571   0.958   0.056  11.404  0.1601 -0.3488  0.4651
 4719TIP3    H135572   0.909   0.059  11.487  0.1186  1.0190  0.4117
 4719TIP3    H235573   0.976   0.148  11.384 -0.5083 -0.6159 -1.4598
 4720TIP3   OH235574   4.943   0.742  11.684  0.1966  0.2580 -0.1121
 4720TIP3    H135575   4.985   0.738  11.770  0.0608  1.2115  0.0077
 4720TIP3    H235576   4.981   0.820  11.643 -2.8464  2.3147  0.7656
 4721TIP3   OH235577   2.985   5.506  10.740  0.2025  0.3886 -0.1262
 4721TIP3    H135578   2.999   5.415  10.714  0.5171  0.7517 -1.2553
 4721TIP3    H235579   2.963   5.501  10.833 -2.3318 -1.0720 -0.7457
 4722TIP3   OH235580   2.589   2.238  13.962 -0.1368  0.6640  0.0951
 4722TIP3    H135581   2.668   2.194  13.932 -0.1299 -0.0933  1.1775
 4722TIP3    H235582   2.608   2.331  13.951  1.2135  0.5263  1.0567
 4723TIP3   OH235583   0.093   0.196  14.380  0.4126 -0.0285 -1.1595
 4723TIP3    H135584   0.070   0.136  14.309  0.8856  0.6329 -1.8868
 4723TIP3    H235585   0.175   0.237  14.351 -0.8023  2.2365 -1.4980
 4724TIP3   OH235586   1.634   4.182  14.304 -0.6437 -0.0651  0.2712
 4724TIP3    H135587   1.659   4.267  14.341 -1.1435 -0.6652  2.0224
 4724TIP3    H235588   1.539   4.187  14.294 -0.8666 -0.9272  1.7618
 4725TIP3   OH235589   1.604   3.092  14.035 -0.0465 -0.1480  0.2192
 4725TIP3    H135590   1.525   3.143  14.053 -1.0410 -1.2678 -0.9322
 4725TIP3    H235591   1.610   3.091  13.940  0.3185 -1.6554  0.2512
 4726TIP3   OH235592   3.298   3.792  11.303  0.4147 -0.0234 -0.3819
 4726TIP3    H135593   3.269   3.811  11.392 -0.6346 -1.3098 -0.4441
 4726TIP3    H235594   3.219   3.797  11.249  1.2958  2.3963 -1.5562
 4727TIP3   OH235595   3.112   0.264  12.423 -0.3786  0.5587  0.5079
 4727TIP3    H135596   3.089   0.286  12.333 -2.0702  0.4266  0.9038
 4727TIP3    H235597   3.089   0.341  12.474  0.1857  0.4786  0.8912
 4728TIP3   OH235598   3.397   0.235  15.051  0.3003 -0.1091 -0.0394
 4728TIP3    H135599   3.391   0.324  15.017  1.0753 -0.2751 -0.6124
 4728TIP3    H235600   3.458   0.241  15.124  1.2855 -0.3934 -0.8368
 4729TIP3   OH235601   1.282   3.095  14.417 -0.3085 -0.1355  0.0150
 4729TIP3    H135602   1.255   3.038  14.345 -2.1444  1.6290 -0.7627
 4729TIP3    H235603   1.199   3.123  14.457  0.6515  0.0034  1.9400
 4730TIP3   OH235604   5.743   4.015  13.121  0.6151  0.8251  0.1827
 4730TIP3    H135605   5.817   3.973  13.076 -0.1630  1.1774 -1.4813
 4730TIP3    H235606   5.683   4.039  13.050 -0.4430  1.8182  1.3949
 4731TIP3   OH235607   3.469   1.923  10.197  0.0590  0.7018  0.1555
 4731TIP3    H135608   3.376   1.927  10.177  0.3184  0.8396 -1.0540
 4731TIP3    H235609   3.498   2.014  10.192  0.6376  0.4537 -1.3908
 4732TIP3   OH235610   0.733   0.436  10.442 -0.3406  0.7156  0.3494
 4732TIP3    H135611   0.730   0.414  10.535 -1.2334 -0.7857 -0.0058
 4732TIP3    H235612   0.804   0.383  10.407 -0.2780  0.9613  0.1038
 4733TIP3   OH235613   1.785   6.474  12.061  0.2756  0.0912  0.0664
 4733TIP3    H135614   1.694   6.444  12.062  0.1954  0.2827 -0.8826
 4733TIP3    H235615   1.808   6.475  11.968  0.4228  2.5319  0.1139
 4734TIP3   OH235616   3.702   0.343  14.253 -0.4838  0.1918 -0.3752
 4734TIP3    H135617   3.746   0.263  14.223  0.5949  0.8025 -0.4559
 4734TIP3    H235618   3.728   0.352  14.344 -0.3444  0.6171 -0.4559
 4735TIP3   OH235619   6.560   2.457  10.173  0.0216  0.4894  0.0156
 4735TIP3    H135620   6.625   2.521  10.144 -1.0088  1.2565 -0.6077
 4735TIP3    H235621   6.550   2.397  10.099 -1.2655  1.3934 -0.5585
 4736TIP3   OH235622   0.580   4.567  10.448 -0.0163  0.2470  0.1632
 4736TIP3    H135623   0.539   4.481  10.457 -1.1883  0.5982 -1.6223
 4736TIP3    H235624   0.674   4.548  10.444 -0.3326 -1.0963 -1.5565
 4737TIP3   OH235625   0.728   2.210  12.768 -0.6767 -0.6861 -0.8403
 4737TIP3    H135626   0.657   2.173  12.716  0.8595 -2.7524 -1.5620
 4737TIP3    H235627   0.765   2.134  12.815  0.9126  0.3714 -0.3475
 4738TIP3   OH235628   0.187   4.088  14.269 -0.6342  0.1342  0.6848
 4738TIP3    H135629   0.182   4.155  14.337  0.1346 -0.0439  0.9264
 4738TIP3    H235630   0.125   4.021  14.297 -0.8991  0.4285  0.8016
 4739TIP3   OH235631   2.697   5.260  10.650 -0.2396 -0.2863 -0.5620
 4739TIP3    H135632   2.701   5.214  10.734  1.8111  1.3979  0.3112
 4739TIP3    H235633   2.738   5.200  10.588 -1.4438 -1.3912 -0.3309
 4740TIP3   OH235634   5.104   4.742  10.764  0.3311 -0.9966  0.4702
 4740TIP3    H135635   5.009   4.747  10.770  0.1926 -0.0821 -1.7555
 4740TIP3    H235636   5.135   4.823  10.805  0.0409 -0.4982 -0.2741
 4741TIP3   OH235637   5.166   1.995  14.045  0.0590  0.2147 -0.1316
 4741TIP3    H135638   5.108   1.919  14.054 -1.3363  1.3574  0.8058
 4741TIP3    H235639   5.122   2.051  13.980  0.0886  1.0845  0.5817
 4742TIP3   OH235640   6.458   1.535  11.745 -0.8163  0.1414 -0.9445
 4742TIP3    H135641   6.392   1.520  11.678  0.7340 -0.2409 -2.3985
 4742TIP3    H235642   6.540   1.544  11.697  0.4589 -1.0506  0.9650
 4743TIP3   OH235643   0.849   6.962   9.851  0.0359  0.2713 -0.0681
 4743TIP3    H135644   0.802   6.890   9.892  1.8289 -2.1103 -2.0494
 4743TIP3    H235645   0.933   6.966   9.897  0.4268  0.3090 -0.7832
 4744TIP3   OH235646   0.306   5.357   0.281  0.0535 -0.7241 -0.2589
 4744TIP3    H135647   0.311   5.340   0.375  0.0679  1.5009  0.1766
 4744TIP3    H235648   0.389   5.401   0.261 -0.4377 -0.1659 -1.0700
 4745TIP3   OH235649   5.869   2.261  10.618 -0.4204 -0.3336  0.9177
 4745TIP3    H135650   5.796   2.226  10.567  0.7828 -2.1333  0.3946
 4745TIP3    H235651   5.831   2.336  10.665 -1.9541  0.3245 -1.2961
 4746TIP3   OH235652   1.746   3.419  10.571 -0.6756 -0.1974 -0.2804
 4746TIP3    H135653   1.741   3.490  10.507 -0.2578  0.4640  0.4056
 4746TIP3    H235654   1.723   3.461  10.654 -5.1675 -1.8609 -0.5601
 4747TIP3   OH235655   6.474   5.379   9.873  0.5765 -0.2824 -0.0882
 4747TIP3    H135656   6.421   5.303   9.896  1.0524 -0.9611 -1.2483
 4747TIP3    H235657   6.562   5.357   9.901  0.8832 -0.5190 -1.2174
 4748TIP3   OH235658   1.738   2.347  11.489 -0.0532 -0.0573  0.1974
 4748TIP3    H135659   1.664   2.287  11.498  0.1255 -0.1072  1.3991
 4748TIP3    H235660   1.722   2.416  11.553  1.8813 -1.0826  1.8375
 4749TIP3   OH235661   2.744   4.839  10.307 -0.7445 -0.1241 -0.3295
 4749TIP3    H135662   2.748   4.781  10.231  0.6000 -1.9659  1.1008
 4749TIP3    H235663   2.835   4.847  10.336 -1.2289  0.5691  1.0731
 4750TIP3   OH235664   4.889   3.019  11.064  0.3453  0.1758 -0.1049
 4750TIP3    H135665   4.873   2.924  11.062 -0.2209  0.2865 -2.4918
 4750TIP3    H235666   4.983   3.028  11.048  0.5417  0.0061  0.9109
 4751TIP3   OH235667   6.711   2.820  13.231  0.1669  0.3850 -0.4818
 4751TIP3    H135668   6.698   2.739  13.183  0.7734 -0.3969  0.6453
 4751TIP3    H235669   6.751   2.880  13.168  2.5847 -1.1825 -0.5088
 4752TIP3   OH235670   7.125   1.890  13.467  0.0926  0.0303  0.0143
 4752TIP3    H135671   7.114   1.846  13.382  0.8158  1.0906 -0.6412
 4752TIP3    H235672   7.085   1.831  13.530 -0.7520 -0.6270 -1.1151
 4753TIP3   OH235673   3.362   3.511  14.707  0.5450 -0.0009  0.0389
 4753TIP3    H135674   3.444   3.555  14.682  0.1871  1.5790  1.5253
 4753TIP3    H235675   3.373   3.492  14.800 -0.2414 -1.0015 -0.0737
 4754TIP3   OH235676   0.377   5.162  10.517  0.3557  0.3913 -0.0345
 4754TIP3    H135677   0.450   5.146  10.577 -0.3241 -0.9385  0.4681
 4754TIP3    H235678   0.310   5.205  10.571  0.5014  1.0106 -0.3359
 4755TIP3   OH235679   4.943   1.183  12.537  0.5155  0.0423 -0.1810
 4755TIP3    H135680   4.976   1.227  12.458 -1.4409 -1.1350 -1.6831
 4755TIP3    H235681   4.851   1.207  12.542  0.0740 -1.6978  0.4862
 4756TIP3   OH235682   1.040   1.338  14.966 -0.3532 -0.3436  0.7463
 4756TIP3    H135683   1.048   1.416  14.912 -0.6618 -1.3189 -0.7566
 4756TIP3    H235684   1.102   1.350  15.037  0.3492  0.7887 -0.0567
 4757TIP3   OH235685   1.525   3.421  13.200  0.1764  0.4835 -0.5693
 4757TIP3    H135686   1.485   3.368  13.270 -1.2891  1.7962 -0.3871
 4757TIP3    H235687   1.552   3.501  13.244  2.3603 -0.0868 -0.8576
 4758TIP3   OH235688   1.011   6.450  13.349  0.1864 -0.1274  0.4274
 4758TIP3    H135689   1.037   6.378  13.291 -1.5556  0.3766 -1.0490
 4758TIP3    H235690   0.927   6.421  13.387  1.4153 -0.5550  2.9353
 4759TIP3   OH235691   6.004   3.417  12.325 -0.0471 -0.1912 -0.1467
 4759TIP3    H135692   6.034   3.329  12.303  1.0809  0.0105  0.5103
 4759TIP3    H235693   5.925   3.404  12.377 -0.3797 -0.7880 -0.8019
 4760TIP3   OH235694   5.650   0.347  15.200 -0.0085  0.2054  0.7304
 4760TIP3    H135695   5.643   0.316  15.290 -0.7942  1.8438  1.2567
 4760TIP3    H235696   5.731   0.308  15.167 -1.0536 -2.5250  1.2733
 4761TIP3   OH235697   6.410   4.297  11.972 -0.0739  0.5978 -0.3123
 4761TIP3    H135698   6.458   4.340  12.042 -1.7533  0.8885  0.6891
 4761TIP3    H235699   6.406   4.363  11.902 -0.2889  1.0850  0.1594
 4762TIP3   OH235700   5.815   3.477  11.771 -0.3811  0.0800  0.3607
 4762TIP3    H135701   5.727   3.440  11.776 -0.0284 -0.6825  1.0464
 4762TIP3    H235702   5.833   3.508  11.860 -0.4998  1.5288 -0.1042
 4763TIP3   OH235703   2.829   0.390  13.673 -0.5655  0.0227 -0.4744
 4763TIP3    H135704   2.886   0.324  13.713  0.5848  0.3991 -1.4796
 4763TIP3    H235705   2.800   0.349  13.591 -1.1737  0.1189 -0.3083
 4764TIP3   OH235706   1.353   4.691  14.763 -0.5109 -0.3596  0.3625
 4764TIP3    H135707   1.317   4.777  14.782 -0.0177  0.0159 -0.4002
 4764TIP3    H235708   1.353   4.685  14.667 -1.4304 -1.5831  0.4219
 4765TIP3   OH235709   2.736   1.660  12.938  0.0859  0.6081  0.1714
 4765TIP3    H135710   2.754   1.572  12.906  1.0373  0.1253  1.9445
 4765TIP3    H235711   2.821   1.704  12.936 -0.2227  1.2036  0.1239
 4766TIP3   OH235712   5.948   3.997  14.347  0.3539  0.5373  0.7524
 4766TIP3    H135713   5.920   3.927  14.407  0.0673 -0.7124 -0.8027
 4766TIP3    H235714   5.958   3.953  14.263 -1.3877  2.6974 -0.6324
 4767TIP3   OH235715   5.720   4.015  14.000  0.0150 -0.5546 -0.0237
 4767TIP3    H135716   5.729   4.067  13.920 -0.6552  1.5759  1.2515
 4767TIP3    H235717   5.636   4.040  14.036  0.3811 -1.3731  1.4535
 4768TIP3   OH235718   4.159   1.505  12.977  0.1803 -0.3911 -0.2945
 4768TIP3    H135719   4.103   1.447  12.924 -1.6532 -0.0843  1.2425
 4768TIP3    H235720   4.172   1.457  13.059  1.4154 -0.0429 -0.2747
 4769TIP3   OH235721   0.848   0.024  11.646 -0.4282  0.0267  0.1563
 4769TIP3    H135722   0.774   0.082  11.631 -0.1687  0.1113 -0.9029
 4769TIP3    H235723   0.823  -0.058  11.602  0.3464  0.2578 -0.7398
 4770TIP3   OH235724   6.283   0.382  13.158 -0.1346  0.7726 -0.5890
 4770TIP3    H135725   6.257   0.328  13.083  1.0782  0.3974 -0.7491
 4770TIP3    H235726   6.246   0.468  13.139 -0.2578  0.5530 -1.3756
 4771TIP3   OH235727   4.924   6.618  14.657 -0.0043 -0.3536  0.0380
 4771TIP3    H135728   4.919   6.524  14.639 -1.4897 -0.2493 -0.1482
 4771TIP3    H235729   4.839   6.639  14.695 -1.6934  1.8820 -4.6246
 4772TIP3   OH235730   5.062   6.423  13.307 -0.3921 -0.1934 -0.1215
 4772TIP3    H135731   5.054   6.379  13.222  1.8630 -2.6852  0.9004
 4772TIP3    H235732   5.131   6.487  13.295 -1.6937  1.1244 -0.7900
 4773TIP3   OH235733   2.874   7.098  11.425  0.0320 -0.1474 -0.3682
 4773TIP3    H135734   2.907   7.152  11.353 -1.9098 -0.1541 -1.3082
 4773TIP3    H235735   2.872   7.009  11.389 -0.3633 -0.2393 -0.1229
 4774TIP3   OH235736   6.872   2.090  10.240  0.1759  0.3696 -0.5982
 4774TIP3    H135737   6.849   2.149  10.312  0.1448 -1.1872  0.7106
 4774TIP3    H235738   6.951   2.129  10.201  0.7676  0.7287  0.9027
 4775TIP3   OH235739   6.074   7.106  12.327 -0.6497 -0.7775 -0.0848
 4775TIP3    H135740   5.982   7.082  12.317 -1.1111  0.4947  0.9050
 4775TIP3    H235741   6.078   7.199  12.301  0.4785 -1.0015 -0.7673
 4776TIP3   OH235742   2.164   6.771  13.493  0.3141 -0.3919 -0.2895
 4776TIP3    H135743   2.228   6.736  13.431  0.1491  1.6849 -1.6715
 4776TIP3    H235744   2.212   6.838  13.542 -0.2839 -0.1626 -0.0121
 4777TIP3   OH235745   4.526   0.356  11.711  0.2992 -0.4904 -0.4070
 4777TIP3    H135746   4.588   0.342  11.640 -0.6960  2.2174 -1.8802
 4777TIP3    H235747   4.560   0.433  11.757 -0.9895 -0.0945 -0.1167
 4778TIP3   OH235748   5.358   6.228  12.655  0.7249 -0.3791  0.4496
 4778TIP3    H135749   5.281   6.232  12.711  0.4461 -0.7260  0.0914
 4778TIP3    H235750   5.385   6.320  12.646  0.0997 -0.2129  0.2249
 4779TIP3   OH235751   3.443   1.589  12.028  0.1830  0.0993  0.7957
 4779TIP3    H135752   3.470   1.675  12.060 -0.4755  0.6712 -0.1227
 4779TIP3    H235753   3.490   1.579  11.945  1.5840 -1.1904  1.7320
 4780TIP3   OH235754   7.053   0.644  12.230  0.4475 -0.1603 -0.1747
 4780TIP3    H135755   7.025   0.671  12.318 -0.6087  0.4679 -0.7005
 4780TIP3    H235756   7.001   0.566  12.211  0.7647 -0.3674 -0.1969
 4781TIP3   OH235757   6.091   6.218  13.975 -0.1774 -0.3350 -0.2948
 4781TIP3    H135758   6.178   6.246  13.945 -0.6346  1.2682 -0.1951
 4781TIP3    H235759   6.049   6.182  13.898  0.2850 -0.3610 -0.5361
 4782TIP3   OH235760   6.804   2.493   9.720  0.2079  0.4440 -0.0167
 4782TIP3    H135761   6.770   2.475   9.632  1.2131 -0.9724 -0.1203
 4782TIP3    H235762   6.896   2.517   9.706  0.2150  0.7961  0.6054
 4783TIP3   OH235763   2.219   3.330  14.242  0.2578 -0.6232 -0.1404
 4783TIP3    H135764   2.263   3.367  14.319 -1.7018  1.8067 -0.0983
 4783TIP3    H235765   2.139   3.291  14.277 -0.3355 -0.0620 -0.8672
 4784TIP3   OH235766   6.234   5.509  12.803  0.1003  0.5814 -0.1127
 4784TIP3    H135767   6.223   5.491  12.896 -1.5401 -2.7070 -0.8745
 4784TIP3    H235768   6.162   5.567  12.781  0.9944  2.0844  0.7964
 4785TIP3   OH235769   6.601   0.728  11.995 -0.0209 -0.3898 -0.3139
 4785TIP3    H135770   6.626   0.745  12.085  0.0678  0.7814 -0.5433
 4785TIP3    H235771   6.607   0.633  11.985  2.5369 -0.3109  0.1473
 4786TIP3   OH235772   1.607   5.221  12.056  0.8750 -0.3063  0.3167
 4786TIP3    H135773   1.651   5.138  12.075  0.8961 -0.5117 -0.5657
 4786TIP3    H235774   1.514   5.203  12.073  1.1055  0.0962  2.0753
 4787TIP3   OH235775   3.940   6.536  12.332  0.1035  0.5960 -0.7383
 4787TIP3    H135776   3.995   6.563  12.406  0.0347 -0.0243 -0.4564
 4787TIP3    H235777   3.929   6.616  12.280 -0.3132  1.1765  0.2237
 4788TIP3   OH235778   3.759   4.003  10.392 -0.3797  0.0820  0.4405
 4788TIP3    H135779   3.663   4.004  10.390 -0.3830 -0.7342  0.1107
 4788TIP3    H235780   3.781   4.025  10.483 -0.9234 -1.5434  0.9840
 4789TIP3   OH235781   0.778   3.546  14.302  0.1239 -0.1242 -0.2925
 4789TIP3    H135782   0.853   3.574  14.354 -1.7459 -0.1280  2.5209
 4789TIP3    H235783   0.708   3.606  14.327 -1.5316 -1.7585 -0.8848
 4790TIP3   OH235784   5.260   2.890  12.623  0.3923  0.2760  0.1318
 4790TIP3    H135785   5.252   2.886  12.718 -0.6963 -0.5758  0.0126
 4790TIP3    H235786   5.274   2.800  12.595  1.0065  0.5553 -0.4919
 4791TIP3   OH235787   1.410   7.003  12.223  0.2337 -0.5065 -0.0885
 4791TIP3    H135788   1.396   7.097  12.214  0.0703 -0.3815  1.3373
 4791TIP3    H235789   1.331   6.971  12.267  0.0394 -1.3960 -1.0816
 4792TIP3   OH235790   2.166   2.799  12.146 -0.4861  0.4524  0.1742
 4792TIP3    H135791   2.150   2.849  12.226 -0.2294 -0.2982  0.7071
 4792TIP3    H235792   2.220   2.725  12.175 -1.4773 -0.5357 -0.4556
 4793TIP3   OH235793   3.694   6.265  13.212  0.4901 -0.2529 -0.0200
 4793TIP3    H135794   3.674   6.227  13.297  0.2772 -0.4589 -0.1638
 4793TIP3    H235795   3.784   6.238  13.195  0.6780  0.1321  0.3267
 4794TIP3   OH235796   4.436   4.250  12.001 -0.0446 -0.1667  0.0257
 4794TIP3    H135797   4.503   4.187  11.974  0.3618  0.1714  0.2519
 4794TIP3    H235798   4.478   4.335  11.992 -1.0966  0.1894 -1.7789
 4795TIP3   OH235799   6.518   2.153  10.659 -0.0378  0.1324 -0.1071
 4795TIP3    H135800   6.602   2.110  10.671 -1.0758 -1.6808  0.8740
 4795TIP3    H235801   6.508   2.209  10.736  1.5544  2.6044 -1.6435
 4796TIP3   OH235802   6.932   4.297  10.131 -0.3025  0.0888 -0.9173
 4796TIP3    H135803   6.890   4.227  10.080 -2.5602 -0.5486  1.6891
 4796TIP3    H235804   6.957   4.256  10.213  0.8595  1.7234 -0.4252
 4797TIP3   OH235805   6.529   6.566  11.190  0.3884  0.5840  0.0758
 4797TIP3    H135806   6.514   6.514  11.268 -2.0385 -0.6984 -1.1787
 4797TIP3    H235807   6.467   6.639  11.198  1.8667  1.8158  0.5161
 4798TIP3   OH235808   5.250   6.896  13.490 -0.0597 -0.0381 -0.2713
 4798TIP3    H135809   5.158   6.876  13.477  0.4981 -2.1346 -1.1375
 4798TIP3    H235810   5.281   6.926  13.404  0.2134  0.0607 -0.1408
 4799TIP3   OH235811   1.392   7.027   9.981  0.4210 -0.3744  0.2248
 4799TIP3    H135812   1.447   7.028  10.059  3.3635 -1.5789 -1.7280
 4799TIP3    H235813   1.412   7.110   9.937 -0.4561 -0.1454  0.2577
 4800TIP3   OH235814   7.078   6.403  12.087 -0.0854  0.5624  0.3213
 4800TIP3    H135815   7.054   6.484  12.133  1.1260  0.3388  1.3671
 4800TIP3    H235816   7.019   6.401  12.011 -1.1824  1.6391  1.1070
 4801TIP3   OH235817   1.277   4.734  12.488 -0.0784  0.7458 -0.1667
 4801TIP3    H135818   1.367   4.713  12.463  0.3731  0.3215  1.7566
 4801TIP3    H235819   1.223   4.676  12.434  0.9891 -2.0907  1.6920
 4802TIP3   OH235820   1.471   5.377  13.189 -0.6595 -0.3236  0.1034
 4802TIP3    H135821   1.406   5.447  13.192 -1.5354 -0.9780 -2.2733
 4802TIP3    H235822   1.474   5.351  13.097  1.8575 -1.3720  0.4383
 4803TIP3   OH235823   2.761   6.802  15.348 -0.4101  0.1396  0.7106
 4803TIP3    H135824   2.697   6.872  15.339 -0.3764  0.2117  1.0089
 4803TIP3    H235825   2.845   6.847  15.356 -0.5396  0.1358  2.3758
 4804TIP3   OH235826   0.535   6.396  10.089  0.0835  0.1848 -0.4173
 4804TIP3    H135827   0.511   6.309  10.121 -1.0671  0.6525 -0.0061
 4804TIP3    H235828   0.572   6.440  10.165 -1.5645  0.8886 -0.0199
 4805TIP3   OH235829   1.379   1.002   9.690  0.0858 -0.3191  0.1115
 4805TIP3    H135830   1.311   0.936   9.674 -0.8015  0.7778 -0.7747
 4805TIP3    H235831   1.381   1.012   9.785 -1.6110  0.2446  0.1041
 4806TIP3   OH235832   4.525   1.538  12.235 -0.3594  0.0196  0.1966
 4806TIP3    H135833   4.449   1.588  12.206 -0.6007 -1.6510 -2.1764
 4806TIP3    H235834   4.589   1.549  12.165  0.7774 -0.3831  1.1506
 4807TIP3   OH235835   1.810   1.830  10.664  0.2128 -0.0210 -0.5731
 4807TIP3    H135836   1.846   1.903  10.614  0.1544  1.4291  1.4260
 4807TIP3    H235837   1.729   1.865  10.701  0.2080 -1.0913  0.4554
 4808TIP3   OH235838   1.077   4.454   1.198 -0.3633 -0.4600  0.4310
 4808TIP3    H135839   1.076   4.406   1.280  0.0993 -1.0327  0.1050
 4808TIP3    H235840   1.135   4.403   1.141  0.3436  0.6119  0.1681
 4809TIP3   OH235841   6.792   6.064  15.440 -0.0564  0.0510  0.3333
 4809TIP3    H135842   6.731   6.102  15.376  0.0736 -0.1472  0.0907
 4809TIP3    H235843   6.747   6.073  15.524 -0.9840 -1.2676 -0.0076
 4810TIP3   OH235844   3.164   5.830  13.467  0.3037 -0.0549  0.3277
 4810TIP3    H135845   3.130   5.896  13.528  1.2590  1.5712 -0.8491
 4810TIP3    H235846   3.257   5.852  13.458  0.2150 -0.3924 -1.5534
 4811TIP3   OH235847   5.416   2.342  12.710 -0.3472 -0.8079  0.1098
 4811TIP3    H135848   5.481   2.274  12.691  0.7581  0.2215  0.2018
 4811TIP3    H235849   5.408   2.391  12.628  1.1743  0.9003  0.9705
 4812TIP3   OH235850   4.707   5.210  14.571 -0.3266  0.1714  0.1250
 4812TIP3    H135851   4.743   5.296  14.593 -0.9756  0.9937 -1.9052
 4812TIP3    H235852   4.613   5.217  14.592 -0.3786 -0.0424 -0.0341
 4813TIP3   OH235853   3.247   2.881  10.463  0.1894 -0.3658  0.2738
 4813TIP3    H135854   3.265   2.908  10.553 -0.1193 -1.8378  0.7948
 4813TIP3    H235855   3.202   2.955  10.423 -0.8995 -0.2319  1.7454
 4814TIP3   OH235856   3.480   4.587  10.133  0.7266 -0.0875 -0.6132
 4814TIP3    H135857   3.449   4.642  10.204  1.7057 -0.2359 -0.0563
 4814TIP3    H235858   3.507   4.648  10.065  1.3236  0.1073 -0.2044
 4815TIP3   OH235859   0.353   3.802   9.726  0.0094 -0.3801  0.4431
 4815TIP3    H135860   0.379   3.719   9.766 -0.5334 -0.7217  0.0878
 4815TIP3    H235861   0.413   3.814   9.653 -0.9500 -1.2712 -0.5047
 4816TIP3   OH235862   4.195   4.500  13.779 -0.4632  0.3415 -0.3218
 4816TIP3    H135863   4.106   4.534  13.764 -0.7078  1.6532  3.5434
 4816TIP3    H235864   4.185   4.439  13.852  1.6911 -0.1639 -0.4363
 4817TIP3   OH235865   7.078   3.380  12.750 -0.3898 -0.5606  0.2621
 4817TIP3    H135866   7.012   3.424  12.696 -2.1436 -1.4401  1.6331
 4817TIP3    H235867   7.158   3.385  12.699 -1.5814  0.3159 -1.5696
 4818TIP3   OH235868   0.217   4.634  13.146  0.2870 -0.2385 -0.0415
 4818TIP3    H135869   0.149   4.691  13.181  0.6756  1.0343 -1.3059
 4818TIP3    H235870   0.172   4.581  13.080  0.6400  1.0944 -1.3786
 4819TIP3   OH235871   0.926   5.137  10.470  0.1189  0.1856  0.0419
 4819TIP3    H135872   0.902   5.045  10.477 -0.8580  0.5520  1.7739
 4819TIP3    H235873   0.978   5.142  10.390 -3.4376 -1.0857 -2.4377
 4820TIP3   OH235874   4.477   0.326  13.888 -0.0845  0.5328  0.0200
 4820TIP3    H135875   4.478   0.349  13.795  0.2217 -2.2079 -0.6935
 4820TIP3    H235876   4.385   0.310  13.908 -0.1149  0.8208  0.1180
 4821TIP3   OH235877   3.081   2.302  13.048 -0.2774  0.0844 -0.3023
 4821TIP3    H135878   3.173   2.301  13.019  0.4138  1.3331  1.6954
 4821TIP3    H235879   3.030   2.287  12.968  1.6336  0.1034 -1.5640
 4822TIP3   OH235880   4.486   4.815  10.687  0.4130 -0.1426  0.0464
 4822TIP3    H135881   4.459   4.725  10.674 -0.6773  0.2664 -0.5847
 4822TIP3    H235882   4.434   4.865  10.624 -0.9725  1.2480  2.2347
 4823TIP3   OH235883   1.015   3.011  11.145  0.3781 -0.0263 -0.2728
 4823TIP3    H135884   1.000   3.105  11.146 -2.2497 -0.4133 -0.3413
 4823TIP3    H235885   0.944   2.976  11.091  1.1902 -2.0679 -0.0667
 4824TIP3   OH235886   0.500   5.037  14.765  0.1540  0.0760 -0.3764
 4824TIP3    H135887   0.406   5.033  14.747 -0.0538 -0.3529  0.7493
 4824TIP3    H235888   0.514   5.127  14.794  0.5162  0.8096 -2.7225
 4825TIP3   OH235889   2.948   5.943  11.548 -0.3851  0.4871 -0.0551
 4825TIP3    H135890   2.865   5.975  11.512 -1.3534 -0.8009  0.9843
 4825TIP3    H235891   2.956   5.989  11.632 -0.9724 -0.7405  0.6883
 4826TIP3   OH235892   0.374   5.640  10.003 -0.5303 -0.0587  0.6206
 4826TIP3    H135893   0.343   5.656   9.914 -0.3364 -2.2696  0.1168
 4826TIP3    H235894   0.298   5.656  10.058 -0.7637  0.9424  0.0188
 4827TIP3   OH235895   0.535   5.411  10.854 -0.0722  0.0321  0.4347
 4827TIP3    H135896   0.573   5.411  10.766 -3.1604  0.8525 -0.9934
 4827TIP3    H235897   0.501   5.323  10.865 -1.4395  0.4833 -0.0430
 4828TIP3   OH235898   2.605   6.061  12.078 -0.6468  0.1167  0.2388
 4828TIP3    H135899   2.591   5.977  12.122 -0.3512  1.3156  2.6737
 4828TIP3    H235900   2.669   6.042  12.009  0.4034 -1.3903  1.6068
 4829TIP3   OH235901   2.754   6.432  15.011 -0.4544 -0.3630 -0.1611
 4829TIP3    H135902   2.791   6.435  14.923 -0.1886  0.2273 -0.0291
 4829TIP3    H235903   2.766   6.520  15.046 -0.5049 -0.6053  0.4920
 4830TIP3   OH235904   2.074   3.170  10.967 -0.3026  0.0507  0.3750
 4830TIP3    H135905   2.164   3.145  10.947 -0.2487  0.7304 -0.2604
 4830TIP3    H235906   2.029   3.168  10.883 -1.1143 -1.1651  0.8197
 4831TIP3   OH235907   1.326   6.978  12.673 -0.5180  0.1093  0.0095
 4831TIP3    H135908   1.318   6.883  12.685 -1.0062 -0.2052 -2.5423
 4831TIP3    H235909   1.255   7.000  12.613  1.7619  1.4935 -2.2824
 4832TIP3   OH235910   1.745   2.278  13.833 -0.4242 -0.5662 -0.1830
 4832TIP3    H135911   1.683   2.224  13.882 -0.0299 -2.2921 -1.5441
 4832TIP3    H235912   1.817   2.218  13.810  1.2217  1.1232  0.3844
 4833TIP3   OH235913   0.058   2.564  11.440 -0.1301  0.0811  0.7580
 4833TIP3    H135914   0.085   2.537  11.528 -1.8162 -1.0239  0.9537
 4833TIP3    H235915   0.133   2.543  11.385  1.2241  1.4454  2.0239
 4834TIP3   OH235916   6.849   3.935  15.324 -0.1113 -0.8373  0.0940
 4834TIP3    H135917   6.847   3.944  15.419  2.0574 -2.3978  0.3407
 4834TIP3    H235918   6.758   3.927  15.298 -0.6534 -1.6112  2.1822
 4835TIP3   OH235919   2.829   3.241  10.180 -0.4093  0.5818  0.4750
 4835TIP3    H135920   2.865   3.292  10.253 -0.5021  0.1856  0.7956
 4835TIP3    H235921   2.897   3.245  10.113  0.7172 -1.0932  1.4876
 4836TIP3   OH235922   1.767   3.211  14.566  0.3941 -0.1500 -0.1015
 4836TIP3    H135923   1.707   3.136  14.561  0.0903  0.1231 -0.5675
 4836TIP3    H235924   1.709   3.287  14.575  0.7232 -0.0236  0.9469
 4837TIP3   OH235925   3.980   4.114  14.120  0.0568  0.0100  0.0062
 4837TIP3    H135926   4.031   4.063  14.057  0.8556 -0.4892  1.0206
 4837TIP3    H235927   3.963   4.052  14.191  1.3671  1.2384  1.4349
 4838TIP3   OH235928   5.942   4.954  12.952  0.2201  0.2253 -0.2628
 4838TIP3    H135929   6.022   4.938  12.902  0.2165 -0.6200 -0.0006
 4838TIP3    H235930   5.959   5.036  12.998  0.4430  0.7131 -1.1961
 4839TIP3   OH235931   5.405   2.790  14.471 -0.4966  0.0344 -0.4486
 4839TIP3    H135932   5.388   2.779  14.564 -0.8934  0.0874 -0.5095
 4839TIP3    H235933   5.367   2.711  14.430  0.0064 -0.1684 -0.5291
 4840TIP3   OH235934   6.407   0.302  10.927 -0.1604  0.5256 -0.1532
 4840TIP3    H135935   6.459   0.227  10.958 -0.0987  1.4252  2.0567
 4840TIP3    H235936   6.335   0.263  10.877  1.0381 -0.8871 -0.8016
 4841TIP3   OH235937   1.976   2.430  14.604  0.1593  0.7749  0.1978
 4841TIP3    H135938   2.004   2.503  14.549 -0.9551  0.8185 -0.3291
 4841TIP3    H235939   2.046   2.365  14.595  0.4305  1.1600 -0.5317
 4842TIP3   OH235940   3.736   2.667  13.181  0.0123  0.4643 -0.5948
 4842TIP3    H135941   3.645   2.697  13.172  0.6732  2.4715 -0.7779
 4842TIP3    H235942   3.737   2.621  13.265 -0.5855  2.7452  0.6980
 4843TIP3   OH235943   3.367   5.639  13.050  0.5327 -0.2155  0.0477
 4843TIP3    H135944   3.353   5.561  13.104 -0.7525  0.5888  0.8979
 4843TIP3    H235945   3.301   5.701  13.080 -0.6346  0.0462 -2.8857
 4844TIP3   OH235946   1.962   1.112  13.293 -0.0140  0.5080 -0.5427
 4844TIP3    H135947   1.967   1.115  13.389 -0.0494  0.0916 -0.5271
 4844TIP3    H235948   1.870   1.099  13.274 -0.3146  2.6480 -0.6973
 4845TIP3   OH235949   1.848   4.552  11.250 -0.0105  0.4022 -0.3940
 4845TIP3    H135950   1.898   4.474  11.272  0.8553  1.2358  0.6931
 4845TIP3    H235951   1.761   4.520  11.226  0.7867 -0.9889 -1.4224
 4846TIP3   OH235952   1.911   3.713  12.045  0.0306 -0.2955 -0.3910
 4846TIP3    H135953   1.999   3.747  12.062  0.1336  0.5661 -2.5122
 4846TIP3    H235954   1.924   3.619  12.030  0.5436 -0.2258 -0.3972
 4847TIP3   OH235955   5.648   1.825  10.896  0.2290  0.7415 -0.0822
 4847TIP3    H135956   5.643   1.839  10.801  2.4174  2.2857 -0.0012
 4847TIP3    H235957   5.570   1.867  10.930 -0.2338  0.7734 -1.1534
 4848TIP3   OH235958   3.957   2.731   1.468 -0.0679  0.3823 -0.4390
 4848TIP3    H135959   3.978   2.777   1.387 -1.7117  0.7973 -0.6563
 4848TIP3    H235960   3.972   2.795   1.537 -1.5481  1.0151 -0.6751
 4849TIP3   OH235961   6.883   5.063  10.516  0.2717  0.1925  0.3414
 4849TIP3    H135962   6.845   5.097  10.435 -0.3812 -3.6490 -1.0557
 4849TIP3    H235963   6.812   5.070  10.580 -0.4101 -0.1682 -0.3676
 4850TIP3   OH235964   0.934   6.773  12.860  0.0725 -0.6513  0.2938
 4850TIP3    H135965   0.978   6.691  12.839  0.1770 -1.1124  2.1763
 4850TIP3    H235966   0.851   6.745  12.900 -0.7853  0.1847 -0.8856
 4851TIP3   OH235967   5.896   6.982  11.802 -0.3876  0.0781  0.2029
 4851TIP3    H135968   5.803   6.985  11.781 -0.1876  0.7748 -0.5917
 4851TIP3    H235969   5.937   6.946  11.723  0.1726  1.0594  0.0490
 4852TIP3   OH235970   0.901   0.262  12.673 -0.5774 -0.5170  0.2772
 4852TIP3    H135971   0.881   0.221  12.589 -2.7950 -0.0872  0.5637
 4852TIP3    H235972   0.885   0.192  12.738  1.8242 -1.0629  0.3043
 4853TIP3   OH235973   0.943   4.694  13.194  0.4129  0.2908 -0.1739
 4853TIP3    H135974   0.964   4.661  13.281 -0.4218 -0.1656 -0.1455
 4853TIP3    H235975   0.865   4.748  13.206  0.1765  0.0672 -0.6653
 4854TIP3   OH235976   0.705   3.097   9.846  0.6240  0.0154 -0.1087
 4854TIP3    H135977   0.622   3.055   9.825  1.1848  0.0770 -2.5698
 4854TIP3    H235978   0.683   3.167   9.908 -0.9954 -0.5989  0.0172
 4855TIP3   OH235979   6.333   6.310  13.890 -0.3546  0.4743 -0.1811
 4855TIP3    H135980   6.349   6.327  13.797  0.0348  1.3475  0.0364
 4855TIP3    H235981   6.393   6.238  13.912  0.1302  0.7993 -0.4204
 4856TIP3   OH235982   2.538   2.939  12.958  0.7503 -0.4076  0.1685
 4856TIP3    H135983   2.485   2.961  12.881  1.0517  0.5419  0.2261
 4856TIP3    H235984   2.489   2.870  13.002 -1.1868  1.4350  1.0044
 4857TIP3   OH235985   5.430   6.065  13.076  0.1912  0.0729  0.2653
 4857TIP3    H135986   5.401   6.156  13.079 -1.6651 -0.5338  1.5287
 4857TIP3    H235987   5.521   6.070  13.047 -0.2327  2.2399 -0.7739
 4858TIP3   OH235988   4.463   3.842  12.437  0.2370 -0.0215  0.7011
 4858TIP3    H135989   4.528   3.773  12.446  0.3704 -0.2228 -1.5063
 4858TIP3    H235990   4.397   3.822  12.503 -0.0063 -2.5831 -0.2953
 4859TIP3   OH235991   0.530   0.974  13.856 -0.4386 -0.2112  0.0858
 4859TIP3    H135992   0.490   0.887  13.860 -1.5667  0.2676 -0.6636
 4859TIP3    H235993   0.616   0.959  13.816 -0.4123 -1.0568  0.4535
 4860TIP3   OH235994   2.455   6.886  14.862 -0.0710 -0.2237 -0.5033
 4860TIP3    H135995   2.439   6.850  14.949 -1.4833 -0.3533 -0.8105
 4860TIP3    H235996   2.512   6.961  14.878  1.3838 -1.4739  0.3131
 4861TIP3   OH235997   4.397   3.523  10.810 -0.2477 -0.2717  0.0262
 4861TIP3    H135998   4.439   3.530  10.724 -0.0348 -1.2069  0.0404
 4861TIP3    H235999   4.452   3.575  10.868 -0.9755  1.2345 -0.5964
 4862TIP3   OH236000   3.280   3.594  12.808 -0.0787 -0.0754 -0.2332
 4862TIP3    H136001   3.190   3.623  12.792  0.1063  0.4871 -0.2631
 4862TIP3    H236002   3.284   3.506  12.769 -0.5766 -0.0513 -0.3443
 4863TIP3   OH236003   3.356   5.078  13.969 -0.0388  0.3703 -0.1568
 4863TIP3    H136004   3.407   5.033  13.901  0.0730  1.4301 -0.7881
 4863TIP3    H236005   3.407   5.156  13.990  0.4663 -0.4951  1.9544
 4864TIP3   OH236006   0.534   6.606  10.778  0.7562 -0.2219 -0.6378
 4864TIP3    H136007   0.543   6.517  10.746  0.7196  0.1100 -1.5725
 4864TIP3    H236008   0.606   6.617  10.840  0.1390 -1.2417  0.2702
 4865TIP3   OH236009   6.767   6.884  12.017  0.5011 -0.3880 -0.4243
 4865TIP3    H136010   6.706   6.936  11.964  0.8422  3.0200  2.3334
 4865TIP3    H236011   6.851   6.891  11.971  0.2806  0.6206 -0.6916
 4866TIP3   OH236012   0.137   6.190  11.505  0.3425 -0.8135 -0.0179
 4866TIP3    H136013   0.119   6.104  11.467 -2.7998  0.1336 -0.8530
 4866TIP3    H236014   0.111   6.182  11.597 -0.0826 -0.7358 -0.1287
 4867TIP3   OH236015   5.670   3.741  12.416 -0.7084 -0.1823  0.1740
 4867TIP3    H136016   5.603   3.703  12.473  1.3936 -2.6321  1.0894
 4867TIP3    H236017   5.734   3.778  12.476  0.5330 -1.0457 -0.5925
 4868TIP3   OH236018   0.115   5.780  12.057 -0.5642  0.4435 -0.2514
 4868TIP3    H136019   0.033   5.765  12.011 -1.5221  0.4049  1.4309
 4868TIP3    H236020   0.089   5.821  12.139  1.0050 -0.5987  0.7814
 4869TIP3   OH236021   0.716   4.617  12.225 -0.1869 -0.1029 -0.6578
 4869TIP3    H136022   0.778   4.554  12.261  0.3773  0.5522 -0.4629
 4869TIP3    H236023   0.679   4.661  12.302  0.7108  1.0067 -0.8427
 4870TIP3   OH236024   6.582   2.172  12.766  0.5403 -0.3516  0.7172
 4870TIP3    H136025   6.517   2.209  12.826  0.8218 -0.7220  1.2498
 4870TIP3    H236026   6.531   2.117  12.707  0.2470  0.1064  0.5447
 4871TIP3   OH236027   6.145   1.352  15.487  0.5604  0.0140  0.1433
 4871TIP3    H136028   6.115   1.381  15.573 -1.0884  0.1732 -0.4678
 4871TIP3    H236029   6.196   1.273  15.504  1.6097  0.9536  1.4133
 4872TIP3   OH236030   0.331   4.875  13.989  0.3838  0.0042  0.1213
 4872TIP3    H136031   0.296   4.900  13.904  1.7363 -1.6863 -0.9903
 4872TIP3    H236032   0.315   4.950  14.046 -1.1824  0.8760 -1.4362
 4873TIP3   OH236033   6.588   6.920  13.918  0.5149  0.1136 -0.0858
 4873TIP3    H136034   6.651   6.942  13.850  1.0155 -1.4980 -0.1763
 4873TIP3    H236035   6.512   6.887  13.869  0.5103 -0.1440  0.0942
 4874TIP3   OH236036   3.878   4.949  11.159 -0.3082 -0.2446 -0.0649
 4874TIP3    H136037   3.968   4.937  11.188 -0.1364  0.6570 -0.1982
 4874TIP3    H236038   3.870   4.891  11.083  0.3125  0.0259 -0.3467
 4875TIP3   OH236039   3.767   7.076  10.575 -0.2881 -0.1048 -0.4784
 4875TIP3    H136040   3.751   7.003  10.634 -0.1638  0.5767  0.4165
 4875TIP3    H236041   3.852   7.057  10.535  0.9290  0.7596  1.6187
 4876TIP3   OH236042   6.558   1.895  11.749 -0.4892 -0.1613  0.1818
 4876TIP3    H136043   6.636   1.895  11.804 -0.0190 -1.2305 -0.4777
 4876TIP3    H236044   6.493   1.848  11.802 -0.0279 -1.2183 -0.1801
 4877TIP3   OH236045   1.899   1.820  12.927 -0.3384  0.0585  0.2052
 4877TIP3    H136046   1.863   1.803  12.839  3.5465 -3.3251 -0.9287
 4877TIP3    H236047   1.858   1.754  12.983  0.8601 -1.0809 -0.2138
 4878TIP3   OH236048   0.968   0.961  12.266 -0.4002 -0.6343  0.2235
 4878TIP3    H136049   0.965   0.946  12.360  0.0649  2.5309  0.7884
 4878TIP3    H236050   1.045   1.017  12.253 -0.3346 -1.2095 -2.0574
 4879TIP3   OH236051   3.944   3.970  13.608  0.9274  0.0987  0.6530
 4879TIP3    H136052   3.870   3.983  13.549  0.0176 -3.1342  0.9525
 4879TIP3    H236053   3.980   3.885  13.582  3.8083  1.0677  1.3044
 4880TIP3   OH236054   0.176   3.776  11.319 -0.3328 -0.1010  0.2099
 4880TIP3    H136055   0.133   3.767  11.404  1.8393  0.2041  1.3831
 4880TIP3    H236056   0.175   3.688  11.282 -0.5067 -0.4238  0.9713
 4881TIP3   OH236057   3.349   0.489  14.965  0.0858 -0.1583  0.5601
 4881TIP3    H136058   3.401   0.562  14.998  0.2812 -0.0523  0.0258
 4881TIP3    H236059   3.261   0.503  15.000 -0.1523  0.9268 -0.4243
 4882TIP3   OH236060   0.074   1.812  11.977 -0.0594  0.4148 -0.2374
 4882TIP3    H136061   0.151   1.866  11.959 -0.0792  0.2642 -0.7616
 4882TIP3    H236062   0.020   1.867  12.034 -0.5781  1.3914 -1.6247
 4883TIP3   OH236063   3.835   4.671  13.569  0.4379 -0.3355 -0.3136
 4883TIP3    H136064   3.881   4.667  13.485 -1.3764  1.3907 -1.4093
 4883TIP3    H236065   3.754   4.717  13.550 -0.8303 -1.5441  2.0322
 4884TIP3   OH236066   4.776   2.339   1.212 -0.1185 -0.4480  0.1471
 4884TIP3    H136067   4.721   2.381   1.278  0.5637 -1.2263  1.2170
 4884TIP3    H236068   4.811   2.261   1.255  0.0721 -1.1475 -1.2360
 4885TIP3   OH236069   6.134   1.973  12.490  0.7022  0.7104 -0.4139
 4885TIP3    H136070   6.067   1.986  12.556  1.5236  2.0536  0.1629
 4885TIP3    H236071   6.122   1.883  12.461  1.0971 -0.2983  2.4148
 4886TIP3   OH236072   6.873   6.558  10.283  0.2440  0.1878 -0.2595
 4886TIP3    H136073   6.943   6.499  10.312 -1.2062 -0.4927  1.9680
 4886TIP3    H236074   6.873   6.629  10.348 -0.3734  0.7962 -0.9144
 4887TIP3   OH236075   3.200   2.401  11.905 -0.1432 -0.0794 -0.4551
 4887TIP3    H136076   3.215   2.326  11.848  1.5190  0.2512 -0.4847
 4887TIP3    H236077   3.288   2.431  11.929 -0.7968  0.8263  0.9076
 4888TIP3   OH236078   2.351   5.025  10.675  0.0062 -0.4474 -0.1564
 4888TIP3    H136079   2.337   5.096  10.738 -1.9000 -0.3973 -0.6023
 4888TIP3    H236080   2.348   5.068  10.589  1.2565 -0.7197 -0.3430
 4889TIP3   OH236081   6.829   6.020  12.756  0.3050  0.1498 -0.1403
 4889TIP3    H136082   6.811   5.999  12.665  1.7596  1.3159 -0.7139
 4889TIP3    H236083   6.743   6.037  12.794 -0.0782  2.8773 -2.1084
 4890TIP3   OH236084   0.297   2.824  10.388 -0.5844 -0.2803 -0.4169
 4890TIP3    H136085   0.269   2.907  10.349 -0.9711 -0.4857 -0.5759
 4890TIP3    H236086   0.224   2.796  10.442 -0.2667 -0.2807  0.0183
 4891TIP3   OH236087   5.435   1.640   0.664 -0.0395 -0.0586  0.0553
 4891TIP3    H136088   5.354   1.673   0.702 -0.4275  0.3501 -1.1118
 4891TIP3    H236089   5.410   1.559   0.619  0.4673 -0.6845  0.8747
 4892TIP3   OH236090   6.589   5.027  12.259  0.4073 -0.3474  0.1825
 4892TIP3    H136091   6.614   5.115  12.231 -1.0587 -0.1398 -0.5575
 4892TIP3    H236092   6.536   5.041  12.338  0.0245 -0.5406 -0.0362
 4893TIP3   OH236093   3.914   6.136  11.406 -0.2783  0.0984  0.4834
 4893TIP3    H136094   3.979   6.205  11.393 -0.8413  0.8540  1.6210
 4893TIP3    H236095   3.959   6.070  11.458  0.9344 -1.4097 -2.3449
 4894TIP3   OH236096   7.008   7.158  12.072  0.3530 -0.2077 -0.8728
 4894TIP3    H136097   7.005   7.065  12.050  0.0226 -0.1246 -1.1739
 4894TIP3    H236098   7.079   7.193  12.019  0.1236 -0.1808 -1.1632
 4895TIP3   OH236099   3.731   7.028  11.139  0.3480  0.1421  0.0638
 4895TIP3    H136100   3.783   6.985  11.207 -1.4674  0.2644  1.5684
 4895TIP3    H236101   3.751   7.121  11.148 -0.7625  0.2764  1.2062
 4896TIP3   OH236102   7.136   6.932  12.251 -0.0673  0.3606  0.2795
 4896TIP3    H136103   7.196   6.992  12.208  0.2529  0.0556  0.2980
 4896TIP3    H236104   7.111   6.977  12.332  0.4465  0.3254  0.4661
 4897TIP3   OH236105   2.984   6.928  11.941 -0.5423 -0.0699 -0.1651
 4897TIP3    H136106   2.959   6.920  11.849 -0.3062  1.4759 -0.3859
 4897TIP3    H236107   2.914   6.980  11.980 -0.9016 -1.1655  0.6481
 4898TIP3   OH236108   2.700   2.376  10.306 -0.1256 -0.2497  0.3554
 4898TIP3    H136109   2.769   2.434  10.338 -1.3313  1.4200  0.0034
 4898TIP3    H236110   2.683   2.316  10.379  1.9660 -0.9493  0.2898
 4899TIP3   OH236111   5.959   5.206  13.105 -0.4901 -0.5009  0.2700
 4899TIP3    H136112   5.962   5.190  13.200 -0.2510  1.8045  0.6661
 4899TIP3    H236113   5.934   5.298  13.097 -0.4796 -0.6740 -1.9198
 4900TIP3   OH236114   2.333   1.265  14.449 -0.2722  0.2418  0.0306
 4900TIP3    H136115   2.381   1.276  14.531 -0.6200  1.4046  0.0906
 4900TIP3    H236116   2.241   1.273  14.474 -0.5530 -2.5397  0.0074
 4901TIP3   OH236117   4.579   6.129  12.622  0.1329  0.2224  0.2840
 4901TIP3    H136118   4.488   6.111  12.646 -0.1311  0.7675 -0.2871
 4901TIP3    H236119   4.577   6.220  12.591  1.4459  1.3565  3.2603
 4902TIP3   OH236120   1.044   6.436  14.527 -0.6774  0.3046 -0.6281
 4902TIP3    H136121   0.955   6.425  14.492 -0.8259 -1.4571  0.2275
 4902TIP3    H236122   1.074   6.346  14.543  0.6220  0.9590  0.6610
 4903TIP3   OH236123   0.116   5.870  13.325  0.5601  0.3408 -0.1242
 4903TIP3    H136124   0.026   5.885  13.354  0.2831  1.0690 -1.3195
 4903TIP3    H236125   0.138   5.947  13.273  2.5615  1.0756  1.7465
 4904TIP3   OH236126   2.907   1.990  12.395 -0.2818  0.2160  0.2416
 4904TIP3    H136127   2.873   1.939  12.321  2.2903  0.1629 -0.9581
 4904TIP3    H236128   2.950   1.925  12.450  1.7494  0.8426 -0.5572
 4905TIP3   OH236129   1.819   6.078  10.862 -0.1364  0.4532  0.2776
 4905TIP3    H136130   1.761   6.146  10.828 -0.8738  0.3868  1.3854
 4905TIP3    H236131   1.790   5.998  10.820 -0.0376  0.6309 -0.1276
 4906TIP3   OH236132   3.448   0.076  10.183 -0.3155  0.3108  0.2199
 4906TIP3    H136133   3.482   0.155  10.225  0.6770 -0.3009  0.6157
 4906TIP3    H236134   3.488   0.004  10.234 -1.3004 -0.4328 -0.0525
 4907TIP3   OH236135   2.116   4.065  11.348  0.9322  0.0424  0.2744
 4907TIP3    H136136   2.102   4.029  11.260  1.1787  2.3521 -0.7447
 4907TIP3    H236137   2.200   4.030  11.375  0.9669 -0.4979 -0.5037
 4908TIP3   OH236138   4.055   5.022  15.046 -0.6574  0.2357  0.0134
 4908TIP3    H136139   4.137   4.974  15.038 -1.0121 -0.2131 -0.9999
 4908TIP3    H236140   3.989   4.964  15.009 -1.3719  0.7768  0.4063
 4909TIP3   OH236141   4.557   0.703  10.342  0.4032 -0.1740 -0.0123
 4909TIP3    H136142   4.609   0.718  10.264  2.7617 -0.3974  1.4553
 4909TIP3    H236143   4.479   0.656  10.311  2.3731 -2.2938 -1.9217
 4910TIP3   OH236144   4.168   2.193  14.596  0.1758  0.0691 -0.5362
 4910TIP3    H136145   4.192   2.262  14.658 -0.2896  0.1666 -0.4647
 4910TIP3    H236146   4.081   2.218  14.565 -0.1100 -0.6390 -0.2948
 4911TIP3   OH236147   2.924   5.191  11.966  0.3387 -0.1275 -0.0614
 4911TIP3    H136148   2.925   5.273  11.918  0.8667  1.0533  1.8927
 4911TIP3    H236149   2.923   5.123  11.899  1.9114  1.4478 -1.7129
 4912TIP3   OH236150   1.480   0.959  11.389  0.0726  0.3383 -1.0033
 4912TIP3    H136151   1.459   1.027  11.452 -1.0360 -0.7325 -0.1765
 4912TIP3    H236152   1.539   0.900  11.436 -0.4421 -0.2483 -1.0722
 4913TIP3   OH236153   0.951   6.865  10.248 -0.2866 -0.3062  0.3967
 4913TIP3    H136154   0.864   6.841  10.281 -0.5272 -0.8429 -0.5947
 4913TIP3    H236155   0.944   6.853  10.153  1.2163 -1.5107  0.4222
 4914TIP3   OH236156   4.067   0.175  11.433  0.3597  0.4276  0.0632
 4914TIP3    H136157   4.100   0.239  11.370  1.2369  1.0592  1.1483
 4914TIP3    H236158   4.006   0.225  11.487  0.3585  0.1202  0.3435
 4915TIP3   OH236159   1.734   3.197  11.289  0.8349 -0.1263  0.2131
 4915TIP3    H136160   1.676   3.125  11.264  0.8417 -1.2046  3.1368
 4915TIP3    H236161   1.818   3.175  11.249 -0.1876  0.4071 -2.3496
 4916TIP3   OH236162   3.966   5.862  10.400  0.5349  0.4697  0.0227
 4916TIP3    H136163   3.951   5.862  10.305 -0.9884 -0.6343  0.2539
 4916TIP3    H236164   3.879   5.853  10.438  1.1385  0.9809  1.5443
 4917TIP3   OH236165   6.581   4.212  12.443 -0.0657  0.4555 -0.3071
 4917TIP3    H136166   6.664   4.238  12.484 -0.4833 -1.0552  1.5377
 4917TIP3    H236167   6.518   4.278  12.471  0.1338  0.6496 -0.3190
 4918TIP3   OH236168   1.863   6.128  14.640 -0.3089  0.3949  0.0671
 4918TIP3    H136169   1.799   6.181  14.592  0.1338  1.1952  0.3536
 4918TIP3    H236170   1.854   6.040  14.603 -0.9926  0.6854 -0.4693
 4919TIP3   OH236171   2.896   6.638  12.833  0.1379 -0.4152  0.1904
 4919TIP3    H136172   2.932   6.694  12.902  1.7213 -0.9710 -0.1585
 4919TIP3    H236173   2.959   6.646  12.761 -0.0222 -2.0492 -0.1393
 4920TIP3   OH236174   1.707   1.734  11.919  0.2953  0.1165  0.1975
 4920TIP3    H136175   1.769   1.662  11.912 -0.1269 -0.1969 -0.3643
 4920TIP3    H236176   1.661   1.734  11.835 -0.6867  0.1404  0.7323
 4921TIP3   OH236177   4.147   4.864  11.183  0.2919  0.2673 -0.3567
 4921TIP3    H136178   4.180   4.787  11.228 -1.0443 -0.4853 -0.6491
 4921TIP3    H236179   4.159   4.845  11.090  2.0460  1.3670 -0.3762
 4922TIP3   OH236180   6.371   2.071  11.908 -0.2594 -0.1953  0.0276
 4922TIP3    H136181   6.388   2.081  11.814  0.2017  0.5188  0.1786
 4922TIP3    H236182   6.349   1.979  11.919 -2.5691  0.1764 -1.1375
 4923TIP3   OH236183   0.952   1.064  11.330  0.3896  0.1416 -0.0640
 4923TIP3    H136184   0.984   1.087  11.417  0.6015 -0.8847  0.1379
 4923TIP3    H236185   0.943   1.148  11.285 -1.7576  0.8824  1.6276
 4924TIP3   OH236186   1.954   2.710   9.639 -0.0512 -0.0196  0.1119
 4924TIP3    H136187   2.008   2.640   9.675  0.7594  1.3344  1.6409
 4924TIP3    H236188   1.895   2.734   9.712  0.0704  1.2509 -0.1926
 4925TIP3   OH236189   0.219   2.672  10.828 -0.1682  0.0567 -0.0088
 4925TIP3    H136190   0.298   2.723  10.812  0.0666 -0.1663  0.4563
 4925TIP3    H236191   0.233   2.590  10.781 -0.1273  0.0249  0.0577
 4926TIP3   OH236192   1.793   2.828  12.567 -0.2295  0.3591  0.2454
 4926TIP3    H136193   1.813   2.772  12.493 -0.7169 -1.0536  1.1573
 4926TIP3    H236194   1.871   2.824  12.622 -0.1542  0.8177  0.1766
 4927TIP3   OH236195   5.143   1.948   1.168 -0.5838  0.2393 -0.8986
 4927TIP3    H136196   5.164   2.002   1.091 -0.1628  1.5013  0.0803
 4927TIP3    H236197   5.047   1.946   1.170 -0.6059  1.0003 -0.9228
 4928TIP3   OH236198   5.773   3.788   9.927 -0.2951  0.4226  0.1931
 4928TIP3    H136199   5.781   3.706   9.976  1.7871  0.9577  0.8039
 4928TIP3    H236200   5.722   3.845   9.985  0.0458  0.2331  0.6929
 4929TIP3   OH236201   6.074   0.281  12.989  0.3551 -0.1520 -0.0288
 4929TIP3    H136202   6.019   0.208  12.961  1.8794 -1.9415  1.5207
 4929TIP3    H236203   6.017   0.334  13.045 -1.0556  0.4482 -1.9728
 4930TIP3   OH236204   3.022   4.774  13.721  0.0526  0.1528 -0.1134
 4930TIP3    H136205   2.938   4.819  13.722  1.1128  2.2138 -0.6854
 4930TIP3    H236206   3.054   4.786  13.632  1.5197  0.4336  0.4474
 4931TIP3   OH236207   2.975   4.517  12.318  0.0250  0.2490 -0.7113
 4931TIP3    H136208   2.993   4.578  12.390 -0.0038 -1.0030  0.3690
 4931TIP3    H236209   3.018   4.556  12.242  3.2620 -0.2808  0.7829
 4932TIP3   OH236210   6.329   2.800  13.029 -0.8284 -0.5305 -0.5720
 4932TIP3    H136211   6.349   2.774  13.119 -3.2919  0.7060  0.3652
 4932TIP3    H236212   6.415   2.817  12.990  0.2370 -0.2963  1.7894
 4933TIP3   OH236213   6.500   5.207   9.569  0.0702  0.2279  0.6051
 4933TIP3    H136214   6.521   5.153   9.646  0.8870  2.0599  1.6825
 4933TIP3    H236215   6.574   5.194   9.510  0.7349  0.9319  1.2806
 4934TIP3   OH236216   3.202   3.409  15.147 -0.6955  0.2770  0.0879
 4934TIP3    H136217   3.259   3.480  15.178  0.2941 -0.7565  0.6800
 4934TIP3    H236218   3.195   3.423  15.053  1.5901 -0.2977 -0.1980
 4935TIP3   OH236219   1.358   6.689  12.734  0.0602 -0.1021  0.6810
 4935TIP3    H136220   1.268   6.675  12.762 -0.4950 -0.1787 -1.1030
 4935TIP3    H236221   1.407   6.616  12.773 -0.8537 -0.7175  0.6864
 4936TIP3   OH236222   7.118   7.036  11.311 -0.2584  0.3786  0.0531
 4936TIP3    H136223   7.099   6.943  11.299 -0.0615  0.0602  1.9715
 4936TIP3    H236224   7.159   7.063  11.229 -0.8567 -1.0752 -0.7476
 4937TIP3   OH236225   1.969   0.577  11.440  0.6507 -0.1657 -0.4206
 4937TIP3    H136226   2.003   0.493  11.408  2.3346  0.5236 -0.5196
 4937TIP3    H236227   2.021   0.595  11.518 -1.5206 -0.4867  1.1192
 4938TIP3   OH236228   1.458   6.251  13.936 -0.1948  0.2400 -0.0683
 4938TIP3    H136229   1.539   6.297  13.958  0.1376 -0.2802 -0.2025
 4938TIP3    H236230   1.389   6.303  13.977  0.2251  0.5584  0.2371
 4939TIP3   OH236231   0.427   2.577  14.752 -0.5523 -0.1752  0.6209
 4939TIP3    H136232   0.462   2.495  14.787 -0.8382 -1.3316 -1.7110
 4939TIP3    H236233   0.504   2.630  14.732 -0.3847  0.5766  3.0627
 4940TIP3   OH236234   0.352   5.663  12.138 -0.2457 -1.0476 -0.2778
 4940TIP3    H136235   0.264   5.691  12.115 -0.3534 -0.0114  1.3176
 4940TIP3    H236236   0.367   5.700  12.225  1.8809 -0.9601 -0.6567
 4941TIP3   OH236237   4.944   3.649   0.103 -0.4204 -0.1446  0.2479
 4941TIP3    H136238   4.918   3.559   0.119  0.9439 -0.4603  0.7399
 4941TIP3    H236239   4.966   3.652   0.010 -1.1130 -0.1463  0.0814
 4942TIP3   OH236240   3.508   2.803  12.448 -0.0099 -0.2125  0.7061
 4942TIP3    H136241   3.576   2.771  12.389 -1.5202 -0.1583 -1.0900
 4942TIP3    H236242   3.557   2.841  12.522  1.8890 -0.8167 -0.2060
 4943TIP3   OH236243   1.605   0.807  10.387  0.5070 -0.3850 -0.5575
 4943TIP3    H136244   1.646   0.813  10.474 -0.3058 -0.7194 -0.1471
 4943TIP3    H236245   1.596   0.713  10.371 -0.4992 -0.3063 -0.4564
 4944TIP3   OH236246   5.272   4.154  12.668 -0.5435 -0.4259 -0.0407
 4944TIP3    H136247   5.342   4.148  12.603  0.5407  1.3535  0.9208
 4944TIP3    H236248   5.292   4.084  12.731  0.7209  0.4272  0.5317
 4945TIP3   OH236249   1.766   2.063  13.053 -0.3508  0.1092 -0.1086
 4945TIP3    H136250   1.690   2.029  13.100 -1.9097  1.8969 -1.2826
 4945TIP3    H236251   1.801   1.987  13.006 -3.6027 -0.0207 -2.4590
 4946TIP3   OH236252   2.202   5.526  10.283  0.4682 -0.5464  0.2382
 4946TIP3    H136253   2.249   5.450  10.250  0.5632 -0.5136  0.2984
 4946TIP3    H236254   2.183   5.578  10.205  0.4985 -0.5783  0.2091
 4947TIP3   OH236255   3.180   6.622  10.622 -0.2938  0.6098  0.2526
 4947TIP3    H136256   3.115   6.600  10.688  0.5512 -0.1086  0.8516
 4947TIP3    H236257   3.264   6.610  10.666  0.3349 -1.5884 -1.4189
 4948TIP3   OH236258   0.766   2.318  11.825  0.1357 -0.0331  0.3030
 4948TIP3    H136259   0.781   2.413  11.829  0.0771 -0.0439  0.8126
 4948TIP3    H236260   0.757   2.299  11.731  1.9895  0.1792  0.0620
 4949TIP3   OH236261   7.139   6.617  11.027 -0.2846  0.4052 -0.0423
 4949TIP3    H136262   7.086   6.654  10.957 -1.2346  0.4168  0.6715
 4949TIP3    H236263   7.211   6.573  10.982 -1.1704 -0.0351 -1.0504
 4950TIP3   OH236264   6.942   5.279   9.023 -0.2232  0.1720 -1.0477
 4950TIP3    H136265   6.999   5.281   9.099  0.2714  0.5894 -1.4214
 4950TIP3    H236266   6.978   5.210   8.967  1.4534  2.0888 -2.4351
 4951TIP3   OH236267   2.801   3.598  13.719  0.5175 -0.1719  0.7085
 4951TIP3    H136268   2.749   3.534  13.767 -1.1482 -0.6029 -1.5593
 4951TIP3    H236269   2.890   3.563  13.720 -0.1110 -1.8167  0.6952
 4952TIP3   OH236270   1.623   4.742  14.810 -0.1977 -0.2076 -0.4514
 4952TIP3    H136271   1.613   4.835  14.833  0.4613 -0.1297 -0.4705
 4952TIP3    H236272   1.533   4.709  14.805 -0.3865  0.0333  1.1778
 4953TIP3   OH236273   1.551   0.501  10.129 -0.1022  0.5355  0.2568
 4953TIP3    H136274   1.577   0.593  10.125  0.0638  0.4634 -0.5102
 4953TIP3    H236275   1.468   0.498  10.081  0.8644 -0.0356 -1.4193
 4954TIP3   OH236276   7.128   0.299  12.278 -0.7390 -0.3503  0.1499
 4954TIP3    H136277   7.074   0.225  12.305 -0.4861 -0.3318  0.7044
 4954TIP3    H236278   7.166   0.271  12.194 -0.5864 -0.8760  0.3914
 4955TIP3   OH236279   4.562   4.577  12.377  0.6276  0.1544  0.4578
 4955TIP3    H136280   4.478   4.600  12.336  1.3864  1.5718 -0.3424
 4955TIP3    H236281   4.546   4.492  12.418 -1.2407  0.4594  0.4211
 4956TIP3   OH236282   1.483   5.999  10.290 -0.2261 -0.1830  0.1536
 4956TIP3    H136283   1.419   6.069  10.291 -0.3296 -0.2799  1.2757
 4956TIP3    H236284   1.436   5.923  10.255 -1.1996 -0.6785  2.4462
 4957TIP3   OH236285   2.846   3.232  14.552  0.1261 -0.2363  0.3563
 4957TIP3    H136286   2.897   3.174  14.496  0.5449 -1.1799  1.6795
 4957TIP3    H236287   2.909   3.298  14.582  0.0023  0.0184  0.0576
 4958TIP3   OH236288   3.620   4.150  13.309  0.3147 -0.7464  0.0126
 4958TIP3    H136289   3.557   4.170  13.240  1.0339  0.2028 -0.3717
 4958TIP3    H236290   3.605   4.218  13.375  0.3874 -1.0001  0.2946
 4959TIP3   OH236291   5.715   1.081  14.056  0.1889  0.3659 -0.3878
 4959TIP3    H136292   5.715   0.998  14.008  1.1078  1.2659 -1.9675
 4959TIP3    H236293   5.749   1.145  13.994 -0.1932  1.8771  0.9273
 4960TIP3   OH236294   5.518   2.818  11.788 -0.5349  0.3778 -0.5099
 4960TIP3    H136295   5.503   2.801  11.695  0.5536 -2.9595 -0.1370
 4960TIP3    H236296   5.611   2.840  11.795 -0.5824  0.4877 -0.1955
 4961TIP3   OH236297   6.425   0.178  15.339 -0.4582  0.8171 -0.0553
 4961TIP3    H136298   6.437   0.144  15.251 -0.1937 -0.7250  0.5649
 4961TIP3    H236299   6.514   0.197  15.370 -0.5712  1.6586 -0.2245
 4962TIP3   OH236300   2.343   5.883  11.416 -0.6135 -0.1539 -0.3668
 4962TIP3    H136301   2.390   5.864  11.497 -0.1197  1.3122 -0.2871
 4962TIP3    H236302   2.295   5.964  11.434 -0.9720 -0.1362 -1.3441
 4963TIP3   OH236303   0.274   1.118  14.486 -0.4889  0.3195 -0.2110
 4963TIP3    H136304   0.200   1.177  14.501 -0.5204 -0.1227  1.4589
 4963TIP3    H236305   0.252   1.072  14.405 -1.3172  1.3059 -0.5528
 4964TIP3   OH236306   1.180   4.706  10.886 -0.2507  0.0623 -0.3175
 4964TIP3    H136307   1.254   4.767  10.881  0.2539 -0.6004 -1.1458
 4964TIP3    H236308   1.219   4.624  10.917 -0.6109 -0.3192 -0.8556
 4965TIP3   OH236309   6.695   3.744  14.581  0.4325 -0.2396  0.2476
 4965TIP3    H136310   6.786   3.729  14.607  0.6410  0.4536 -0.0804
 4965TIP3    H236311   6.669   3.661  14.541 -0.0147 -1.4762  2.9474
 4966TIP3   OH236312   0.570   2.005  13.016  0.6022  0.0734  0.4077
 4966TIP3    H136313   0.545   1.959  12.935  0.2787 -1.1234  1.1761
 4966TIP3    H236314   0.665   2.003  13.016  0.6344  1.1389 -0.5454
 4967TIP3   OH236315   6.621   5.035  11.016 -0.5071  0.3340  0.5566
 4967TIP3    H136316   6.570   4.972  11.068 -0.9457  1.0683  1.0211
 4967TIP3    H236317   6.584   5.120  11.037 -0.4557  0.6845 -0.7030
 4968TIP3   OH236318   2.706   0.576  10.890 -0.1234  0.2353 -0.4931
 4968TIP3    H136319   2.741   0.650  10.840 -1.3517  2.1129  1.3334
 4968TIP3    H236320   2.749   0.582  10.976 -1.7268  0.0448  0.3530
 4969TIP3   OH236321   4.084   3.988  12.155 -0.2333 -0.3986 -0.6058
 4969TIP3    H136322   4.037   3.931  12.093 -1.9056  0.9966 -0.6612
 4969TIP3    H236323   4.104   3.931  12.229 -1.6584 -1.1405 -0.7695
 4970TIP3   OH236324   6.712   6.490  11.997 -0.2549  0.3827 -0.5546
 4970TIP3    H136325   6.667   6.437  11.931 -0.1267 -1.4766  0.8040
 4970TIP3    H236326   6.665   6.471  12.078  1.0387  0.8338  0.3107
 4971TIP3   OH236327   0.785   6.583   0.042 -0.4036  0.2407 -0.1891
 4971TIP3    H136328   0.732   6.557   0.117  0.0642 -1.8285 -0.5508
 4971TIP3    H236329   0.768   6.677   0.033 -3.3711 -0.1850  0.2130
 4972TIP3   OH236330   5.730   2.590   0.303  0.1244  0.0713 -0.4937
 4972TIP3    H136331   5.818   2.622   0.325 -0.8662  1.4140  1.7900
 4972TIP3    H236332   5.693   2.658   0.247 -0.7720  1.4279  1.6454
 4973TIP3   OH236333   2.368   3.166  13.712  0.3290 -0.2721  0.4149
 4973TIP3    H136334   2.341   3.253  13.683 -0.3746 -0.7673 -0.4371
 4973TIP3    H236335   2.452   3.181  13.757 -1.4207  1.3187  3.2977
 4974TIP3   OH236336   0.514   4.463  11.642  0.1052 -0.0143  0.0921
 4974TIP3    H136337   0.446   4.398  11.624 -0.3808  0.8143 -1.1807
 4974TIP3    H236338   0.472   4.525  11.702 -0.2402  0.4502 -0.6244
 4975TIP3   OH236339   2.064   4.376  12.941  0.4509  0.6065 -0.4070
 4975TIP3    H136340   2.006   4.452  12.938  1.7692  1.6659  0.3847
 4975TIP3    H236341   2.150   4.410  12.916  1.3199 -0.3390  1.1858
 4976TIP3   OH236342   0.947   6.104  11.955  0.2828  0.4233  0.5603
 4976TIP3    H136343   0.996   6.169  12.007  1.5775  0.6538 -0.8940
 4976TIP3    H236344   0.987   6.020  11.979  2.4908  0.7575 -1.7433
 4977TIP3   OH236345   3.923   2.811  12.521  0.1035  0.4613  0.6132
 4977TIP3    H136346   3.941   2.791  12.613 -0.2548  2.5154  1.1409
 4977TIP3    H236347   4.007   2.796  12.477  0.8275  1.4982  1.6205
 4978TIP3   OH236348   2.000   5.705  13.028  0.3033  0.3382 -0.0338
 4978TIP3    H136349   2.023   5.733  13.117 -0.0050 -3.0204  1.1798
 4978TIP3    H236350   2.081   5.711  12.978  0.4657  2.3116  0.4518
 4979TIP3   OH236351   2.152   5.581  11.730  0.4949  0.4289 -0.8633
 4979TIP3    H136352   2.076   5.567  11.786  0.9707 -0.4429 -0.4299
 4979TIP3    H236353   2.163   5.676  11.727  0.6323  0.4797  0.7502
 4980TIP3   OH236354   2.426   6.104  12.367  0.1212  0.3579 -0.2742
 4980TIP3    H136355   2.417   6.153  12.449 -0.0392  0.5910 -0.4321
 4980TIP3    H236356   2.476   6.162  12.310  0.3318  0.1481 -0.3014
 4981TIP3   OH236357   5.257   6.348  10.849  0.1274 -1.1144  0.3582
 4981TIP3    H136358   5.312   6.300  10.788  1.2773  2.2877 -1.4001
 4981TIP3    H236359   5.173   6.303  10.847  0.9190 -2.5200 -1.8358
 4982TIP3   OH236360   5.691   5.782  12.378 -0.0315  0.2989  0.1559
 4982TIP3    H136361   5.724   5.864  12.341  1.7942 -0.8189 -0.7595
 4982TIP3    H236362   5.713   5.787  12.471 -0.8155  1.2538  0.3020
 4983TIP3   OH236363   4.081   6.140  14.010  0.4672  0.2381 -0.3185
 4983TIP3    H136364   4.098   6.212  13.949 -0.1267  0.2496 -0.4735
 4983TIP3    H236365   4.010   6.090  13.970  0.8281 -0.3961 -0.1721
 4984TIP3   OH236366   6.342   5.573  14.409  0.1858 -0.0157 -0.2953
 4984TIP3    H136367   6.280   5.578  14.336  1.7505 -0.2501 -1.6556
 4984TIP3    H236368   6.363   5.665  14.428 -0.0046  0.0326 -0.3174
 4985TIP3   OH236369   6.593   1.736  13.022  0.3985 -0.1513 -0.4377
 4985TIP3    H136370   6.674   1.781  12.998  0.5263 -1.2776 -2.1899
 4985TIP3    H236371   6.620   1.647  13.044 -0.3125 -0.4257 -0.6634
 4986TIP3   OH236372   2.219   6.404  12.076  0.2730 -0.5004 -0.3136
 4986TIP3    H136373   2.131   6.366  12.071 -0.1229  0.3740 -0.1153
 4986TIP3    H236374   2.278   6.328  12.082 -0.5216 -1.0706  0.3641
 4987TIP3   OH236375   6.942   6.217  10.914  0.5474 -0.3885  0.0785
 4987TIP3    H136376   6.873   6.278  10.887 -0.5195 -1.5961  0.0510
 4987TIP3    H236377   7.012   6.232  10.850 -0.2536 -0.1665 -0.7652
 4988TIP3   OH236378   1.497   5.384  12.420  0.4585 -0.4226 -0.4980
 4988TIP3    H136379   1.505   5.289  12.412  1.0660 -0.3982 -0.2522
 4988TIP3    H236380   1.573   5.418  12.373  0.9448 -0.1026  0.5052
 4989TIP3   OH236381   2.181   4.548   0.460 -0.3973  0.7960  0.3477
 4989TIP3    H136382   2.116   4.617   0.474 -0.1344  0.5837  3.0047
 4989TIP3    H236383   2.254   4.573   0.517  0.4010 -0.7836  0.0431
 4990TIP3   OH236384   2.839   0.888  12.789  0.0533 -0.3574 -0.3485
 4990TIP3    H136385   2.920   0.938  12.802  0.1445 -0.5756 -0.0657
 4990TIP3    H236386   2.812   0.909  12.700 -0.2776  0.7324 -0.0094
 4991TIP3   OH236387   6.167   3.851  13.135  0.1576  0.5875  0.5829
 4991TIP3    H136388   6.210   3.774  13.173 -0.3278 -0.3635 -0.7408
 4991TIP3    H236389   6.216   3.926  13.170  3.4357 -0.4715 -1.5334
 4992TIP3   OH236390   6.503   4.334  11.202  0.3680  0.0509  0.3942
 4992TIP3    H136391   6.566   4.265  11.222  1.5999  1.3859  1.1619
 4992TIP3    H236392   6.539   4.378  11.125 -0.0835  0.2829  0.3125
 4993TIP3   OH236393   4.687   5.173   0.360  0.0073  0.4052 -0.6062
 4993TIP3    H136394   4.738   5.169   0.279  0.7187  1.1155 -0.2011
 4993TIP3    H236395   4.640   5.256   0.354 -1.0089 -0.1817 -0.9132
 4994TIP3   OH236396   6.096   0.675  13.416 -0.1955  0.1667  0.6415
 4994TIP3    H136397   6.119   0.651  13.326 -0.5092 -0.5626  0.7477
 4994TIP3    H236398   6.145   0.756  13.433  0.9525 -0.4284  0.2790
 4995TIP3   OH236399   0.030   5.753  11.343 -0.6776  0.6778  0.0621
 4995TIP3    H136400  -0.006   5.815  11.406 -0.2853  2.7109 -1.6669
 4995TIP3    H236401   0.123   5.775  11.338 -0.6528  0.3587 -1.0299
 4996TIP3   OH236402   2.184   5.830  10.343 -0.4089 -0.3154 -0.3917
 4996TIP3    H136403   2.100   5.858  10.307 -0.7481  0.0179  0.6361
 4996TIP3    H236404   2.166   5.814  10.436  1.0671  1.5513  0.2449
 4997TIP3   OH236405   1.255   2.810  12.545  0.1287 -0.0953  0.6137
 4997TIP3    H136406   1.338   2.764  12.549  0.4348  0.3920 -0.0597
 4997TIP3    H236407   1.205   2.776  12.619 -0.0173 -2.2214 -0.4421
 4998TIP3   OH236408   1.483   3.962   0.206  0.4377  0.4279 -0.2030
 4998TIP3    H136409   1.399   3.982   0.165  0.4249  1.5180  0.3367
 4998TIP3    H236410   1.483   3.868   0.218 -0.2139  0.2857 -1.2939
 4999TIP3   OH236411   5.773   5.664  11.887  0.0018 -0.2415  0.2212
 4999TIP3    H136412   5.809   5.650  11.799 -1.8775 -0.9960 -0.4619
 4999TIP3    H236413   5.797   5.755  11.908  1.4295 -0.4133 -0.5937
 5000TIP3   OH236414   5.191   3.892  12.102  0.5275 -0.2169 -0.5587
 5000TIP3    H136415   5.101   3.863  12.088  0.4521 -0.1403 -0.2446
 5000TIP3    H236416   5.217   3.851  12.185  0.8358 -0.3676 -0.7278
 5001TIP3   OH236417   0.383   3.991  13.898  0.0211 -0.5456 -0.4310
 5001TIP3    H136418   0.337   3.913  13.930 -0.8078 -0.3619 -1.1318
 5001TIP3    H236419   0.321   4.062  13.915  0.1195 -0.2711 -1.2401
 5002TIP3   OH236420   3.554   5.361   0.848  0.5830 -0.1152 -0.3233
 5002TIP3    H136421   3.575   5.277   0.890  2.5125  0.1255 -0.7669
 5002TIP3    H236422   3.588   5.427   0.908  0.8268  0.3024 -0.9159
 5003TIP3   OH236423   4.837   4.574  12.381  0.8617 -0.2951  0.4861
 5003TIP3    H136424   4.745   4.595  12.367  0.9267 -0.2881  0.0852
 5003TIP3    H236425   4.836   4.490  12.427  0.6492 -0.1576  0.7364
 5004TIP3   OH236426   3.010   4.859  10.340 -0.1434  0.1476 -0.0714
 5004TIP3    H136427   3.019   4.789  10.405  0.1207 -0.2527 -0.5321
 5004TIP3    H236428   3.060   4.827  10.264  0.4957  1.1037 -0.0587
 5005TIP3   OH236429   1.630   1.579  10.654 -0.1350  0.0658 -0.7004
 5005TIP3    H136430   1.658   1.570  10.563  0.1259  0.9594 -0.7117
 5005TIP3    H236431   1.701   1.627  10.696  0.1651 -1.1253  0.1880
 5006TIP3   OH236432   3.526   2.501   9.907 -0.5093 -0.2092 -0.1081
 5006TIP3    H136433   3.571   2.582   9.879  0.2414  0.0579  1.7898
 5006TIP3    H236434   3.516   2.450   9.826  0.3505  1.1362 -1.0853
 5007TIP3   OH236435   5.060   3.670  10.776 -0.0178 -0.1466  0.1403
 5007TIP3    H136436   4.975   3.707  10.799 -0.1577  0.5113 -1.3745
 5007TIP3    H236437   5.122   3.742  10.789  0.4948 -0.9224  2.2691
 5008TIP3   OH236438   1.328   1.030   9.961  0.3118  0.9166 -0.0066
 5008TIP3    H136439   1.289   1.114   9.935 -1.0726  0.8673  1.7694
 5008TIP3    H236440   1.253   0.971   9.972  1.0941  0.0550  0.8284
 5009TIP3   OH236441   2.380   3.464  11.507 -0.0581  0.4209  0.0167
 5009TIP3    H136442   2.328   3.503  11.437 -1.6742  1.6594  1.8609
 5009TIP3    H236443   2.345   3.376  11.516  1.0929 -0.2314 -1.6449
 5010TIP3   OH236444   6.741   4.786   9.996 -0.1844 -0.3941 -0.3122
 5010TIP3    H136445   6.664   4.800   9.942 -1.4990 -2.0705  1.0885
 5010TIP3    H236446   6.747   4.691  10.007  1.1422 -0.1940  0.9307
 5011TIP3   OH236447   1.368   0.796  12.800 -0.3301  0.5080 -0.3899
 5011TIP3    H136448   1.353   0.806  12.894 -3.8203  0.7193 -0.9056
 5011TIP3    H236449   1.350   0.703  12.782  0.8446  0.3462 -0.7694
 5012TIP3   OH236450   5.928   4.903  10.598 -0.2900 -0.5198  0.5162
 5012TIP3    H136451   6.002   4.868  10.647  0.3464 -0.3277 -0.3021
 5012TIP3    H236452   5.967   4.948  10.523 -1.2864 -1.7131 -0.7542
 5013TIP3   OH236453   0.694   0.919  11.954 -0.0612 -0.2532 -0.7200
 5013TIP3    H136454   0.781   0.954  11.970 -0.5383  0.5647  0.1738
 5013TIP3    H236455   0.665   0.886  12.039 -0.2462 -1.3998 -1.2201
 5014TIP3   OH236456   3.492   0.599  10.612 -0.3363  0.6728 -0.0940
 5014TIP3    H136457   3.445   0.515  10.612 -0.1782  0.5533  1.5052
 5014TIP3    H236458   3.584   0.574  10.624 -0.1947  1.0301 -0.4698
 5015TIP3   OH236459   3.382   5.505  13.386 -0.5057  0.1278 -0.3218
 5015TIP3    H136460   3.385   5.467  13.298 -0.6231  0.8749 -0.6519
 5015TIP3    H236461   3.314   5.572  13.381  0.0357  0.7171  0.1149
 5016TIP3   OH236462   3.590   1.885  13.024  0.3821  0.3580  0.0808
 5016TIP3    H136463   3.510   1.897  12.973 -0.4538 -2.4445  0.6123
 5016TIP3    H236464   3.563   1.901  13.114  0.3005 -0.8734  0.2920
 5017TIP3   OH236465   0.458   1.885  11.824 -0.4701  0.4146  0.0700
 5017TIP3    H136466   0.523   1.815  11.828 -0.2221  0.6778  0.6114
 5017TIP3    H236467   0.505   1.963  11.853 -1.0083  0.6235  0.3785
 5018TIP3   OH236468   2.930   4.322   0.304 -0.1576  0.3795 -0.0995
 5018TIP3    H136469   2.855   4.380   0.315  0.0301  0.5847  0.1233
 5018TIP3    H236470   2.996   4.357   0.365  0.8652  1.4475 -1.7916
 5019TIP3   OH236471   5.858   1.119  15.077 -0.5725  0.3021 -0.2234
 5019TIP3    H136472   5.904   1.186  15.027 -0.9488  1.5893  1.1071
 5019TIP3    H236473   5.921   1.047  15.085  0.0399  0.7232 -1.1720
 5020TIP3   OH236474   1.272   2.348  12.514 -0.6566 -0.2465  0.1471
 5020TIP3    H136475   1.325   2.405  12.569 -0.2814  1.4352 -1.8840
 5020TIP3    H236476   1.205   2.314  12.573  1.3407 -0.6736  2.2573
 5021TIP3   OH236477   0.496   2.500  11.010 -0.2980  0.1391  0.4022
 5021TIP3    H136478   0.579   2.487  10.964 -0.6149 -0.3851 -0.0332
 5021TIP3    H236479   0.510   2.461  11.097 -0.8946 -2.3233 -0.5372
 5022TIP3   OH236480   2.061   4.542  10.187  0.1669  0.4323  0.3985
 5022TIP3    H136481   2.049   4.536  10.092 -0.0710 -1.6876  0.5347
 5022TIP3    H236482   2.149   4.508  10.202  0.4375  1.3279  0.9009
 5023TIP3   OH236483   2.976   3.274  13.424 -0.1551 -0.0647  0.3259
 5023TIP3    H136484   3.005   3.217  13.352  0.5162  1.1371 -0.3742
 5023TIP3    H236485   3.056   3.319  13.452 -0.7840  0.9337  0.5174
 5024TIP3   OH236486   0.586   0.653  13.534 -0.9766 -0.9781  0.3366
 5024TIP3    H136487   0.533   0.682  13.608 -1.8850 -1.2356 -0.2142
 5024TIP3    H236488   0.580   0.725  13.470 -1.3611 -1.3726 -0.0781
 5025TIP3   OH236489   5.533   2.032  13.746 -0.3804 -0.1237 -0.0782
 5025TIP3    H136490   5.569   1.975  13.815 -1.7244 -1.0631 -0.1278
 5025TIP3    H236491   5.605   2.091  13.724  0.4741 -0.6376  1.2420
 5026TIP3   OH236492   1.368   3.559  14.858 -0.4770  0.0964  0.1495
 5026TIP3    H136493   1.441   3.500  14.837  0.0761  0.6943  0.4051
 5026TIP3    H236494   1.405   3.623  14.918 -1.1352  0.5886  0.0304
 5027TIP3   OH236495   4.060   2.528  14.610 -0.2393 -0.0958  0.1542
 5027TIP3    H136496   4.032   2.510  14.700 -1.5789  0.5441 -0.1103
 5027TIP3    H236497   4.009   2.466  14.557 -1.2459  1.1349 -0.3456
 5028TIP3   OH236498   6.462   0.432  14.143  0.7648  0.2256 -0.1238
 5028TIP3    H136499   6.439   0.516  14.182 -3.2007  0.2931 -2.3616
 5028TIP3    H236500   6.475   0.374  14.218 -1.0483  1.7128  1.3959
 5029TIP3   OH236501   6.973   2.797   0.627  0.0419 -0.2389  0.3708
 5029TIP3    H136502   6.988   2.789   0.533  1.0715 -2.9307  0.7142
 5029TIP3    H236503   6.974   2.891   0.644  1.2827  0.2174 -2.0890
 5030TIP3   OH236504   1.618   2.500  11.688  0.1719  0.2926  0.2109
 5030TIP3    H136505   1.570   2.580  11.665  1.2677  1.2427  1.1872
 5030TIP3    H236506   1.552   2.443  11.728  0.1019  2.1320  2.8243
 5031TIP3   OH236507   3.070   1.634  12.119 -0.8427 -0.3112  0.0365
 5031TIP3    H136508   3.119   1.710  12.151  0.1214 -0.4726 -1.0406
 5031TIP3    H236509   3.013   1.670  12.051 -0.2994 -0.5800 -0.5577
 5032TIP3   OH236510   0.439   2.294  14.792  0.6236  0.2682 -0.3195
 5032TIP3    H136511   0.511   2.295  14.730  0.6056  0.9494 -0.3311
 5032TIP3    H236512   0.367   2.252  14.744  1.1086 -0.7112 -0.1945
 5033TIP3   OH236513   3.045   3.512  11.674  0.3827 -0.1665  0.0176
 5033TIP3    H136514   3.037   3.571  11.598 -1.3303 -0.6061 -0.1747
 5033TIP3    H236515   3.027   3.568  11.749 -0.4885 -0.2562 -0.1113
 5034TIP3   OH236516   5.235   4.965  10.924  0.0569 -0.0282 -0.0865
 5034TIP3    H136517   5.159   4.982  10.981  0.3820  2.5087 -0.3578
 5034TIP3    H236518   5.290   5.042  10.934  1.1139 -0.4721 -2.2864
 5035TIP3   OH236519   1.258   7.066  11.692  0.6757  0.0886  0.3960
 5035TIP3    H136520   1.301   7.005  11.752  0.6136 -0.7831 -0.4404
 5035TIP3    H236521   1.330   7.115  11.653  0.8375 -0.5431 -0.1088
 5036TIP3   OH236522   4.531   4.174  10.450 -0.2590  0.4621 -0.0997
 5036TIP3    H136523   4.598   4.239  10.468  0.9031 -1.4335  2.5615
 5036TIP3    H236524   4.579   4.094  10.431 -1.7350 -0.9616  2.0106
 5037TIP3   OH236525   3.538   1.487  15.557 -0.2229  0.0825 -0.3696
 5037TIP3    H136526   3.460   1.472  15.611  0.1159  1.7698  0.5987
 5037TIP3    H236527   3.585   1.558  15.601 -0.3235  2.0159 -3.2788
 5038TIP3   OH236528   2.461   6.402  11.652 -0.3503 -0.6214  0.4404
 5038TIP3    H136529   2.380   6.357  11.676  0.0672 -0.9005  1.3741
 5038TIP3    H236530   2.434   6.468  11.588 -1.4092 -0.3002  1.2010
 5039TIP3   OH236531   6.130   5.726  13.220  0.5144 -0.6012  0.3405
 5039TIP3    H136532   6.194   5.730  13.149 -0.0148 -0.9295 -0.1667
 5039TIP3    H236533   6.182   5.722  13.300  1.1369  1.9407  0.1067
 5040TIP3   OH236534   3.433   2.692   0.271  0.4416  0.4750  0.2417
 5040TIP3    H136535   3.398   2.758   0.211  0.1141  1.5932  1.6300
 5040TIP3    H236536   3.369   2.688   0.342  0.9541 -0.6440  0.6499
 5041TIP3   OH236537   1.126   3.847  12.204  0.2818  0.3755 -1.0739
 5041TIP3    H136538   1.148   3.866  12.295 -0.2734 -0.1573 -0.8214
 5041TIP3    H236539   1.068   3.918  12.178 -1.5785 -0.7786 -0.2190
 5042TIP3   OH236540   0.799   6.319   9.912 -0.7476  0.3305  0.2634
 5042TIP3    H136541   0.722   6.346   9.961 -0.4515  0.0113  0.9177
 5042TIP3    H236542   0.791   6.224   9.905 -0.5855  0.3317  0.0410
 5043TIP3   OH236543   1.007   6.233  11.717 -0.1021 -0.4560  0.5757
 5043TIP3    H136544   1.004   6.311  11.773  0.0541  0.4398 -0.6395
 5043TIP3    H236545   1.025   6.161  11.778  0.0218  0.4853  1.6863
 5044TIP3   OH236546   5.236   5.731  11.826  0.0783 -0.2213 -0.6655
 5044TIP3    H136547   5.323   5.707  11.860  0.2839  1.6924  0.2320
 5044TIP3    H236548   5.253   5.773  11.742 -0.3316 -3.6945 -2.5659
 5045TIP3   OH236549   2.445   1.597  10.535 -0.1672  0.9872 -0.1504
 5045TIP3    H136550   2.489   1.672  10.576  1.2178  0.9612 -1.5651
 5045TIP3    H236551   2.397   1.634  10.462  2.8130  0.1687 -2.6086
 5046TIP3   OH236552   3.689   0.551  11.568  0.4304 -0.0165  0.2067
 5046TIP3    H136553   3.726   0.471  11.603  0.6916 -0.0688 -0.1854
 5046TIP3    H236554   3.716   0.620  11.629 -1.1787 -0.4602  1.4584
 5047TIP3   OH236555   6.050   5.349  11.646  0.4166 -0.8558 -0.3723
 5047TIP3    H136556   5.956   5.334  11.656  0.0614 -0.3657 -2.6369
 5047TIP3    H236557   6.084   5.265  11.614  0.5692 -0.7167 -0.5747
 5048TIP3   OH236558   2.252   5.134  12.187  0.3190  0.1986 -0.0130
 5048TIP3    H136559   2.218   5.206  12.135  1.2100  0.1510 -0.6670
 5048TIP3    H236560   2.342   5.124  12.158  0.3203 -0.9182  0.3620
 5049TIP3   OH236561   4.625   6.703   9.743  0.0516  0.3406  0.1773
 5049TIP3    H136562   4.660   6.722   9.656  2.6237 -2.4882  0.5397
 5049TIP3    H236563   4.614   6.608   9.744 -0.8132  0.4422  2.6509
 5050TIP3   OH236564   6.522   5.285  13.200 -0.0950  0.2502 -0.5730
 5050TIP3    H136565   6.503   5.257  13.289  0.5173  0.0375 -0.5061
 5050TIP3    H236566   6.600   5.236  13.175  1.6344  2.6743 -0.0786
 5051TIP3   OH236567   5.664   5.871  10.787  0.2947 -0.3729  1.0786
 5051TIP3    H136568   5.618   5.954  10.786 -2.1182 -1.6678 -0.3072
 5051TIP3    H236569   5.755   5.894  10.769 -0.6676  1.7962 -1.3599
 5052TIP3   OH236570   2.810   2.276  12.847 -0.1919 -0.2620 -0.8542
 5052TIP3    H136571   2.804   2.369  12.866 -1.9133 -0.1216 -1.9405
 5052TIP3    H236572   2.883   2.268  12.786  1.9321 -0.0492  1.5941
 5053TIP3   OH236573   3.832   0.753  13.275 -0.0207  0.7617 -0.0611
 5053TIP3    H136574   3.739   0.731  13.278 -0.3106  2.0635  0.7979
 5053TIP3    H236575   3.860   0.752  13.366  0.7774  0.5000 -0.3076
 5054TIP3   OH236576   2.461   0.430  14.645  0.0571  0.4474 -0.5443
 5054TIP3    H136577   2.388   0.464  14.594 -0.2902 -2.2204 -1.9309
 5054TIP3    H236578   2.523   0.503  14.650 -1.6579  1.9857 -1.4051
 5055TIP3   OH236579   2.289   3.793  15.114  0.3547 -0.1991  0.2176
 5055TIP3    H136580   2.376   3.818  15.145  0.9657  0.8614 -2.2295
 5055TIP3    H236581   2.301   3.706  15.076  0.0692 -0.5771  0.9795
 5056TIP3   OH236582   4.709   0.990  11.206  1.0030 -0.5022  0.3918
 5056TIP3    H136583   4.731   1.077  11.173  0.5037 -0.4995  0.0583
 5056TIP3    H236584   4.685   1.004  11.297 -0.9758  0.0151 -0.1797
 5057TIP3   OH236585   3.214   1.234  12.052 -0.0660  0.0651  0.1439
 5057TIP3    H136586   3.236   1.293  11.979  0.4541 -1.7005 -1.1805
 5057TIP3    H236587   3.297   1.222  12.098 -0.3569  1.0378  0.9343
 5058TIP3   OH236588   2.518   5.078  12.123 -0.2194 -0.2076 -0.4337
 5058TIP3    H136589   2.585   5.021  12.085  0.5625  0.8591 -0.6953
 5058TIP3    H236590   2.558   5.165  12.124 -2.0803  0.7161 -1.8470
 5059TIP3   OH236591   1.810   5.252   0.793 -0.5376  0.0674  0.2255
 5059TIP3    H136592   1.795   5.302   0.713 -0.8746  0.9386  0.8186
 5059TIP3    H236593   1.735   5.193   0.800 -0.6215  0.1517  0.0261
 5060TIP3   OH236594   2.093   4.537  14.879 -0.1418  0.5736  0.6092
 5060TIP3    H136595   2.083   4.545  14.785  0.2331  0.1918  0.5348
 5060TIP3    H236596   2.008   4.562  14.915 -0.4046  0.3401  0.1491
 5061TIP3   OH236597   7.091   6.073  13.467  0.3061  0.3826  0.0620
 5061TIP3    H136598   7.058   6.142  13.526 -0.6526 -0.3901  0.4374
 5061TIP3    H236599   7.085   6.111  13.380  1.2747  1.3609  0.4064
 5062TIP3   OH236600   3.487   3.768   9.774  0.6162 -0.2808 -0.0308
 5062TIP3    H136601   3.455   3.771   9.683  0.3181  1.8845  0.1317
 5062TIP3    H236602   3.579   3.742   9.765  0.7918  0.6272 -1.0097
 5063TIP3   OH236603   1.117   6.441  10.160  0.2916  0.0650  0.0181
 5063TIP3    H136604   1.104   6.349  10.135 -1.0598  0.4316 -0.6665
 5063TIP3    H236605   1.121   6.488  10.077  2.1395  0.4889  0.3397
 5064TIP3   OH236606   2.657   0.566  12.081 -0.2511  0.4781 -0.4109
 5064TIP3    H136607   2.737   0.536  12.038 -1.2759  0.8162 -2.6636
 5064TIP3    H236608   2.651   0.659  12.058 -2.1809  0.0566 -1.8245
 5065TIP3   OH236609   2.484   2.011  12.182  0.1333  0.6310  0.2497
 5065TIP3    H136610   2.517   1.995  12.271 -1.0520 -0.4737  0.5067
 5065TIP3    H236611   2.393   1.980  12.184  0.2406  0.1373 -1.4791
 5066TIP3   OH236612   1.292   0.791  11.563 -0.2355 -0.6861  0.6961
 5066TIP3    H136613   1.311   0.868  11.508 -0.5702 -0.7046  0.5518
 5066TIP3    H236614   1.267   0.828  11.648 -0.2524 -0.6404  0.6712
 5067TIP3   OH236615   7.065   3.532  10.206 -0.3134  0.2723  0.0897
 5067TIP3    H136616   6.977   3.506  10.231 -0.3545  1.5713  1.4022
 5067TIP3    H236617   7.119   3.508  10.281  0.8902 -2.7808 -1.6990
 5068TIP3   OH236618   2.675   3.775  10.710 -0.3192 -0.1657 -0.3978
 5068TIP3    H136619   2.613   3.832  10.756  1.5377 -0.4043  2.5848
 5068TIP3    H236620   2.656   3.688  10.745  2.3503 -0.0810  1.3724
 5069TIP3   OH236621   1.441   2.205  11.724 -0.4914  0.2419 -0.0676
 5069TIP3    H136622   1.463   2.200  11.631 -1.3824  0.2858 -0.2859
 5069TIP3    H236623   1.510   2.156  11.768 -0.0687  0.2180 -0.7521
 5070TIP3   OH236624   5.948   5.576  12.372 -0.1602 -0.1493 -0.5987
 5070TIP3    H136625   5.918   5.550  12.285 -1.4917  0.0295 -0.1992
 5070TIP3    H236626   5.876   5.553  12.431  1.4709 -2.0452  0.7374
 5071TIP3   OH236627   3.693   3.948  12.314 -0.3019 -0.1998 -0.1744
 5071TIP3    H136628   3.650   3.894  12.248  0.4073  0.0904 -0.8778
 5071TIP3    H236629   3.740   4.015  12.264 -0.7088  0.7225  0.6716
 5072TIP3   OH236630   4.830   1.499  12.521 -0.4577  0.0029  0.0686
 5072TIP3    H136631   4.758   1.445  12.552 -1.1037  0.4855 -0.5773
 5072TIP3    H236632   4.797   1.588  12.524  0.6070  0.3813  1.1360
 5073TIP3   OH236633   5.763   6.586  11.536  0.0982  0.3763  0.0800
 5073TIP3    H136634   5.679   6.621  11.505 -1.3847 -0.2550  3.1766
 5073TIP3    H236635   5.761   6.493  11.512 -0.8262  0.0009  1.5448
 5074TIP3   OH236636   4.112   0.006   9.952  0.1696 -0.3046 -0.0167
 5074TIP3    H136637   4.107   0.037   9.862 -0.6278 -0.7323 -0.1372
 5074TIP3    H236638   4.089  -0.087   9.946 -0.1599 -0.2752  0.6501
 5075TIP3   OH236639   4.177   3.615  12.603  0.0875  0.0495 -0.0443
 5075TIP3    H136640   4.102   3.634  12.660 -0.1313  0.9615 -0.6282
 5075TIP3    H236641   4.196   3.523  12.619  0.8552  0.6063  2.4747
 5076TIP3   OH236642   2.945   1.008  14.478 -0.5036 -0.0295 -0.7875
 5076TIP3    H136643   2.889   1.075  14.438  0.0232  0.7009 -0.3165
 5076TIP3    H236644   2.894   0.974  14.551 -0.2134  0.8632 -0.1592
 5077TIP3   OH236645   2.155   4.336  12.576  0.0840 -0.2943  0.3624
 5077TIP3    H136646   2.196   4.260  12.617  1.0128 -0.3447 -0.6402
 5077TIP3    H236647   2.212   4.409  12.598 -0.6619  0.0822  1.0976
 5078TIP3   OH236648   2.680   1.454  10.425  0.2460 -0.0370  0.5817
 5078TIP3    H136649   2.701   1.436  10.333 -0.7022 -0.8383  0.5207
 5078TIP3    H236650   2.736   1.529  10.447  2.7973 -1.7524  0.2680
 5079TIP3   OH236651   6.930   6.413  11.363  0.1075  0.2151 -0.0592
 5079TIP3    H136652   6.987   6.340  11.339  2.9001  2.7729 -1.5937
 5079TIP3    H236653   6.874   6.427  11.286 -0.9503 -0.7506  0.5221
 5080TIP3   OH236654   4.202   3.242   9.819 -0.1050 -0.6364 -0.0386
 5080TIP3    H136655   4.128   3.181   9.823  1.1908 -2.2600 -0.4932
 5080TIP3    H236656   4.265   3.200   9.760  0.1849  1.8468 -1.5732
 5081TIP3   OH236657   4.409   2.371  11.376 -0.0679  1.0402  0.5855
 5081TIP3    H136658   4.489   2.326  11.350 -0.1611  0.8051  0.6935
 5081TIP3    H236659   4.439   2.450  11.420  0.1421  0.2712  1.8749
 5082TIP3   OH236660   3.512   3.463   9.894 -0.1520 -0.1732  0.4556
 5082TIP3    H136661   3.484   3.445   9.804 -1.2564  2.6598  0.1753
 5082TIP3    H236662   3.593   3.514   9.884 -0.6220  0.7064  1.0203
 5083TIP3   OH236663   2.788   3.256  13.108 -0.1277 -0.2519  0.8888
 5083TIP3    H136664   2.763   3.309  13.183 -0.8583 -0.9394  1.1446
 5083TIP3    H236665   2.852   3.194  13.142 -0.1421 -0.2870  0.8532
 5084TIP3   OH236666   6.616   4.080  10.930 -0.4802 -0.1200  0.9343
 5084TIP3    H136667   6.599   4.001  10.878  1.9450  0.8953 -1.5565
 5084TIP3    H236668   6.589   4.152  10.873  0.4425  0.9560  1.8302
 5085TIP3   OH236669   2.501   4.997  14.377  0.2997  0.2056  0.0894
 5085TIP3    H136670   2.559   5.033  14.310 -0.1823 -0.4405 -0.6862
 5085TIP3    H236671   2.491   4.905  14.353 -1.1259  0.3289  0.1494
 5086TIP3   OH236672   0.825   3.747  14.106  0.2177  0.5541 -0.5966
 5086TIP3    H136673   0.830   3.687  14.181 -3.4471  0.9814  0.0766
 5086TIP3    H236674   0.881   3.707  14.039  1.3195 -1.2975  1.3575
 5087TIP3   OH236675   5.697   3.245  12.209 -0.0740  0.3855 -0.0110
 5087TIP3    H136676   5.788   3.222  12.226 -0.2859  0.6732  1.5165
 5087TIP3    H236677   5.692   3.339  12.228 -0.6538  0.4133 -0.2811
 5088TIP3   OH236678   1.906   4.413  10.373 -0.2434 -0.7229  0.4334
 5088TIP3    H136679   1.944   4.448  10.293 -2.1771 -0.5971 -0.4667
 5088TIP3    H236680   1.979   4.373  10.419  1.4739  2.0399  0.1505
 5089TIP3   OH236681   5.805   6.976   9.559  0.5060  0.5247 -0.1784
 5089TIP3    H136682   5.793   7.001   9.467 -0.7199  0.6063 -0.0062
 5089TIP3    H236683   5.835   6.885   9.556  0.6966  0.6010 -0.6605
 5090TIP3   OH236684   5.186   6.778  14.474  0.3117 -0.3186 -0.1965
 5090TIP3    H136685   5.149   6.692  14.454  0.4939 -0.5478  0.4701
 5090TIP3    H236686   5.151   6.835  14.405 -0.4822 -0.7463 -0.1493
 5091TIP3   OH236687   2.549   2.807  14.140 -0.0698 -0.7961 -0.1055
 5091TIP3    H136688   2.472   2.785  14.088 -0.8695  0.0424  0.6919
 5091TIP3    H236689   2.615   2.832  14.076 -0.5855 -1.1760 -0.7887
 5092TIP3   OH236690   4.604   1.682  11.979  0.3021 -0.5662 -0.2157
 5092TIP3    H136691   4.672   1.627  12.018  0.2157  1.3315  2.8475
 5092TIP3    H236692   4.637   1.771  11.989 -2.1033  0.3098  0.2784
 5093TIP3   OH236693   7.114   3.589   0.846 -0.0040  0.0936 -0.0139
 5093TIP3    H136694   7.149   3.619   0.930 -3.5684 -0.7623  1.9051
 5093TIP3    H236695   7.109   3.668   0.792  4.8624  0.2070 -0.4784
 5094TIP3   OH236696   2.957   6.607   9.731 -0.3065 -0.0404 -0.1605
 5094TIP3    H136697   2.961   6.564   9.817 -0.4073 -4.2858 -2.1419
 5094TIP3    H236698   2.864   6.619   9.715 -0.2245  2.3019  1.0095
 5095TIP3   OH236699   0.320   0.589  11.744 -0.2449 -0.0192 -0.1170
 5095TIP3    H136700   0.376   0.666  11.755 -1.1431  0.5492  0.5231
 5095TIP3    H236701   0.326   0.543  11.828  0.2506 -0.6315 -0.4814
 5096TIP3   OH236702   6.178   2.421  10.567 -0.4540  0.2402  0.1889
 5096TIP3    H136703   6.086   2.447  10.560 -0.4082  0.2718 -0.3326
 5096TIP3    H236704   6.176   2.326  10.572 -0.4340  0.1363 -1.4330
 5097TIP3   OH236705   1.110   2.272  13.322  0.3132  0.3249  0.3863
 5097TIP3    H136706   1.090   2.207  13.389 -0.7662  0.1002 -0.1408
 5097TIP3    H236707   1.030   2.277  13.268  1.4909 -0.2233 -1.4749
 5098TIP3   OH236708   3.810   2.635  11.877 -0.4946  0.1780  0.0426
 5098TIP3    H136709   3.899   2.667  11.861 -0.7370  1.4483  1.0828
 5098TIP3    H236710   3.803   2.556  11.825  1.4150 -0.2086  0.3278
 5099TIP3   OH236711   4.719   5.333  15.424 -0.2258 -0.2515  0.2685
 5099TIP3    H136712   4.791   5.330  15.361  0.9218 -1.4888  1.5880
 5099TIP3    H236713   4.665   5.407  15.396  3.2359  2.7022  1.0707
 5100TIP3   OH236714   1.050   2.239  10.412  0.1348  0.8929 -0.2385
 5100TIP3    H136715   0.967   2.217  10.369 -1.0850  2.3655  1.2904
 5100TIP3    H236716   1.113   2.245  10.340 -0.7854 -1.4319 -1.3080
 5101TIP3   OH236717   3.521   1.854  11.575 -0.3470 -0.1750 -0.3222
 5101TIP3    H136718   3.499   1.811  11.492  0.6926 -0.8903 -0.2411
 5101TIP3    H236719   3.615   1.871  11.569 -0.4611  0.7129  0.2836
 5102TIP3   OH236720   0.478   3.043  12.627 -0.5155 -0.3114 -0.4844
 5102TIP3    H136721   0.498   3.089  12.709  0.8229  1.9692 -2.0231
 5102TIP3    H236722   0.387   3.017  12.636 -0.8876  1.3917  1.0860
 5103TIP3   OH236723   1.642   3.319  11.754  0.3486  0.4611 -0.4144
 5103TIP3    H136724   1.617   3.407  11.785  2.5567  1.1012 -0.4080
 5103TIP3    H236725   1.604   3.260  11.819 -0.6270  1.4352 -0.0746
 5104TIP3   OH236726   0.778   0.375  15.516  0.0369  0.1985 -0.3273
 5104TIP3    H136727   0.844   0.427  15.562 -0.2815  0.2864  0.0433
 5104TIP3    H236728   0.802   0.381  15.424  0.9739 -0.4015 -0.1207
 5105TIP3   OH236729   0.533   1.178  14.909 -0.6151  0.2705  0.0411
 5105TIP3    H136730   0.570   1.117  14.846 -0.4913 -1.6442  1.8990
 5105TIP3    H236731   0.595   1.251  14.912 -0.0271 -0.1654 -1.1471
 5106TIP3   OH236732   3.536   4.364  15.201 -0.4211 -0.0179 -0.0854
 5106TIP3    H136733   3.592   4.383  15.277 -0.3099  1.6205 -0.5624
 5106TIP3    H236734   3.447   4.361  15.237 -0.5509  2.4093 -0.1334
 5107TIP3   OH236735   1.804   3.664  11.609  0.2887 -0.6860  0.4508
 5107TIP3    H136736   1.753   3.732  11.652 -1.4417 -2.4943  1.3277
 5107TIP3    H236737   1.879   3.711  11.572 -0.0458  1.4538  2.3446
 5108TIP3   OH236738   0.894   1.430   1.362 -0.4278 -0.1846 -0.2958
 5108TIP3    H136739   0.807   1.394   1.348  0.8182 -2.9004 -1.3693
 5108TIP3    H236740   0.923   1.390   1.445  0.3056 -0.3621 -0.6314
 5109TIP3   OH236741   3.519   6.325   0.718  0.2813  0.6614  0.0112
 5109TIP3    H136742   3.508   6.310   0.624  1.3073  2.5167 -0.4386
 5109TIP3    H236743   3.546   6.417   0.724 -1.7494  1.1533  2.2578
 5110TIP3   OH236744   2.412   2.127   9.805 -0.5718 -0.3929  0.0913
 5110TIP3    H136745   2.344   2.191   9.781 -1.9522 -1.8364  0.0853
 5110TIP3    H236746   2.494   2.166   9.774 -1.4480  1.1730 -0.3047
 5111TIP3   OH236747   1.642   2.290   0.176 -0.2374  0.0575 -0.8583
 5111TIP3    H136748   1.673   2.206   0.142 -0.4405  0.3234 -1.7088
 5111TIP3    H236749   1.565   2.311   0.123 -0.4958  0.5297 -0.3008
 5112TIP3   OH236750   3.366   2.751  12.896  0.3581  0.0330  0.1931
 5112TIP3    H136751   3.439   2.723  12.841  0.0225 -2.7475  1.0521
 5112TIP3    H236752   3.402   2.750  12.985 -0.4197 -0.3398  0.5078
 5113TIP3   OH236753   1.099   1.277  12.734  0.0086  0.0446 -0.6243
 5113TIP3    H136754   1.131   1.222  12.806  1.5541 -0.1329 -1.4289
 5113TIP3    H236755   1.145   1.244  12.657  0.4163  1.9927 -1.2399
 5114TIP3   OH236756   3.207   5.303  11.593 -0.8242 -0.4463  0.0146
 5114TIP3    H136757   3.232   5.395  11.590  1.2598 -0.9662  0.8816
 5114TIP3    H236758   3.281   5.259  11.634 -1.9152 -2.4784 -0.1306
 5115TIP3   OH236759   3.877   4.370  14.069 -0.0466 -0.2774  0.5407
 5115TIP3    H136760   3.800   4.380  14.125  0.1246 -1.1016  0.9334
 5115TIP3    H236761   3.911   4.283  14.091  0.0152 -0.6137 -0.8445
 5116TIP3   OH236762   1.419   3.692  11.610  0.1797  0.2762 -0.0029
 5116TIP3    H136763   1.366   3.619  11.580  0.9924  0.2519 -1.4777
 5116TIP3    H236764   1.356   3.756  11.643 -0.7345  0.0347 -1.2313
 5117TIP3   OH236765   2.807   5.582  11.076  0.0104  0.1170  0.2778
 5117TIP3    H136766   2.722   5.559  11.038 -0.7437  0.1082  1.9473
 5117TIP3    H236767   2.865   5.512  11.047 -0.4022  0.4077 -1.3279
 5118TIP3   OH236768   4.719   3.160  10.047 -0.2306 -0.0750  0.0840
 5118TIP3    H136769   4.703   3.250  10.074  3.0758  0.8423 -0.8484
 5118TIP3    H236770   4.734   3.166   9.952 -1.1022 -1.7935 -0.1947
 5119TIP3   OH236771   4.549   2.006   0.708 -0.0379 -0.3951  0.2376
 5119TIP3    H136772   4.559   1.938   0.642  0.4538 -2.5167  2.4329
 5119TIP3    H236773   4.592   2.083   0.670 -1.6223 -0.9225 -2.7614
 5120TIP3   OH236774   3.421   6.162  12.499 -0.0397  0.1689  0.7922
 5120TIP3    H136775   3.451   6.196  12.583  0.3537 -0.2792  0.8351
 5120TIP3    H236776   3.428   6.236  12.439 -1.3069  0.7799  1.3837
 5121TIP3   OH236777   0.509   5.462  10.543  0.0078  0.1423  0.7988
 5121TIP3    H136778   0.575   5.394  10.558 -1.3314 -1.2830  0.3674
 5121TIP3    H236779   0.489   5.457  10.450 -1.0121  0.2736  0.9995
 5122TIP3   OH236780   4.286   5.670   9.801  0.6242  0.0681 -0.3960
 5122TIP3    H136781   4.362   5.619   9.774 -0.5985 -1.4477 -1.0568
 5122TIP3    H236782   4.251   5.624   9.877  0.9612  1.3464  0.5546
 5123TIP3   OH236783   4.184   2.556  13.214  0.9666  0.3580  0.0511
 5123TIP3    H136784   4.143   2.642  13.221 -0.4594 -0.1284 -2.0789
 5123TIP3    H236785   4.278   2.575  13.205  0.9539  1.5674  2.1445
 5124TIP3   OH236786   1.085   2.527  12.041 -0.3267  0.5154  0.3035
 5124TIP3    H136787   1.032   2.450  12.020 -0.9055  0.8095  0.6545
 5124TIP3    H236788   1.123   2.508  12.126 -0.3444  0.5501  0.3185
 5125TIP3   OH236789   0.877   5.853  10.549  0.3462 -0.1494  0.2103
 5125TIP3    H136790   0.890   5.829  10.641 -0.7045  0.2961  0.4749
 5125TIP3    H236791   0.787   5.827  10.530  0.1268  0.9935 -0.3147
 5126TIP3   OH236792   3.309   4.860   9.681 -0.0739  0.0371 -0.0679
 5126TIP3    H136793   3.315   4.790   9.745 -0.3969  0.2770  0.2267
 5126TIP3    H236794   3.366   4.929   9.715 -0.4743  0.2793  0.1060
 5127TIP3   OH236795   1.979   3.914  13.676 -0.5522 -0.0955 -0.3427
 5127TIP3    H136796   1.939   3.934  13.760  0.3996 -2.1004  0.6396
 5127TIP3    H236797   2.024   3.994  13.650 -2.7941  1.2777 -0.1125
 5128TIP3   OH236798   7.127   0.632   9.838  0.2930  0.0120  0.1395
 5128TIP3    H136799   7.130   0.649   9.932  0.2140 -0.9665  0.3254
 5128TIP3    H236800   7.129   0.536   9.830  1.3236  0.1090 -0.8900
 5129TIP3   OH236801   2.032   6.125  11.838 -0.1776  0.3196 -0.7206
 5129TIP3    H136802   1.998   6.049  11.886  0.1189 -0.2144 -1.3603
 5129TIP3    H236803   1.968   6.194  11.856 -0.8007 -0.2577 -0.6772
 5130TIP3   OH236804   3.626   7.047  10.321  0.1557 -0.0607 -0.7482
 5130TIP3    H136805   3.664   7.085  10.400 -0.5449 -0.4802 -0.1984
 5130TIP3    H236806   3.657   6.956  10.319  1.3151  0.3387 -1.7200
 5131TIP3   OH236807   4.942   5.913  13.917  0.1707 -0.3884  0.4666
 5131TIP3    H136808   4.913   6.000  13.893  1.5123 -0.0466  0.0522
 5131TIP3    H236809   5.000   5.926  13.992  0.0873 -0.9621  0.6421
 5132TIP3   OH236810   0.222   4.889  11.035  0.4228  0.1934  0.1811
 5132TIP3    H136811   0.235   4.804  10.992 -1.4485  0.1252 -0.2910
 5132TIP3    H236812   0.302   4.903  11.085  0.8508 -1.7462  0.0713
 5133TIP3   OH236813   3.202   3.358  12.658 -0.7027 -0.7770  0.2776
 5133TIP3    H136814   3.252   3.314  12.590 -1.0507 -1.5975  0.5376
 5133TIP3    H236815   3.113   3.362  12.622 -0.3686  1.0893 -0.3773
 5134TIP3   OH236816   5.417   4.208  13.429  0.1980  0.3101 -0.5949
 5134TIP3    H136817   5.473   4.262  13.373  1.4491  0.0358  0.3934
 5134TIP3    H236818   5.405   4.127  13.380  0.7385  0.3345 -0.7651
 5135TIP3   OH236819   1.391   3.361  14.264  0.1368  0.3418  0.0750
 5135TIP3    H136820   1.436   3.307  14.329  2.4880  0.2864 -1.5410
 5135TIP3    H236821   1.323   3.305  14.229  0.6454 -0.5659  0.5256
 5136TIP3   OH236822   1.344   6.146   2.668  0.1326 -0.4003 -0.0089
 5136TIP3    H136823   1.429   6.184   2.691  0.2715 -1.4507  1.3102
 5136TIP3    H236824   1.359   6.051   2.671 -0.9898 -0.5841 -0.1263
 5137TIP3   OH236825   0.422   4.950  12.380  0.5196  0.1339 -0.3236
 5137TIP3    H136826   0.386   4.970  12.466 -2.0624  0.4463 -1.4314
 5137TIP3    H236827   0.397   5.025  12.326  2.0922 -0.0646 -1.3699
 5138TIP3   OH236828   3.785   6.354  10.959 -0.2530  0.1343 -0.3775
 5138TIP3    H136829   3.723   6.288  10.991  0.4776 -0.1977  0.3509
 5138TIP3    H236830   3.863   6.342  11.012  0.7029  0.0949 -1.7543
 5139TIP3   OH236831   5.270   6.633  12.636  0.0976 -0.1472 -0.3802
 5139TIP3    H136832   5.313   6.564  12.587 -1.1601  0.5518 -2.5818
 5139TIP3    H236833   5.341   6.691  12.664  0.9488 -1.1637 -0.4257
 5140TIP3   OH236834   6.663   4.301  12.775 -0.5947 -0.2629 -0.0210
 5140TIP3    H136835   6.669   4.396  12.786 -1.8407 -0.0951 -0.6577
 5140TIP3    H236836   6.685   4.285  12.683  0.5631 -0.7005  0.3205
 5141TIP3   OH236837   1.450   1.112  10.836  0.2913 -0.8148  0.1195
 5141TIP3    H136838   1.418   1.080  10.751 -0.6294 -0.9070  0.4966
 5141TIP3    H236839   1.425   1.043  10.898 -0.8083  0.1552  0.7728
 5142TIP3   OH236840   4.810   1.102  10.602 -0.0061 -0.2009  1.1272
 5142TIP3    H136841   4.804   1.076  10.694  2.2288 -0.5211  1.2180
 5142TIP3    H236842   4.825   1.020  10.555 -2.0295 -0.1564  0.3444
 5143TIP3   OH236843   4.128   1.352  14.229  0.3058  0.2444 -0.6124
 5143TIP3    H136844   4.188   1.288  14.190  1.2692 -1.4613  3.4335
 5143TIP3    H236845   4.041   1.313  14.218  0.8474 -1.6360  1.4684
 5144TIP3   OH236846   0.005   7.074   1.340  0.2485  0.8776  0.1097
 5144TIP3    H136847  -0.059   7.089   1.410  1.2043  1.0515  0.9570
 5144TIP3    H236848   0.080   7.035   1.384 -0.0264 -1.1698 -1.1962
 5145TIP3   OH236849   2.617   1.285  13.114  0.0238 -0.0259 -0.4377
 5145TIP3    H136850   2.552   1.315  13.050 -2.7171 -1.2252  1.6725
 5145TIP3    H236851   2.661   1.364  13.143 -2.3414  1.1650  0.0074
 5146TIP3   OH236852   4.453   3.779  12.935  0.6070 -0.1219 -0.3330
 5146TIP3    H136853   4.498   3.716  12.878 -0.2825  0.5970 -1.8595
 5146TIP3    H236854   4.384   3.727  12.977  1.2976 -0.6674  0.1461
 5147TIP3   OH236855   3.867   3.188  11.341 -0.1244 -0.0866 -0.7897
 5147TIP3    H136856   3.909   3.105  11.318  0.1095 -0.5379  1.1808
 5147TIP3    H236857   3.781   3.183  11.300 -0.5149 -1.7889  0.1733
 5148TIP3   OH236858   2.182   3.302  10.241 -0.0868  0.1891  0.7919
 5148TIP3    H136859   2.166   3.207  10.246 -3.6699  0.7966  2.7594
 5148TIP3    H236860   2.266   3.314  10.285 -0.5490 -1.8725  2.3496
 5149TIP3   OH236861   4.734   4.387  10.471  0.7306 -0.2112 -0.0971
 5149TIP3    H136862   4.777   4.461  10.513 -1.1295  0.6209  0.3590
 5149TIP3    H236863   4.650   4.421  10.441 -0.7753 -2.4793  1.3965
 5150TIP3   OH236864   3.612   5.884  12.989 -0.4404  0.1374 -0.2799
 5150TIP3    H136865   3.670   5.958  12.971  0.7454 -1.0830 -1.5358
 5150TIP3    H236866   3.530   5.925  13.017  0.0041  1.9455 -1.5123
 5151TIP3   OH236867   4.465   3.693  14.173  0.0412  0.0104  0.2063
 5151TIP3    H136868   4.503   3.617  14.128 -0.1589 -0.6329  1.1098
 5151TIP3    H236869   4.474   3.673  14.266 -1.4177  0.3749  0.4466
 5152TIP3   OH236870   3.667   6.272  11.489  0.0493 -0.6062  0.3820
 5152TIP3    H136871   3.757   6.252  11.460  0.4612 -0.4248  1.5093
 5152TIP3    H236872   3.675   6.285  11.583 -1.0033  0.4281  0.3331
 5153TIP3   OH236873   5.434   6.437  12.493 -0.1850  0.2976  0.7467
 5153TIP3    H136874   5.415   6.376  12.421  0.9797 -0.1597  0.8218
 5153TIP3    H236875   5.522   6.468  12.476 -0.4732  1.3573  1.1617
 5154TIP3   OH236876   3.428   4.510   0.227  0.2328  0.5479  0.4608
 5154TIP3    H136877   3.398   4.537   0.314  1.7150  1.1414  0.8006
 5154TIP3    H236878   3.350   4.474   0.185 -0.3045 -0.4799  2.3168
 5155TIP3   OH236879   3.552   0.082   9.924 -0.1976 -0.1286 -0.2264
 5155TIP3    H136880   3.505   0.066  10.006  1.5257  0.7816  0.9810
 5155TIP3    H236881   3.503   0.033   9.858 -1.7061 -0.7541  1.3218
 5156TIP3   OH236882   6.808   1.535  10.701 -0.2097 -0.0639  0.0394
 5156TIP3    H136883   6.818   1.535  10.606  0.6085 -1.3744  0.1162
 5156TIP3    H236884   6.748   1.607  10.719  2.0818  2.2406 -1.2125
 5157TIP3   OH236885   6.952   5.843  11.074  0.1552 -0.6708  0.2213
 5157TIP3    H136886   7.035   5.887  11.092  0.5057 -0.8962 -0.8202
 5157TIP3    H236887   6.896   5.911  11.036  0.1191 -0.7154  0.1955
 5158TIP3   OH236888   5.343   2.762  10.512  0.3824 -0.6402 -0.5014
 5158TIP3    H136889   5.335   2.685  10.569 -1.4982 -0.0565  0.0502
 5158TIP3    H236890   5.261   2.764  10.462 -0.3900  1.9931  0.7705
 5159TIP3   OH236891   2.889   5.714  12.953  0.0032  0.2319 -0.3150
 5159TIP3    H136892   2.865   5.749  13.039  1.2498  0.6066 -0.1129
 5159TIP3    H236893   2.894   5.791  12.897  1.0046  0.1895 -0.2864
 5160TIP3   OH236894   1.152   5.901   9.652  0.3983  0.0121  0.1339
 5160TIP3    H136895   1.107   5.883   9.569  0.5890  0.4723 -0.0687
 5160TIP3    H236896   1.082   5.921   9.714  0.3797  1.8253 -0.4494
 5161TIP3   OH236897   5.022   1.847  13.691  0.1320  0.3886 -0.1272
 5161TIP3    H136898   5.085   1.777  13.676 -0.7691 -0.9603  2.1740
 5161TIP3    H236899   5.065   1.926  13.657  1.7452 -1.0115 -1.4115
 5162TIP3   OH236900   6.009   6.834  11.189 -0.2154  0.2135  0.3630
 5162TIP3    H136901   5.940   6.769  11.174  1.2652 -1.7753  1.8529
 5162TIP3    H236902   5.979   6.912  11.142 -1.8696 -1.6356 -1.7772
 5163TIP3   OH236903   1.140   6.724  13.855  0.3564 -0.1993  0.3115
 5163TIP3    H136904   1.232   6.726  13.882  1.0299  2.5991 -1.9509
 5163TIP3    H236905   1.091   6.743  13.934  1.8465  0.1170  1.1752
 5164TIP3   OH236906   3.024   3.117  13.177 -1.0213  0.2743 -0.1141
 5164TIP3    H136907   3.068   3.170  13.111  0.0641 -0.1872  0.2318
 5164TIP3    H236908   3.042   3.027  13.152 -0.4116  0.0985  0.9223
 5165TIP3   OH236909   5.227   3.977  11.030  0.1223 -0.3012 -0.1794
 5165TIP3    H136910   5.174   3.921  10.972 -0.3423 -1.1325  1.0335
 5165TIP3    H236911   5.214   4.065  10.995 -0.0935 -0.8002 -1.3911
 5166TIP3   OH236912   2.920   1.456  14.333 -0.4326  0.4248  0.2600
 5166TIP3    H136913   2.901   1.424  14.244  0.0267 -0.3379  0.4307
 5166TIP3    H236914   3.012   1.484  14.329 -0.2880 -0.0017  0.6069
 5167TIP3   OH236915   1.042   0.700  14.209  0.0952 -0.1462  0.0192
 5167TIP3    H136916   1.081   0.613  14.206  0.9238  0.1850  0.9243
 5167TIP3    H236917   1.091   0.750  14.144  2.4041  0.7462  2.3831
 5168TIP3   OH236918   4.873   3.117   9.794 -0.0275  0.1295 -0.6679
 5168TIP3    H136919   4.944   3.153   9.741 -1.6446  1.5796 -1.8868
 5168TIP3    H236920   4.904   3.031   9.821  1.8732  0.4455 -1.8222
 5169TIP3   OH236921   1.650   2.851  10.935 -0.0800  0.4105 -0.3127
 5169TIP3    H136922   1.743   2.843  10.916 -0.2416 -1.6433 -0.3679
 5169TIP3    H236923   1.626   2.767  10.975 -1.4804  1.6404  1.5403
 5170TIP3   OH236924   4.104   6.408  13.003 -0.4880 -0.0131 -0.0218
 5170TIP3    H136925   4.176   6.447  13.052  1.3150 -1.4242 -1.4468
 5170TIP3    H236926   4.030   6.468  13.015  1.2067  1.9761  0.6393
 5171TIP3   OH236927   3.796   0.150  11.112 -0.1405  0.6195  0.0443
 5171TIP3    H136928   3.868   0.208  11.088 -0.3593  1.2337  0.8094
 5171TIP3    H236929   3.723   0.178  11.057  0.4566 -0.6080 -1.3742
 5172TIP3   OH236930   6.774   3.453  10.358  0.2295 -0.2273  0.0488
 5172TIP3    H136931   6.696   3.461  10.303 -0.0340 -3.2586 -0.0834
 5172TIP3    H236932   6.768   3.527  10.418 -0.3714  2.1582 -2.8421
 5173TIP3   OH236933   5.811   0.083   0.119 -0.1121 -0.1045  0.3748
 5173TIP3    H136934   5.794   0.063   0.212  0.9589  0.7460  0.7567
 5173TIP3    H236935   5.870   0.158   0.121 -0.1763 -0.0097 -1.0117
 5174TIP3   OH236936   0.286   1.244  14.120 -0.0320 -0.4085  0.1565
 5174TIP3    H136937   0.275   1.155  14.153 -2.8368  0.7138  2.4350
 5174TIP3    H236938   0.201   1.267  14.082  0.6611  1.3126 -0.4259
 5175TIP3   OH236939   4.092   4.311  14.800  0.0511 -0.6860 -0.1297
 5175TIP3    H136940   4.028   4.253  14.840 -3.1633  3.0297  0.3835
 5175TIP3    H236941   4.085   4.294  14.706  0.8277 -2.6966  0.1502
 5176TIP3   OH236942   3.051   4.531  10.173 -0.0017 -0.4316 -0.0049
 5176TIP3    H136943   3.119   4.579  10.126 -0.3634  1.7120  1.5678
 5176TIP3    H236944   3.095   4.497  10.252 -0.1820 -1.1586 -0.2108
 5177TIP3   OH236945   3.085   5.770  10.809 -0.4308 -0.0031 -0.2519
 5177TIP3    H136946   3.028   5.695  10.793  2.4777 -2.1396 -0.9290
 5177TIP3    H236947   3.091   5.776  10.904 -1.3002 -0.1108 -0.1848
 5178TIP3   OH236948   6.397   4.071   0.621 -0.0360  0.2568 -0.6762
 5178TIP3    H136949   6.339   3.995   0.619 -2.5497  2.0821  0.4132
 5178TIP3    H236950   6.344   4.142   0.584  0.9658  2.3302  1.7464
 5179TIP3   OH236951   5.164   4.956  11.892 -0.7468 -0.3608 -0.2119
 5179TIP3    H136952   5.093   4.896  11.870  0.4264 -1.9675  0.2197
 5179TIP3    H236953   5.226   4.946  11.819  0.3762 -1.1860  0.8426
 5180TIP3   OH236954   2.505   2.598   1.169 -0.0280  0.0059  0.5060
 5180TIP3    H136955   2.550   2.608   1.253  0.4019 -0.1325  0.2953
 5180TIP3    H236956   2.450   2.521   1.180  1.1431 -0.8962  0.1811
 5181TIP3   OH236957   4.931   4.238  13.386 -0.4955  0.2994 -0.0467
 5181TIP3    H136958   4.982   4.282  13.453 -0.6625  0.4169  0.0018
 5181TIP3    H236959   4.963   4.147  13.387  0.4221  0.6019 -0.7027
 5182TIP3   OH236960   4.514   3.911  14.406  0.6253  0.2486  0.2157
 5182TIP3    H136961   4.528   3.932  14.498 -2.1464 -2.1544  1.2904
 5182TIP3    H236962   4.577   3.841  14.388 -0.7340 -1.2764  1.1775
 5183TIP3   OH236963   3.407   4.319  12.905  0.1831  0.8637  0.6136
 5183TIP3    H136964   3.324   4.276  12.925  0.1902  0.7242  0.3374
 5183TIP3    H236965   3.420   4.304  12.811  1.1663 -0.2211  0.9110
 5184TIP3   OH236966   3.134   5.738  11.449  0.0812 -0.5281 -0.3662
 5184TIP3    H136967   3.066   5.682  11.411 -1.3119  0.9017 -0.0431
 5184TIP3    H236968   3.085   5.808  11.493  1.7585  0.1022  0.5333
 5185TIP3   OH236969   0.728   2.975  10.131 -1.0911 -0.9302 -0.5212
 5185TIP3    H136970   0.810   2.949  10.089 -0.8829 -0.5539 -0.3520
 5185TIP3    H236971   0.728   3.071  10.126 -0.9955 -0.8767  0.4740
 5186TIP3   OH236972   3.576   6.808  13.087  0.3950 -0.3811  0.0002
 5186TIP3    H136973   3.541   6.748  13.021  0.5537 -1.6518  1.0457
 5186TIP3    H236974   3.500   6.858  13.116  0.1441 -0.4846 -0.4772
 5187TIP3   OH236975   7.118   5.973  14.159  0.1533  0.4314  0.0153
 5187TIP3    H136976   7.063   6.031  14.106 -0.1797  1.1982  1.1781
 5187TIP3    H236977   7.208   6.000  14.138  0.1458 -1.3726 -2.5025
 5188TIP3   OH236978   4.637   3.127  13.383  0.1149  0.4415  0.1278
 5188TIP3    H136979   4.547   3.093  13.379  0.6578 -1.1108  0.6790
 5188TIP3    H236980   4.629   3.209  13.432 -1.4573  1.9890 -2.5722
 5189TIP3   OH236981   1.990   2.994  11.417 -0.2901  0.5196 -0.0090
 5189TIP3    H136982   2.019   3.049  11.489  1.2174 -0.9547  0.5415
 5189TIP3    H236983   1.952   2.917  11.458  0.4638 -0.2748 -0.7750
 5190TIP3   OH236984   4.504   5.922  11.966  0.0519  0.3847 -0.4632
 5190TIP3    H136985   4.525   6.015  11.976  0.3865  0.1744  0.7874
 5190TIP3    H236986   4.536   5.881  12.046 -1.1209 -0.6443 -0.5122
 5191TIP3   OH236987   2.006   3.614  11.155 -0.1679 -0.3705 -0.7129
 5191TIP3    H136988   1.988   3.691  11.101 -1.6649  0.0854  0.3947
 5191TIP3    H236989   1.920   3.575  11.170  0.4131 -1.3835  0.0271
 5192TIP3   OH236990   4.575   1.901  14.382  0.2020 -0.2913 -0.3606
 5192TIP3    H136991   4.567   1.809  14.356 -0.0509  0.1774 -2.0679
 5192TIP3    H236992   4.486   1.926  14.407  0.0397 -0.2077 -1.0094
 5193TIP3   OH236993   5.517   4.574  12.825  0.5627  0.1779  0.0647
 5193TIP3    H136994   5.485   4.657  12.861  1.0781  0.3610  0.0951
 5193TIP3    H236995   5.439   4.534  12.785  0.7466  1.6511 -1.8266
 5194TIP3   OH236996   4.691   3.778  13.636  0.7529  0.0917  0.2427
 5194TIP3    H136997   4.634   3.830  13.579  1.2675  0.2218 -0.1521
 5194TIP3    H236998   4.638   3.703  13.660  0.0208  0.7674  0.7641
 5195TIP3   OH236999   0.664   1.987  10.788  0.4467  0.1959  0.4977
 5195TIP3    H137000   0.642   1.953  10.875  0.1939  0.7942  0.6634
 5195TIP3    H237001   0.758   1.967  10.779  1.3660  3.3486  2.3813
 5196TIP3   OH237002   3.682   3.563   0.945 -0.3989 -0.4406 -0.5800
 5196TIP3    H137003   3.668   3.588   1.036  1.0889  1.7819 -0.9207
 5196TIP3    H237004   3.595   3.543   0.912 -0.8138 -2.7839  1.7111
 5197TIP3   OH237005   0.984   3.583  11.220 -0.5132 -0.3807 -0.0746
 5197TIP3    H137006   1.064   3.596  11.271 -1.0615 -0.8681  0.9174
 5197TIP3    H237007   1.014   3.566  11.131  0.5557 -2.5855  0.6934
 5198TIP3   OH237008   3.312   2.425  11.580  0.2139 -0.0811 -0.3380
 5198TIP3    H137009   3.396   2.406  11.621  0.7893  0.0052 -1.4575
 5198TIP3    H237010   3.261   2.345  11.591  2.3264 -2.1109 -4.3044
 5199TIP3   OH237011   4.777   3.325  15.142 -0.1962  0.0721  0.5933
 5199TIP3    H137012   4.851   3.264  15.138 -0.5960 -0.3808 -0.0055
 5199TIP3    H237013   4.732   3.302  15.224 -2.0039 -2.4198 -1.0139
 5200TIP3   OH237014   0.340   3.154  12.915 -0.1235  0.0527  0.6200
 5200TIP3    H137015   0.393   3.077  12.934 -0.8682 -0.1761  1.8099
 5200TIP3    H237016   0.390   3.202  12.850  0.1962 -1.5918 -0.3620
 5201TIP3   OH237017   2.658   5.169  11.430 -0.3617  0.1376  0.3852
 5201TIP3    H137018   2.693   5.177  11.341 -1.1219  0.5793  0.1230
 5201TIP3    H237019   2.736   5.171  11.486  0.0648  0.7979 -0.2153
 5202TIP3   OH237020   3.925   4.570  12.398  0.0670 -0.3202 -0.1811
 5202TIP3    H137021   3.924   4.665  12.393  1.6249 -0.1948  1.3464
 5202TIP3    H237022   3.875   4.550  12.477  0.0162 -0.7578 -0.3213
 5203TIP3   OH237023   3.821   3.539  11.350 -0.9383  0.4175 -0.3208
 5203TIP3    H137024   3.811   3.633  11.335  0.2897  0.6895  0.4704
 5203TIP3    H237025   3.906   3.517  11.311 -1.1994 -0.3576 -0.4691
 5204TIP3   OH237026   6.855   3.633  13.623  0.3456 -0.5089 -0.3870
 5204TIP3    H137027   6.840   3.700  13.556 -1.6201 -0.3719  0.1376
 5204TIP3    H237028   6.805   3.557  13.592 -1.1517 -0.2220  1.2384
 5205TIP3   OH237029   4.619   2.505  10.748 -0.6207  0.1947 -0.0292
 5205TIP3    H137030   4.660   2.569  10.806 -0.0355 -0.1416 -0.0734
 5205TIP3    H237031   4.616   2.549  10.663  0.6823 -0.1921 -0.2920
 5206TIP3   OH237032   5.692   0.253  11.661  0.6690 -0.4767 -0.1181
 5206TIP3    H137033   5.609   0.261  11.708 -0.2263  0.2562 -1.8061
 5206TIP3    H237034   5.742   0.189  11.713 -0.8244 -0.7286  1.0607
 5207TIP3   OH237035   5.683   5.158  10.415  0.6303 -0.4028  0.1708
 5207TIP3    H137036   5.605   5.118  10.453  2.0188 -1.8475  1.5701
 5207TIP3    H237037   5.729   5.197  10.490  1.8260 -0.5861 -0.4554
 5208TIP3   OH237038   0.989   5.599  11.751 -0.3318  0.6946  0.0552
 5208TIP3    H137039   0.895   5.597  11.768 -0.4609 -0.2142 -0.7556
 5208TIP3    H237040   0.998   5.647  11.669  0.0067  1.7936  0.7272
 5209TIP3   OH237041   4.224   1.390   0.299 -0.0671 -0.2115  0.0271
 5209TIP3    H137042   4.189   1.303   0.318 -0.3489  0.1261  1.0636
 5209TIP3    H237043   4.266   1.380   0.214  0.5006 -1.5352  0.4457
 5210TIP3   OH237044   4.027   5.412  12.068  0.4349  0.1747  0.7198
 5210TIP3    H137045   4.026   5.395  11.974  0.4793 -0.3386  0.8111
 5210TIP3    H237046   4.114   5.448  12.086  0.5788 -0.1450  0.6423
 5211TIP3   OH237047   2.330   3.184  11.528  0.3669 -0.3589 -0.2788
 5211TIP3    H137048   2.297   3.133  11.454  0.6015  1.2387 -1.4993
 5211TIP3    H237049   2.418   3.149  11.542 -0.0678 -1.3909 -0.0640
 5212TIP3   OH237050   5.023   3.769  10.274  0.4818  0.0390 -0.4318
 5212TIP3    H137051   5.002   3.807  10.360 -0.9895 -0.2705 -0.6351
 5212TIP3    H237052   4.945   3.785  10.221  1.4259  0.3280 -1.7627
 5213TIP3   OH237053   2.995   1.407  11.751  1.0461 -0.7798 -0.1844
 5213TIP3    H137054   2.922   1.428  11.810 -0.0182 -2.3010 -0.9378
 5213TIP3    H237055   3.063   1.471  11.774 -1.3138  2.1124 -0.9967
 5214TIP3   OH237056   6.394   1.504  11.139  0.0818 -0.7853 -0.0299
 5214TIP3    H137057   6.454   1.540  11.204 -0.3778  1.1311 -0.6264
 5214TIP3    H237058   6.364   1.421  11.177 -1.3699  1.0015  2.9476
 5215TIP3   OH237059   3.999   5.608  13.985 -0.4373  0.4539  0.1190
 5215TIP3    H137060   4.025   5.680  14.042 -1.1191  0.8471 -0.0587
 5215TIP3    H237061   3.921   5.571  14.026 -0.3954  0.1482 -0.0705
 5216TIP3   OH237062   0.484   2.609  12.638  0.0278 -0.5961  0.6588
 5216TIP3    H137063   0.474   2.519  12.667 -1.1450 -0.8826 -0.6282
 5216TIP3    H237064   0.396   2.647  12.646  0.5326  0.4728  1.2981
 5217TIP3   OH237065   3.258   0.910  15.134  0.5524  0.1880  0.5766
 5217TIP3    H137066   3.256   1.001  15.165 -1.0530  0.8133 -1.2444
 5217TIP3    H237067   3.348   0.881  15.150  0.8046  1.7576  2.1192
 5218TIP3   OH237068   2.040   1.454  12.385 -0.3567 -0.1363 -0.0779
 5218TIP3    H137069   2.122   1.447  12.433 -1.4130 -0.1743  1.7407
 5218TIP3    H237070   2.056   1.522  12.320  1.4462 -0.8709 -0.4471
 5219TIP3   OH237071   5.017   6.145  14.083  0.0505  0.0199 -0.1884
 5219TIP3    H137072   5.048   6.228  14.120 -1.0107  0.3177  0.0387
 5219TIP3    H237073   4.939   6.168  14.034 -0.1738 -0.8280 -0.2319
 5220TIP3   OH237074   6.700   0.499   0.050 -0.2736  0.3359  0.4334
 5220TIP3    H137075   6.757   0.524  -0.023 -2.0688 -0.6074 -1.3432
 5220TIP3    H237076   6.675   0.582   0.090 -1.0354  1.0230 -1.4225
 5221TIP3   OH237077   0.606   3.652  13.932 -0.4770  0.3830  0.0305
 5221TIP3    H137078   0.672   3.626  13.996  0.2034  0.2965 -0.6951
 5221TIP3    H237079   0.523   3.623  13.970 -0.0649  0.2101  0.8035
 5222TIP3   OH237080   6.129   5.619  10.373 -0.0199  0.3653  0.8964
 5222TIP3    H137081   6.116   5.678  10.299  0.3740 -0.5078  0.1165
 5222TIP3    H237082   6.224   5.621  10.388 -0.0064 -0.0701  0.8695
 5223TIP3   OH237083   3.404   5.048  12.468  0.3808 -0.0552 -0.2941
 5223TIP3    H137084   3.389   5.057  12.562 -0.3317 -3.1770 -0.0734
 5223TIP3    H237085   3.438   4.960  12.457  0.6498  0.3352 -2.9623
 5224TIP3   OH237086   0.710   1.010  10.367  1.0030 -1.0152 -0.0376
 5224TIP3    H137087   0.645   1.056  10.420  1.6736 -0.1953  0.0925
 5224TIP3    H237088   0.716   0.923  10.407  0.6548 -0.7923  0.5159
 5225TIP3   OH237089   4.779   1.220  13.338  0.1671  0.4576 -0.1216
 5225TIP3    H137090   4.754   1.152  13.276 -0.1383 -1.0207  1.5830
 5225TIP3    H237091   4.730   1.298  13.309 -1.3875 -0.6948 -0.6427
 5226TIP3   OH237092   0.916   5.042  12.794  0.2708 -0.0636  0.2799
 5226TIP3    H137093   0.920   4.955  12.834  0.0336  0.1534  0.7744
 5226TIP3    H237094   0.893   5.101  12.866  0.1593  0.3711 -0.1091
 5227TIP3   OH237095   0.010   6.361  12.841 -0.2254 -0.6957 -0.7115
 5227TIP3    H137096  -0.061   6.388  12.782  0.0442  1.4864 -0.0933
 5227TIP3    H237097   0.088   6.403  12.805 -0.0544  0.6539  1.1560
 5228TIP3   OH237098   6.322   2.691   2.221  0.4349 -0.2577 -0.4652
 5228TIP3    H137099   6.289   2.607   2.189 -0.7767  0.6902 -1.8003
 5228TIP3    H237100   6.404   2.670   2.266 -0.3158 -2.2527 -0.0015
 5229TIP3   OH237101   3.087   3.626  12.112 -0.1508 -1.1399 -0.1755
 5229TIP3    H137102   3.170   3.623  12.065  0.3710  0.1797  0.6515
 5229TIP3    H237103   3.111   3.631  12.205 -1.1564 -1.6216  0.1249
 5230TIP3   OH237104   3.460   4.418  13.326  0.3433 -0.5475 -0.7955
 5230TIP3    H137105   3.493   4.424  13.236 -0.8440  0.6089 -1.1721
 5230TIP3    H237106   3.383   4.361  13.318  1.0115 -1.5501 -0.2661
 5231TIP3   OH237107   0.207   6.431  10.371 -0.0091  0.4392 -0.5119
 5231TIP3    H137108   0.272   6.362  10.363 -2.3551 -1.7082 -2.0371
 5231TIP3    H237109   0.130   6.387  10.408 -0.1040  3.2695  2.8995
 5232TIP3   OH237110   1.351   2.816  15.376  0.1362  0.4621  0.3280
 5232TIP3    H137111   1.268   2.832  15.422 -0.2764  1.0306 -0.5867
 5232TIP3    H237112   1.400   2.759  15.434 -1.4082 -0.8879  0.3628
 5233TIP3   OH237113   4.066   6.116   9.917  0.2627  0.0765 -0.4454
 5233TIP3    H137114   4.073   6.025   9.887  1.7694  0.4518 -1.2425
 5233TIP3    H237115   4.126   6.165   9.862  1.7858  1.0697  1.9910
 5234TIP3   OH237116   2.791   3.336  13.874  0.8274 -0.3308  0.2662
 5234TIP3    H137117   2.717   3.276  13.883  1.0485 -0.4348  1.3995
 5234TIP3    H237118   2.868   3.280  13.876  1.0538  0.0143  1.6950
 5235TIP3   OH237119   1.297   6.037  12.001  0.0342  0.0850 -0.0739
 5235TIP3    H137120   1.218   5.983  12.003 -0.3622  0.6871  0.5135
 5235TIP3    H237121   1.358   5.993  12.060  0.4834 -0.8938 -1.2330
 5236TIP3   OH237122   4.078   5.870   1.049  0.0707 -0.2231 -0.2711
 5236TIP3    H137123   3.997   5.876   0.999  0.8437  0.6081 -1.4439
 5236TIP3    H237124   4.118   5.956   1.042  1.4999 -0.8775 -0.4801
 5237TIP3   OH237125   0.684   6.430  14.081  0.2147  0.0676  0.0291
 5237TIP3    H137126   0.707   6.345  14.118  0.5267  0.1602  0.0438
 5237TIP3    H237127   0.735   6.436  14.000 -0.0676  0.0925 -0.1472
 5238TIP3   OH237128   4.564   4.761  10.361 -0.1193  0.5078  0.1978
 5238TIP3    H137129   4.632   4.726  10.304 -0.1419  0.0037  0.4800
 5238TIP3    H237130   4.608   4.827  10.414  0.4228 -0.6904  1.2421
 5239TIP3   OH237131   2.207   4.130  10.777  0.3783  0.3417  0.2876
 5239TIP3    H137132   2.247   4.079  10.707  0.4280 -1.6701  1.7564
 5239TIP3    H237133   2.268   4.202  10.792  0.2809  0.9178 -1.8174
 5240TIP3   OH237134   0.628   0.622  12.739  0.2300  0.0892  0.4677
 5240TIP3    H137135   0.536   0.632  12.764  0.1230  0.4678 -0.0490
 5240TIP3    H237136   0.624   0.583  12.651  0.5059  2.1298 -0.4863
 5241TIP3   OH237137   2.487   4.720  13.573  0.1092  0.6914  0.4589
 5241TIP3    H137138   2.552   4.788  13.556  0.3220  0.2850 -0.3453
 5241TIP3    H237139   2.415   4.767  13.615  0.6476  1.2504  0.7649
 5242TIP3   OH237140   6.860   3.059  12.130 -0.5860 -0.1389 -0.0563
 5242TIP3    H137141   6.901   2.974  12.146 -0.0391  0.0863 -0.2874
 5242TIP3    H237142   6.809   3.046  12.050  1.5164  0.4695 -1.5162
 5243TIP3   OH237143   1.482   3.202   0.028  0.2710  0.0443  0.0394
 5243TIP3    H137144   1.436   3.229  -0.051  0.0125 -2.1694 -0.6016
 5243TIP3    H237145   1.547   3.138  -0.002 -0.2015 -1.2523  1.6465
 5244TIP3   OH237146   4.049   0.301  12.870 -0.1507 -0.2405  0.2219
 5244TIP3    H137147   4.124   0.355  12.894 -0.8409  0.7206  0.2982
 5244TIP3    H237148   3.998   0.293  12.950  0.0944 -1.2526  0.2715
 5245TIP3   OH237149   4.877   5.592  14.463  0.2148  0.1960 -0.3546
 5245TIP3    H137150   4.877   5.497  14.446 -0.6130  0.3515 -1.2998
 5245TIP3    H237151   4.901   5.630  14.379 -0.2068  0.8549 -0.1753
 5246TIP3   OH237152   3.902   0.947   0.488 -0.3687 -0.6055 -0.8698
 5246TIP3    H137153   3.967   0.917   0.424 -0.6650 -0.3948 -1.2680
 5246TIP3    H237154   3.886   0.871   0.544  0.9121 -0.3982 -0.1873
 5247TIP3   OH237155   4.550   4.602  11.534 -0.2550 -0.5420 -0.4134
 5247TIP3    H137156   4.577   4.693  11.540  0.4099 -0.7651  0.1204
 5247TIP3    H237157   4.555   4.581  11.441  0.0742 -0.1764 -0.4769
 5248TIP3   OH237158   2.117   0.135  11.955 -0.5552  0.2672  0.0009
 5248TIP3    H137159   2.064   0.155  12.031  1.3443 -1.4638  1.8373
 5248TIP3    H237160   2.189   0.198  11.959  0.2814 -0.7019  0.4271
 5249TIP3   OH237161   2.048   5.238  12.914 -0.2529 -0.3875 -0.2642
 5249TIP3    H137162   2.050   5.274  13.002  1.6725 -0.3351 -0.3053
 5249TIP3    H237163   1.962   5.196  12.907 -0.0849 -1.1860  1.9599
 5250TIP3   OH237164   4.405   6.790   0.319  0.1677 -0.1550 -0.0916
 5250TIP3    H137165   4.363   6.852   0.379  0.4197  1.0457 -1.1397
 5250TIP3    H237166   4.496   6.819   0.315  0.3317 -0.7080 -0.4590
 5251TIP3   OH237167   1.426   5.588  11.912  0.1491 -0.0092  0.3284
 5251TIP3    H137168   1.401   5.557  12.000 -0.9900  0.5060  0.1974
 5251TIP3    H237169   1.367   5.661  11.895  1.7395  1.2030 -0.0448
 5252TIP3   OH237170   5.434   2.937  12.411  0.0492 -0.1946  0.5580
 5252TIP3    H137171   5.483   2.855  12.417  2.2146  1.1989  2.9404
 5252TIP3    H237172   5.370   2.933  12.481  0.8093  0.5432  1.3055
 5253TIP3   OH237173   2.716   0.602  12.650 -0.1211 -0.2837  0.1068
 5253TIP3    H137174   2.742   0.644  12.568  2.0681 -0.6980  0.5483
 5253TIP3    H237175   2.720   0.672  12.715  0.6075 -0.5062  0.3054
 5254TIP3   OH237176   6.073   0.332  11.067  0.0521 -0.1890  0.3448
 5254TIP3    H137177   6.053   0.263  11.130 -0.4197 -0.1162  0.2808
 5254TIP3    H237178   6.154   0.371  11.098  1.1212 -1.7300 -0.4214
 5255TIP3   OH237179   6.045   2.710  11.852 -0.6439 -0.2875 -0.5208
 5255TIP3    H137180   6.042   2.619  11.881  1.5247 -0.1976  0.0651
 5255TIP3    H237181   6.032   2.705  11.758  1.0495 -1.3468 -0.7123
 5256TIP3   OH237182   5.747   3.709   9.671 -0.1129  0.2524  0.3071
 5256TIP3    H137183   5.840   3.692   9.685 -0.5476 -1.2235  1.6905
 5256TIP3    H237184   5.715   3.739   9.757 -1.0850 -0.1561  0.1016
 5257TIP3   OH237185   5.748   3.770  11.956  0.3698  0.1986  0.5041
 5257TIP3    H137186   5.673   3.751  12.012 -1.1159  3.7814 -0.1562
 5257TIP3    H237187   5.819   3.792  12.018 -0.5154  1.5240  1.0835
 5258TIP3   OH237188   5.700   6.736  13.589 -0.0508 -0.4615  0.3928
 5258TIP3    H137189   5.792   6.749  13.567 -0.2301 -3.6872 -2.7727
 5258TIP3    H237190   5.652   6.784  13.522 -0.6487 -1.5419  0.0390
 5259TIP3   OH237191   6.324   3.838  12.778  0.6480  0.3776  0.0683
 5259TIP3    H137192   6.391   3.813  12.715  2.7122  1.4629  1.7277
 5259TIP3    H237193   6.321   3.934  12.772 -2.9062  0.2143 -2.0532
 5260TIP3   OH237194   5.926   3.875  10.619  0.3356 -0.1228  0.2859
 5260TIP3    H137195   5.971   3.791  10.630  0.3765 -0.3012 -1.1588
 5260TIP3    H237196   5.865   3.879  10.692  1.8925 -0.3908  1.6546
 5261TIP3   OH237197   5.045   2.427  12.423  0.7191 -0.7093  0.4531
 5261TIP3    H137198   4.998   2.346  12.403 -1.3448  0.0477  2.0386
 5261TIP3    H237199   4.996   2.495  12.377  0.6570  0.0163  1.5830
 5262TIP3   OH237200   0.588   5.642  10.990 -0.4644 -0.4463  0.3340
 5262TIP3    H137201   0.599   5.548  10.978  0.2464 -0.2503 -0.5545
 5262TIP3    H237202   0.597   5.679  10.902  0.6076  0.5838  0.8752
 5263TIP3   OH237203   3.587   4.613  14.466  0.1750 -0.0109 -0.0214
 5263TIP3    H137204   3.552   4.534  14.506 -0.1962  0.3418  0.3587
 5263TIP3    H237205   3.670   4.628  14.511 -1.0058  1.3066  1.8233
 5264TIP3   OH237206   4.013   3.265   1.029 -0.3555  0.1188  0.0251
 5264TIP3    H137207   3.982   3.319   0.957 -1.8559  0.1666  0.6849
 5264TIP3    H237208   3.989   3.176   1.005 -0.5438  0.0939  0.2960
 5265TIP3   OH237209   2.960   2.109  12.647  0.2869  0.0795 -0.0696
 5265TIP3    H137210   2.940   2.097  12.554  1.8240  1.3112 -0.5784
 5265TIP3    H237211   3.053   2.134  12.648  0.3485 -0.2059  1.8161
 5266TIP3   OH237212   1.375   2.284  10.513 -0.2309 -0.4209 -0.2765
 5266TIP3    H137213   1.326   2.208  10.544 -1.4658  0.6210  0.3631
 5266TIP3    H237214   1.448   2.292  10.575  1.2677 -2.4740 -1.7152
 5267TIP3   OH237215   3.064   4.429   3.018  0.4991  0.0060  0.2379
 5267TIP3    H137216   3.023   4.354   3.060  2.2684 -1.3178 -0.3601
 5267TIP3    H237217   3.016   4.505   3.052 -0.6789 -1.3137  1.5714
 5268TIP3   OH237218   6.015   1.812  10.149  0.1017  0.2122 -0.1325
 5268TIP3    H137219   5.967   1.819  10.067 -2.2857  0.4348  1.2105
 5268TIP3    H237220   6.013   1.900  10.186 -1.4755 -0.4801  1.5357
 5269TIP3   OH237221   4.121   3.731  11.990  0.0100  0.2178  0.3489
 5269TIP3    H137222   4.094   3.663  12.052  1.8001  0.9839  2.0268
 5269TIP3    H237223   4.200   3.696  11.949 -0.0148  0.5774 -0.0044
 5270TIP3   OH237224   3.788   0.682  11.779 -0.3585  0.3712 -0.3199
 5270TIP3    H137225   3.790   0.662  11.873  0.7138 -0.1536 -0.4515
 5270TIP3    H237226   3.837   0.764  11.771  1.2864 -0.6330 -0.6698
 5271TIP3   OH237227   5.001   6.853  11.780 -0.1158 -0.1439 -0.0692
 5271TIP3    H137228   4.991   6.826  11.871  1.6869 -2.3842 -0.4785
 5271TIP3    H237229   4.934   6.804  11.732  2.0495 -2.7787 -0.5670
 5272TIP3   OH237230   5.219   4.796  14.796 -0.5812 -0.0975 -0.1404
 5272TIP3    H137231   5.187   4.879  14.761 -0.4194  0.2461  0.5140
 5272TIP3    H237232   5.187   4.730  14.735 -0.4149  0.4781 -0.8491
 5273TIP3   OH237233   0.336   3.216  12.031 -0.6123  0.0837 -0.0985
 5273TIP3    H137234   0.296   3.194  11.947  0.0041  0.2881 -0.4519
 5273TIP3    H237235   0.325   3.311  12.039  0.4499  0.2535 -0.5482
 5274TIP3   OH237236   4.328   3.370  10.103  0.5399 -0.1193  0.0477
 5274TIP3    H137237   4.369   3.374  10.017 -2.2755  0.2881 -1.3617
 5274TIP3    H237238   4.244   3.415  10.091 -0.7230 -1.7214  2.4954
 5275TIP3   OH237239   0.984   6.859  10.583  0.0788  0.7713 -0.0951
 5275TIP3    H137240   1.035   6.786  10.617 -0.0988  0.4371 -0.5546
 5275TIP3    H237241   0.894   6.826  10.580 -0.3140  1.6341  1.5474
 5276TIP3   OH237242   3.219   5.132  13.255  0.2789  0.2582 -0.1302
 5276TIP3    H137243   3.220   5.152  13.348  2.2739  0.3698 -0.1571
 5276TIP3    H237244   3.266   5.204  13.214 -1.0490  0.4901 -1.3099
 5277TIP3   OH237245   1.555   0.173  13.827  0.5717  0.5291  0.0660
 5277TIP3    H137246   1.589   0.155  13.740 -0.3107  0.6863 -0.3244
 5277TIP3    H237247   1.460   0.175  13.815  0.4286  0.2226  1.0961
 5278TIP3   OH237248   7.025   5.759  11.916  0.1018 -0.8483  0.4056
 5278TIP3    H137249   6.970   5.791  11.988  0.4391  1.5576 -0.3743
 5278TIP3    H237250   6.967   5.758  11.840  0.9800  1.2888 -0.3265
 5279TIP3   OH237251   4.428   2.035  10.131  0.0075 -0.0884 -0.3728
 5279TIP3    H137252   4.370   1.959  10.125 -1.8117  1.3391 -1.5747
 5279TIP3    H237253   4.496   2.018  10.067  1.0062 -1.8264  1.1036
 5280TIP3   OH237254   4.188   5.905  15.507  0.5540 -0.3947 -0.8254
 5280TIP3    H137255   4.144   5.917  15.591 -0.4510  0.8786 -1.5133
 5280TIP3    H237256   4.203   5.810  15.501  1.4187 -0.4150  1.1553
 5281TIP3   OH237257   3.215   4.561  13.371 -0.0607 -0.8158  0.2345
 5281TIP3    H137258   3.220   4.528  13.281  0.7916 -0.4168  0.1294
 5281TIP3    H237259   3.306   4.567  13.399 -0.3906 -3.6649  2.1509
 5282TIP3   OH237260   5.860   1.440  14.635  0.0980  0.2818  0.6286
 5282TIP3    H137261   5.781   1.459  14.584  1.1383 -0.3084 -1.2611
 5282TIP3    H237262   5.828   1.392  14.712 -1.2302 -1.5129 -1.0002
 5283TIP3   OH237263   0.430   4.463  10.221 -0.0086 -0.0922  0.3441
 5283TIP3    H137264   0.479   4.545  10.219  1.9752 -1.2293  0.9029
 5283TIP3    H237265   0.409   4.448  10.313  0.1786 -0.5318  0.3182
 5284TIP3   OH237266   4.577   6.080  10.384 -0.0863  0.9041  0.0726
 5284TIP3    H137267   4.500   6.098  10.331 -0.5715  1.5666  0.9741
 5284TIP3    H237268   4.651   6.102  10.328 -0.5871  1.4538 -0.3834
 5285TIP3   OH237269   0.798   1.558  13.545 -0.1734 -0.1273 -0.1989
 5285TIP3    H137270   0.803   1.631  13.607  2.0975  0.0240 -0.5069
 5285TIP3    H237271   0.880   1.511  13.557 -1.2424 -2.1434 -0.6328
 5286TIP3   OH237272   2.176   6.941  11.309 -0.1375  0.5596 -0.2970
 5286TIP3    H137273   2.128   7.007  11.358  1.0277  0.8931  0.4020
 5286TIP3    H237274   2.162   6.965  11.217  0.0234  1.6088 -0.0561
 5287TIP3   OH237275   2.666   4.625  10.807 -0.3428 -0.1482 -0.0931
 5287TIP3    H137276   2.705   4.698  10.759 -2.1296  1.9441  1.5530
 5287TIP3    H237277   2.719   4.618  10.887 -0.3658 -0.4903 -0.1053
 5288TIP3   OH237278   1.894   3.225  10.746 -0.1010  0.0844 -0.2239
 5288TIP3    H137279   1.854   3.281  10.812  1.4276  2.2779 -1.1286
 5288TIP3    H237280   1.834   3.228  10.672 -1.2510 -1.4902  0.5957
 5289TIP3   OH237281   2.370   2.539  11.111 -0.2943  0.2931 -0.2977
 5289TIP3    H137282   2.330   2.586  11.037  0.1940  2.1746  0.5834
 5289TIP3    H237283   2.463   2.536  11.089  0.2320  2.9927  1.2811
 5290TIP3   OH237284   0.392   1.993  12.495 -0.3967  0.2875  0.3580
 5290TIP3    H137285   0.476   2.010  12.538  0.3563 -1.6767 -0.2805
 5290TIP3    H237286   0.415   1.938  12.420 -2.2229 -0.0537  0.0414
 5291TIP3   OH237287   0.170   4.461   0.017 -0.5317 -0.3590 -0.3697
 5291TIP3    H137288   0.132   4.403  -0.050 -1.5704  0.3436 -0.4094
 5291TIP3    H237289   0.219   4.403   0.075 -1.3663 -1.2420 -0.5449
 5292TIP3   OH237290   2.741   3.819  13.309  0.1684 -0.7725  0.3154
 5292TIP3    H137291   2.657   3.787  13.340 -0.8237  0.3131 -1.1830
 5292TIP3    H237292   2.765   3.759  13.238 -0.3469  0.0916 -0.6143
 5293TIP3   OH237293   1.238   6.617  13.365 -0.2256 -0.4974  0.3316
 5293TIP3    H137294   1.228   6.682  13.295  1.0276  1.2728  1.7686
 5293TIP3    H237295   1.159   6.564  13.358 -1.0911  0.9127 -1.1566
 5294TIP3   OH237296   4.131   5.319  12.472  0.1053  0.6822 -0.2821
 5294TIP3    H137297   4.187   5.269  12.413  0.4928 -0.4730  1.0341
 5294TIP3    H237298   4.172   5.406  12.475  0.1002  0.7378 -1.6686
 5295TIP3   OH237299   2.278   2.420  12.556  0.3711 -0.5171 -0.4101
 5295TIP3    H137300   2.358   2.471  12.567  0.4183 -0.5121 -0.7723
 5295TIP3    H237301   2.246   2.444  12.469 -0.8032  0.5845  0.3081
 5296TIP3   OH237302   4.548   0.626  12.876 -0.1713  0.5196 -0.1109
 5296TIP3    H137303   4.482   0.587  12.819  0.2033  0.2176 -0.3436
 5296TIP3    H237304   4.509   0.625  12.963  0.4659 -1.9275  0.1915
 5297TIP3   OH237305   6.058   4.716   9.437 -0.3559  0.2874  0.2580
 5297TIP3    H137306   6.022   4.783   9.495  0.1489  1.3883 -0.6687
 5297TIP3    H237307   6.064   4.759   9.351  1.2978 -0.4868 -0.0477
 5298TIP3   OH237308   3.894   2.607  13.581 -0.1652  0.2471 -0.1705
 5298TIP3    H137309   3.980   2.641  13.556  0.2979 -1.8367 -1.6068
 5298TIP3    H237310   3.913   2.534  13.640 -0.9341 -0.1255 -0.3729
 5299TIP3   OH237311   5.384   0.041  11.367 -0.1337 -0.1852 -0.0361
 5299TIP3    H137312   5.347  -0.031  11.315  0.4785  0.0525 -0.8160
 5299TIP3    H237313   5.472   0.053  11.331 -0.5968  1.6356 -0.5822
 5300TIP3   OH237314   6.293   6.082  10.977  0.1343 -0.4987  0.2561
 5300TIP3    H137315   6.316   6.123  10.894  1.2061 -1.2237  0.1888
 5300TIP3    H237316   6.239   6.007  10.952 -0.8320  0.1715  0.3115
 5301TIP3   OH237317   5.762   1.708  11.097 -0.5142  0.0287  0.1737
 5301TIP3    H137318   5.688   1.681  11.150 -0.6197  0.2088  0.1201
 5301TIP3    H237319   5.723   1.737  11.014 -0.3641 -0.1141  0.0508
 5302TIP3   OH237320   0.440   5.797  13.133  0.0261 -0.0877 -0.2547
 5302TIP3    H137321   0.513   5.767  13.079  1.5169  0.7817  1.2373
 5302TIP3    H237322   0.417   5.883  13.097 -0.7524 -0.6783 -1.1817
 5303TIP3   OH237323   3.412   1.082  13.407  0.3939  0.1146 -0.5800
 5303TIP3    H137324   3.416   1.178  13.411  0.7232  0.0574  0.5441
 5303TIP3    H237325   3.453   1.053  13.488  1.8968 -1.0243 -1.7405
 5304TIP3   OH237326   1.406   2.673  11.592 -0.3075  0.0336 -0.0731
 5304TIP3    H137327   1.312   2.660  11.588 -0.4243  0.0361  2.1236
 5304TIP3    H237328   1.425   2.730  11.517 -2.0518  0.0993 -0.4940
 5305TIP3   OH237329   3.046   3.182  10.765 -0.5453  0.5198  0.2587
 5305TIP3    H137330   2.994   3.108  10.732 -0.3366  0.6567 -0.3751
 5305TIP3    H237331   3.064   3.160  10.857 -1.5498  0.3719  0.4250
 5306TIP3   OH237332   3.493   3.778  10.678 -0.4805  0.4684  0.1575
 5306TIP3    H137333   3.407   3.795  10.641 -0.7288 -3.0763 -1.1130
 5306TIP3    H237334   3.479   3.707  10.740  1.7240 -1.3411 -1.3091
 5307TIP3   OH237335   0.030   6.854  11.661  0.5075  0.2503 -0.1441
 5307TIP3    H137336   0.008   6.945  11.643  1.1612  0.4708  0.1330
 5307TIP3    H237337  -0.013   6.804  11.592 -0.5512  0.6881  0.1810
 5308TIP3   OH237338   5.653   4.980  10.905 -0.0285 -0.0875  0.0501
 5308TIP3    H137339   5.704   4.972  10.987  0.1653  0.1520 -0.0463
 5308TIP3    H237340   5.626   4.890  10.886  0.2765 -0.2052  0.1573
 5309TIP3   OH237341   1.142   0.681  13.146  0.2041  0.1623  0.2599
 5309TIP3    H137342   1.074   0.633  13.098 -0.4862  0.6486  0.7440
 5309TIP3    H237343   1.224   0.653  13.105 -0.3220 -0.0191 -0.6939
 5310TIP3   OH237344   3.974   5.160  12.185  0.8954  0.1206 -0.7926
 5310TIP3    H137345   3.995   5.239  12.135  0.8374  1.3145  1.0342
 5310TIP3    H237346   3.899   5.184  12.240  0.6850 -1.2871 -0.4233
 5311TIP3   OH237347   0.997   4.321  11.519  0.0028  0.1706 -0.1341
 5311TIP3    H137348   1.005   4.414  11.497  1.0167 -0.0981 -0.9652
 5311TIP3    H237349   0.935   4.319  11.591  2.6733  1.8195  2.3114
 5312TIP3   OH237350   3.979   6.303  12.762  0.4060 -0.0437  0.2572
 5312TIP3    H137351   4.054   6.312  12.702  0.3371 -0.8084  0.0546
 5312TIP3    H237352   4.011   6.339  12.845 -0.2252  3.1377 -0.8138
 5313TIP3   OH237353   0.012   4.520  14.470  0.4877 -0.5308 -0.1544
 5313TIP3    H137354   0.093   4.479  14.501  0.9901 -0.4629 -1.3580
 5313TIP3    H237355  -0.036   4.449  14.428  0.2374 -0.4176 -0.0624
 5314TIP3   OH237356   2.991   0.426   0.889 -0.1875  0.7360  0.2920
 5314TIP3    H137357   2.930   0.384   0.949 -0.8383  1.4116  0.1066
 5314TIP3    H237358   3.070   0.372   0.894 -1.3133 -1.0806 -0.6412
 5315TIP3   OH237359   6.084   5.008  15.350 -0.2351 -0.3367 -0.4513
 5315TIP3    H137360   6.098   4.926  15.396  1.5996  1.1715  1.7690
 5315TIP3    H237361   6.009   5.048  15.394 -0.1265 -0.0916 -0.4894
 5316TIP3   OH237362   2.762   4.577  12.846 -0.3958  0.1814 -0.7466
 5316TIP3    H137363   2.694   4.526  12.800 -1.3986  0.1718  0.6875
 5316TIP3    H237364   2.712   4.640  12.898  0.6989  0.0215  0.5009
 5317TIP3   OH237365   2.774   4.391  13.360 -0.0015 -0.1431  0.6702
 5317TIP3    H137366   2.801   4.471  13.405 -1.0444 -0.1081  1.2419
 5317TIP3    H237367   2.774   4.414  13.267 -1.8430  0.9950  0.9388
 5318TIP3   OH237368   2.274   2.555  10.798  0.2119 -0.0639 -0.6497
 5318TIP3    H137369   2.361   2.535  10.764  0.2907 -1.2933  0.2226
 5318TIP3    H237370   2.259   2.646  10.773  2.4408  0.7018  0.6071
 5319TIP3   OH237371   4.166   3.150  10.803  0.5805 -0.1522  0.3527
 5319TIP3    H137372   4.243   3.093  10.801  0.6233 -0.0793 -2.5387
 5319TIP3    H237373   4.107   3.111  10.738  0.1106  2.3858 -0.8099
 5320TIP3   OH237374   4.713   5.463  14.697  0.0582 -0.5901  0.2147
 5320TIP3    H137375   4.760   5.509  14.766  0.2790 -0.7588  0.1754
 5320TIP3    H237376   4.652   5.528  14.662  0.8024 -0.1499 -0.2568
 5321TIP3   OH237377   2.146   1.969  11.264 -0.1575  0.1752  0.0367
 5321TIP3    H137378   2.172   1.881  11.292  0.0923 -0.3274 -1.7409
 5321TIP3    H237379   2.064   1.985  11.312 -0.6207 -1.3471 -0.1993
 5322TIP3   OH237380   4.469   5.488  14.967 -0.4001  0.1000 -0.0510
 5322TIP3    H137381   4.503   5.521  14.884 -1.4368  1.0590 -0.1008
 5322TIP3    H237382   4.485   5.393  14.963  1.2905  0.3886 -0.5115
 5323TIP3   OH237383   3.882   4.708  11.723 -0.1644 -0.4182 -0.1569
 5323TIP3    H137384   3.819   4.638  11.705  0.6831 -0.9587 -1.0783
 5323TIP3    H237385   3.952   4.693  11.660  0.1981  1.0502 -0.1156
 5324TIP3   OH237386   2.155   3.869   0.728  0.7723  0.0558  0.7566
 5324TIP3    H137387   2.154   3.965   0.721  0.8193  0.0759  1.0120
 5324TIP3    H237388   2.234   3.842   0.683  0.6623  0.1248  0.5230
 5325TIP3   OH237389   7.122   4.593  11.000 -0.5131 -0.0364 -0.2677
 5325TIP3    H137390   7.084   4.558  11.080 -0.7322  2.0305  0.5795
 5325TIP3    H237391   7.209   4.553  10.995  0.5408  1.7134  2.4277
 5326TIP3   OH237392   5.325   1.183  10.947 -0.0843 -0.6384 -0.4205
 5326TIP3    H137393   5.334   1.093  10.978  0.1872  0.0768  1.6096
 5326TIP3    H237394   5.411   1.205  10.911 -0.3882 -1.4478 -1.6905
 5327TIP3   OH237395   1.855   2.490  10.813  0.2273  0.2118 -0.2460
 5327TIP3    H137396   1.883   2.462  10.900  2.2697  0.1168 -0.9142
 5327TIP3    H237397   1.847   2.585  10.820 -1.9641 -0.0142  0.6829
 5328TIP3   OH237398   6.257   6.212  11.210 -0.1177 -0.2073 -0.2690
 5328TIP3    H137399   6.271   6.177  11.122  0.9211 -1.8000  0.5036
 5328TIP3    H237400   6.346   6.232  11.241 -0.5269  0.9192  0.1979
 5329TIP3   OH237401   0.239   6.491  14.932 -0.6175  0.2780  0.3336
 5329TIP3    H137402   0.230   6.416  14.873  1.7739  0.1803  0.0414
 5329TIP3    H237403   0.225   6.568  14.877 -1.7535  0.0921  0.3562
 5330TIP3   OH237404   1.234   1.217  12.468 -0.1692 -0.2525 -0.2703
 5330TIP3    H137405   1.316   1.259  12.496  0.2942 -0.6217 -1.0598
 5330TIP3    H237406   1.250   1.192  12.377 -0.7399 -1.4213 -0.0474
 5331TIP3   OH237407   4.345   5.615  10.772  0.0962  0.3809  0.5122
 5331TIP3    H137408   4.271   5.674  10.777  0.4358  0.6718  2.7861
 5331TIP3    H237409   4.309   5.535  10.734 -0.9530  1.1458 -0.1301
 5332TIP3   OH237410   3.836   4.843  12.280  0.1299  0.0951  0.3543
 5332TIP3    H137411   3.807   4.890  12.358  0.0067 -0.7438  0.8231
 5332TIP3    H237412   3.783   4.880  12.209 -1.2441 -0.5611  1.0050
 5333TIP3   OH237413   3.080   0.571  12.125  0.7022 -0.1889 -0.2659
 5333TIP3    H137414   3.127   0.626  12.188  1.6106 -1.1712 -0.0738
 5333TIP3    H237415   3.007   0.626  12.095  0.0906  0.1937  1.8519
 5334TIP3   OH237416   6.426   4.074   1.489  0.4448  0.1420 -0.5575
 5334TIP3    H137417   6.491   4.064   1.419  0.9824  2.7294 -0.4718
 5334TIP3    H237418   6.401   4.166   1.486 -2.4698 -0.5629  0.1036
 5335TIP3   OH237419   3.062   0.095  13.958 -0.3310  0.7346 -1.0473
 5335TIP3    H137420   3.058   0.047  13.875 -1.1992  0.0788 -0.6365
 5335TIP3    H237421   3.003   0.169  13.945 -2.4190 -0.7212 -0.1818
 5336TIP3   OH237422   2.702   3.929  13.013  0.3700  0.4500 -0.4195
 5336TIP3    H137423   2.702   4.009  13.065  0.2359  0.9406 -1.1721
 5336TIP3    H237424   2.632   3.875  13.052  1.4876  0.0480  1.0626
 5337TIP3   OH237425   0.990   5.289  10.200 -0.4514  0.4341  0.1956
 5337TIP3    H137426   0.909   5.308  10.248 -0.9226 -0.2356 -0.3181
 5337TIP3    H237427   0.963   5.227  10.132 -0.1659  2.7214 -2.1033
 5338TIP3   OH237428   2.585   4.126  12.312  0.6258 -0.0324 -0.1193
 5338TIP3    H137429   2.659   4.178  12.343  1.5011 -0.5168 -1.3385
 5338TIP3    H237430   2.526   4.189  12.273 -0.6512  0.6379  2.7405
 5339TIP3   OH237431   6.753   5.159  10.309  0.1523  0.2227 -0.0501
 5339TIP3    H137432   6.732   5.117  10.225 -0.9127 -0.5380  0.5925
 5339TIP3    H237433   6.690   5.231  10.316  1.0938  1.1112 -0.5080
 5340TIP3   OH237434   1.712   1.324  13.841 -0.4412  0.1683 -0.2317
 5340TIP3    H137435   1.804   1.330  13.814 -0.4263 -1.9125 -0.7022
 5340TIP3    H237436   1.662   1.354  13.765 -0.2151 -0.6630 -0.7124
 5341TIP3   OH237437   3.796   0.158  11.804  0.4350 -0.4354 -0.3341
 5341TIP3    H137438   3.786   0.066  11.782 -2.2199 -0.2263 -0.0973
 5341TIP3    H237439   3.845   0.158  11.887  0.5556 -1.6205 -0.4015
 5342TIP3   OH237440   2.619   0.712  11.746  0.3696  0.3096 -0.0526
 5342TIP3    H137441   2.567   0.791  11.760  0.6823  0.4699  0.1920
 5342TIP3    H237442   2.664   0.729  11.663  0.9364  0.6555  0.3263
 5343TIP3   OH237443   3.133   5.533  10.465 -0.5235  0.1587  0.1677
 5343TIP3    H137444   3.120   5.472  10.537 -2.6104  0.7227  0.2970
 5343TIP3    H237445   3.045   5.550  10.430  0.3399  0.6004 -1.9256
 5344TIP3   OH237446   3.724   3.480  11.714 -0.0608 -0.0038  0.5727
 5344TIP3    H137447   3.779   3.424  11.660 -2.1038 -2.8089  1.2885
 5344TIP3    H237448   3.691   3.547  11.654  2.0222  0.1823 -0.4008
 5345TIP3   OH237449   6.195   5.996  15.162 -0.2794 -0.9030 -0.3562
 5345TIP3    H137450   6.198   6.089  15.141 -1.5685  0.1010  3.6156
 5345TIP3    H237451   6.284   5.974  15.189 -0.3197 -0.4573  0.1407
 5346TIP3   OH237452   3.599   2.213  10.074 -0.0101 -0.2220 -0.5903
 5346TIP3    H137453   3.694   2.210  10.077  0.0164  0.7334 -0.4795
 5346TIP3    H237454   3.577   2.176   9.988  0.5260  0.9782 -1.2567
 5347TIP3   OH237455   6.034   6.081  15.498  0.3232  0.6735 -0.8590
 5347TIP3    H137456   6.103   6.131  15.455  0.5098  0.5060 -0.7597
 5347TIP3    H237457   6.006   6.017  15.432 -1.1926  2.0903 -1.6327
 5348TIP3   OH237458   6.421   1.240  10.260 -0.1613 -0.1356  0.1177
 5348TIP3    H137459   6.349   1.275  10.312 -2.1600 -1.2439 -1.8370
 5348TIP3    H237460   6.418   1.146  10.275  1.2233 -0.1511  0.4057
 5349TIP3   OH237461   5.939   4.179  10.710  0.2386 -0.0374 -0.8786
 5349TIP3    H137462   6.025   4.207  10.682  0.3342  0.1342 -0.4117
 5349TIP3    H237463   5.934   4.087  10.685  0.8584 -0.2589 -0.2091
 5350TIP3   OH237464   4.898   4.561  13.068  0.7486  0.6873  0.3757
 5350TIP3    H137465   4.879   4.502  12.995  1.2806  0.1194  0.6861
 5350TIP3    H237466   4.930   4.641  13.027  1.0210  0.3800 -0.0168
 5351TIP3   OH237467   6.763   6.753  11.179  1.1233 -0.3904 -0.5866
 5351TIP3    H137468   6.729   6.663  11.179  0.8236 -0.2828  1.1725
 5351TIP3    H237469   6.702   6.801  11.236  1.3578  0.9037 -1.4146
 5352TIP3   OH237470   1.815   2.830  14.597 -0.1247  0.6323  0.0761
 5352TIP3    H137471   1.753   2.812  14.668  0.5372 -1.2997  0.1905
 5352TIP3    H237472   1.759   2.844  14.520 -0.7339 -1.4479  0.0990
 5353TIP3   OH237473   4.253   2.876  10.238 -0.6721 -0.0365 -0.0781
 5353TIP3    H137474   4.307   2.839  10.168 -0.4817  0.7584 -0.3593
 5353TIP3    H237475   4.204   2.946  10.195 -1.3269 -0.2236  0.3535
 5354TIP3   OH237476   6.541   6.530  15.084 -0.1133  0.2030 -0.5496
 5354TIP3    H137477   6.467   6.493  15.034 -0.4990  1.6526 -1.0850
 5354TIP3    H237478   6.612   6.535  15.020  0.6214 -1.6870  0.1045
 5355TIP3   OH237479   0.436   4.864  11.520  0.4160  0.5777  0.0079
 5355TIP3    H137480   0.355   4.892  11.562 -0.2120  0.5784 -1.1917
 5355TIP3    H237481   0.502   4.868  11.590 -0.6361  0.4531  1.0149
 5356TIP3   OH237482   6.669   1.570  11.579 -0.1204  0.1735 -0.1631
 5356TIP3    H137483   6.725   1.619  11.639 -1.1042  2.0245 -0.7312
 5356TIP3    H237484   6.723   1.496  11.551  1.6392  1.3059  0.1807
 5357TIP3   OH237485   0.761   0.017  12.477  0.0992  0.4758  0.3459
 5357TIP3    H137486   0.829   0.056  12.422  0.7091  1.1972  1.5714
 5357TIP3    H237487   0.808  -0.012  12.556 -0.6647 -0.9940  0.2777
 5358TIP3   OH237488   1.925   0.558  12.140 -0.4998 -0.0295  0.3687
 5358TIP3    H137489   2.013   0.568  12.174 -0.5739  0.8273  0.3232
 5358TIP3    H237490   1.904   0.466  12.153 -0.8446  0.4467  3.4323
 5359TIP3   OH237491   0.252   3.288  13.138 -0.0046 -0.2058 -0.0411
 5359TIP3    H137492   0.303   3.368  13.132 -0.9813  0.4977  0.9562
 5359TIP3    H237493   0.270   3.241  13.056  1.8815  0.2361  0.1149
 5360TIP3   OH237494   1.292   0.372  12.889 -0.3238 -0.0515 -0.3955
 5360TIP3    H137495   1.223   0.325  12.935  0.3356 -0.4645  0.1895
 5360TIP3    H237496   1.322   0.310  12.822 -0.1564 -0.0868 -0.2905
 5361TIP3   OH237497   5.510   6.909  10.274 -0.4892  0.6826  0.3026
 5361TIP3    H137498   5.595   6.918  10.317 -0.7539  2.4710  0.4988
 5361TIP3    H237499   5.515   6.825  10.228  1.0577  0.3691  1.0078
 5362TIP3   OH237500   4.901   0.222  12.877  0.8864  0.4105 -0.0965
 5362TIP3    H137501   4.867   0.311  12.884  1.8673  0.7302  0.8503
 5362TIP3    H237502   4.928   0.213  12.786  0.0600  0.8149 -0.3828
 5363TIP3   OH237503   0.513   4.675  12.703  0.1097 -0.0741  0.0547
 5363TIP3    H137504   0.588   4.635  12.746 -0.5318 -1.3202  0.0208
 5363TIP3    H237505   0.451   4.693  12.775 -0.0597 -0.1523 -0.0724
 5364TIP3   OH237506   3.732   3.882  11.667 -0.1854 -0.2124 -0.1674
 5364TIP3    H137507   3.778   3.881  11.751 -0.2199  0.5471 -0.1344
 5364TIP3    H237508   3.765   3.805  11.620  0.4234 -0.1926  0.2246
 5365TIP3   OH237509   1.472   3.416  10.460 -0.3797  0.1631  0.4080
 5365TIP3    H137510   1.477   3.404  10.365  2.1220 -1.6013  0.6950
 5365TIP3    H237511   1.494   3.508  10.474  2.5742 -0.3113 -0.5829
 5366TIP3   OH237512   1.779   1.910  11.194  0.2708 -0.2910 -0.1439
 5366TIP3    H137513   1.685   1.924  11.180  0.1687  1.0332  1.6374
 5366TIP3    H237514   1.821   1.983  11.149  0.2965  0.3573  0.8996
 5367TIP3   OH237515   2.621   4.126  15.312 -0.1018 -0.1742  0.0047
 5367TIP3    H137516   2.664   4.182  15.377 -1.2673  0.9815 -0.1975
 5367TIP3    H237517   2.563   4.070  15.363  1.1068 -1.2660  0.2127
 5368TIP3   OH237518   7.098   2.411  13.559 -0.3315  0.5554 -0.3068
 5368TIP3    H137519   7.183   2.446  13.532  0.0090 -1.2033 -1.5754
 5368TIP3    H237520   7.094   2.427  13.653  0.4261  2.6708 -0.6096
 5369TIP3   OH237521   7.067   2.005  12.096 -0.4672 -0.8915 -0.3311
 5369TIP3    H137522   6.990   2.004  12.153 -0.4474 -1.0952 -0.3079
 5369TIP3    H237523   7.127   2.067  12.138 -0.7375 -0.5033 -0.5092
 5370TIP3   OH237524   2.057   5.436   1.182 -0.1527 -0.2353 -0.1786
 5370TIP3    H137525   2.146   5.415   1.153  0.0926  1.0517 -0.3882
 5370TIP3    H237526   2.069   5.490   1.260 -0.7601 -0.3117 -0.0269
 5371TIP3   OH237527   3.761   3.670   0.611 -0.3034  0.4891  0.0919
 5371TIP3    H137528   3.770   3.765   0.607  0.4749  0.4184  0.1275
 5371TIP3    H237529   3.772   3.649   0.703 -0.5093  0.3712  0.0880
 5372TIP3   OH237530   6.424   4.933  11.422 -0.2409  0.5392 -0.3227
 5372TIP3    H137531   6.403   4.902  11.510  2.7364 -0.0437  0.2129
 5372TIP3    H237532   6.504   4.984  11.432 -0.2925  1.1095 -2.5809
 5373TIP3   OH237533   6.269   3.389  12.157 -0.1212 -0.1089 -0.5411
 5373TIP3    H137534   6.325   3.418  12.085 -0.1825 -1.8137 -1.3057
 5373TIP3    H237535   6.218   3.466  12.181  4.2808  2.2016  1.8458
 5374TIP3   OH237536   1.524   6.429  12.145 -0.3962  0.1221 -0.4429
 5374TIP3    H137537   1.541   6.494  12.213 -1.3776  1.0985 -1.0964
 5374TIP3    H237538   1.442   6.388  12.172 -0.4567  0.0701 -0.7098
 5375TIP3   OH237539   5.099   3.179   0.771 -0.2707  1.0836  0.2764
 5375TIP3    H137540   5.067   3.167   0.682  0.8741 -0.6294  0.0591
 5375TIP3    H237541   5.191   3.204   0.760  0.3976 -0.9521  0.9719
 5376TIP3   OH237542   6.275   5.153   9.869 -0.0375  0.4093 -0.1579
 5376TIP3    H137543   6.239   5.066   9.887  1.8419 -0.1145  1.2648
 5376TIP3    H237544   6.344   5.137   9.805 -1.3761  1.2283 -1.8568
 5377TIP3   OH237545   6.898   3.400  13.778 -0.2889  0.4182  0.2835
 5377TIP3    H137546   6.932   3.348  13.705  0.7003 -0.1858  1.1662
 5377TIP3    H237547   6.874   3.484  13.738 -1.1401 -0.4206 -0.9963
 5378TIP3   OH237548   5.447   4.969   9.873  0.0181 -0.5426  0.0039
 5378TIP3    H137549   5.484   5.016   9.798 -1.6619  1.3166  0.3063
 5378TIP3    H237550   5.467   4.877   9.856  2.2840  0.1337 -1.2287
 5379TIP3   OH237551   7.024   5.797  12.370  0.0788  0.5893  0.4219
 5379TIP3    H137552   6.968   5.758  12.303  0.3473  1.4412 -0.2971
 5379TIP3    H237553   6.967   5.861  12.414 -1.1645 -2.3705  3.3204
 5380TIP3   OH237554   6.883   1.651  10.454 -0.5830 -0.0625  0.0660
 5380TIP3    H137555   6.845   1.698  10.380  1.6988 -0.7300 -1.5779
 5380TIP3    H237556   6.957   1.704  10.481 -1.4035  0.1847  1.9308
 5381TIP3   OH237557   2.317   6.068  10.743  0.4763  0.1093 -0.2784
 5381TIP3    H137558   2.275   6.138  10.793 -0.6859  0.3812 -1.5942
 5381TIP3    H237559   2.247   6.033  10.688  1.3519 -1.2424 -0.5534
 5382TIP3   OH237560   3.813   2.376  13.138 -0.5196 -0.6249 -0.4095
 5382TIP3    H137561   3.847   2.441  13.199 -0.9463  1.0066 -1.8633
 5382TIP3    H237562   3.889   2.351  13.085 -0.4429 -1.0302 -0.1139
 5383TIP3   OH237563   5.636   2.769  10.559  0.3014  0.3495  0.8887
 5383TIP3    H137564   5.676   2.853  10.579  0.4917 -0.1091  2.4752
 5383TIP3    H237565   5.576   2.787  10.486  1.8633  1.4351 -0.1479
 5384TIP3   OH237566   3.035   0.762  11.874 -0.4389 -0.1785  0.5950
 5384TIP3    H137567   2.962   0.706  11.848  0.1024 -0.9474  0.7050
 5384TIP3    H237568   3.113   0.707  11.863  0.1032  0.5464  0.7231
 5385TIP3   OH237569   3.889   3.139  14.274 -0.1193  0.0929 -0.3348
 5385TIP3    H137570   3.917   3.091  14.352  0.6986  0.5245 -0.3573
 5385TIP3    H237571   3.900   3.231  14.298 -0.5812  0.2411 -0.6963
 5386TIP3   OH237572   0.245   2.412  13.697  0.2917  0.1854  0.1457
 5386TIP3    H137573   0.328   2.406  13.743  0.9308 -1.2386 -1.1669
 5386TIP3    H237574   0.207   2.324  13.704 -0.8009  0.6492  0.1675
 5387TIP3   OH237575   3.514   3.530  14.123 -0.1455  0.0355 -0.4683
 5387TIP3    H137576   3.590   3.588  14.114  0.3666 -0.4463  0.7274
 5387TIP3    H237577   3.550   3.447  14.155 -1.1473 -0.2552 -0.0717
 5388TIP3   OH237578   2.737   2.514  12.538 -0.2499  0.0162  0.4166
 5388TIP3    H137579   2.764   2.439  12.484 -1.1820 -0.4245  0.5667
 5388TIP3    H237580   2.819   2.561  12.556  0.2832 -0.7498 -0.0000
 5389TIP3   OH237581   0.913   4.470  11.039  0.5321  0.5474 -0.4915
 5389TIP3    H137582   0.880   4.557  11.058 -0.4507  0.3494 -1.2537
 5389TIP3    H237583   0.868   4.412  11.101  1.7010  0.6629  0.4807
 5390TIP3   OH237584   0.603   5.615  14.917 -0.1701  0.7217  0.1211
 5390TIP3    H137585   0.696   5.598  14.904 -0.2599 -1.4156  1.9414
 5390TIP3    H237586   0.597   5.710  14.924  2.0180  0.8452  0.8561
 5391TIP3   OH237587   0.611   3.680  10.904  0.4294  0.4224 -0.2826
 5391TIP3    H137588   0.694   3.654  10.864  1.1242  2.1504 -0.0280
 5391TIP3    H237589   0.637   3.725  10.984 -0.8332 -0.4140  0.6230
 5392TIP3   OH237590   1.393   1.023   5.230  0.1776  0.3756  0.1094
 5392TIP3    H137591   1.415   1.111   5.259 -0.2403  0.4547  0.1943
 5392TIP3    H237592   1.422   0.966   5.301  0.3029  0.4589  0.1245
 5393TIP3   OH237593   3.465   2.851  14.269  0.5577 -0.0718  0.5165
 5393TIP3    H137594   3.526   2.899  14.213 -0.8324 -0.0758 -1.0381
 5393TIP3    H237595   3.495   2.760  14.265  1.6686  0.2413  1.4252
 5394TIP3   OH237596   1.057   3.529  13.632 -0.0407  0.1850  0.5706
 5394TIP3    H137597   1.101   3.468  13.572 -1.1831 -1.3734  1.2989
 5394TIP3    H237598   1.060   3.486  13.717  2.8936  3.0334  2.0315
 5395TIP3   OH237599   6.118   4.541  10.296 -0.0021  0.6175 -0.6560
 5395TIP3    H137600   6.146   4.451  10.284 -3.1789 -0.5193 -0.0425
 5395TIP3    H237601   6.174   4.575  10.366  1.4521 -0.7366 -1.1450
 5396TIP3   OH237602   5.943   5.948  15.216  0.1765  0.1017 -0.0907
 5396TIP3    H137603   6.012   5.999  15.175 -0.4558  1.0983  0.0751
 5396TIP3    H237604   5.978   5.859  15.220  0.9547  0.3499 -1.1440
 5397TIP3   OH237605   0.043   0.321   0.642  0.1292 -0.1423  0.0279
 5397TIP3    H137606  -0.013   0.255   0.683 -0.3979 -0.7770 -1.6728
 5397TIP3    H237607   0.000   0.404   0.659  1.1557 -0.1265  2.8001
 5398TIP3   OH237608   6.062   3.497  14.189  0.1401 -0.2047  0.1981
 5398TIP3    H137609   6.028   3.572  14.237  1.1754 -0.1459  0.8640
 5398TIP3    H237610   6.095   3.534  14.107  0.6800  0.0847  0.5409
 5399TIP3   OH237611   0.869   6.223  11.468 -0.0534  0.0301  0.2971
 5399TIP3    H137612   0.933   6.233  11.539  1.3833 -0.0342 -0.9532
 5399TIP3    H237613   0.906   6.155  11.412 -1.3767 -0.2063 -0.2987
 5400TIP3   OH237614   2.464   3.841   9.887  0.1842 -0.7025  0.8330
 5400TIP3    H137615   2.467   3.763   9.831  0.2141  0.4759 -0.8243
 5400TIP3    H237616   2.527   3.822   9.957 -0.0251 -2.2791  0.6254
 5401TIP3   OH237617   0.938   6.842  11.800  0.3590  0.0284  0.1245
 5401TIP3    H137618   0.932   6.889  11.717 -0.9724  2.5605  1.5911
 5401TIP3    H237619   0.860   6.786  11.801  0.4303 -0.0846 -0.3478
 5402TIP3   OH237620   7.062   4.230  15.503 -0.0682  0.0453 -0.1246
 5402TIP3    H137621   7.004   4.190  15.568 -0.6573 -0.0099 -0.6718
 5402TIP3    H237622   7.011   4.304  15.469  0.1997  0.0209 -0.5800
 5403TIP3   OH237623   4.536   5.674  10.318  0.0073 -0.2506 -0.2584
 5403TIP3    H137624   4.622   5.649  10.285 -0.3751 -0.3400 -1.2024
 5403TIP3    H237625   4.474   5.640  10.253 -0.6942  0.5237 -0.0082
 5404TIP3   OH237626   5.032   2.413  13.060  0.1597  0.0904  0.1055
 5404TIP3    H137627   5.062   2.417  12.969 -0.6062  1.0425 -0.1131
 5404TIP3    H237628   5.113   2.411  13.111  0.5938 -0.9336 -0.6071
 5405TIP3   OH237629   0.482   6.652  11.254  0.2454  0.6693  0.8482
 5405TIP3    H137630   0.403   6.635  11.306 -1.0712 -1.3041 -1.6697
 5405TIP3    H237631   0.449   6.694  11.174  2.0397  1.9887  0.7648
 5406TIP3   OH237632   3.993   0.810  14.434 -0.0509 -0.0219 -0.1458
 5406TIP3    H137633   3.974   0.717  14.417  0.6215 -0.6797  2.4868
 5406TIP3    H237634   4.086   0.819  14.413 -0.0987  0.0335 -0.3316
 5407TIP3   OH237635   5.326   6.602  11.698  0.2470  0.1443  0.0290
 5407TIP3    H137636   5.328   6.509  11.721  2.3826 -0.0333 -0.6835
 5407TIP3    H237637   5.237   6.617  11.666  0.6671 -2.3670 -2.5425
 5408TIP3   OH237638   3.277   5.135  13.549  0.1217 -0.2879  0.3098
 5408TIP3    H137639   3.297   5.207  13.609  0.5344  0.4130 -0.6343
 5408TIP3    H237640   3.343   5.069  13.567 -0.2197 -0.4074  1.1466
 5409TIP3   OH237641   2.420   1.472   0.848 -0.3144  0.0103  0.2197
 5409TIP3    H137642   2.510   1.473   0.815 -0.9837  2.3161 -1.6965
 5409TIP3    H237643   2.393   1.381   0.841  1.9127 -0.7582  1.0282
 5410TIP3   OH237644   2.061   3.905  10.306  0.3477 -0.4621  0.1849
 5410TIP3    H137645   2.146   3.862  10.309 -0.8606 -2.8744  1.6089
 5410TIP3    H237646   1.998   3.833  10.295 -1.6186  1.1183  0.7544
 5411TIP3   OH237647   4.717   3.700  11.083  0.3314 -0.5764 -0.0893
 5411TIP3    H137648   4.733   3.633  11.149  0.5950  0.4575  0.9169
 5411TIP3    H237649   4.623   3.719  11.090  0.5956  0.4589  0.9163
 5412TIP3   OH237650   2.375   0.729   0.548  0.3937 -0.9191 -0.0434
 5412TIP3    H137651   2.320   0.775   0.611  1.5073 -0.8747  0.9230
 5412TIP3    H237652   2.438   0.795   0.518  1.4548 -1.5716  0.7008
 5413TIP3   OH237653   2.583   4.394  14.601 -0.1691 -0.1861 -0.1015
 5413TIP3    H137654   2.544   4.478  14.580 -1.1496 -0.5807  0.1519
 5413TIP3    H237655   2.626   4.367  14.520 -0.6625  0.1044 -0.4591
 5414TIP3   OH237656   1.544   1.372   2.449 -0.1341 -0.4403  0.4272
 5414TIP3    H137657   1.569   1.424   2.373 -0.2361  0.8460  1.2479
 5414TIP3    H237658   1.590   1.414   2.522 -0.2058 -1.5225  1.0949
 5415TIP3   OH237659   4.064   1.356  15.026 -0.0772  0.5566  0.0833
 5415TIP3    H137660   4.098   1.345  15.115  2.1369 -0.6385 -0.9046
 5415TIP3    H237661   3.980   1.401  15.039  0.5661  1.0848  2.7199
 5416TIP3   OH237662   2.348   6.491  10.622  0.0556 -0.6469 -0.5353
 5416TIP3    H137663   2.429   6.469  10.669 -1.2441  1.7843  3.0476
 5416TIP3    H237664   2.375   6.560  10.561  0.8325 -0.3953  0.0781
 5417TIP3   OH237665   2.146   6.140  11.172 -0.7391  0.3365  0.1141
 5417TIP3    H137666   2.063   6.105  11.203 -0.6840 -1.9895 -2.1887
 5417TIP3    H237667   2.153   6.226  11.214 -3.3655 -0.2371  1.8419
 5418TIP3   OH237668   3.655   1.332  11.424 -0.6428 -0.0324 -0.2525
 5418TIP3    H137669   3.603   1.370  11.353 -1.4407 -0.0323  0.3227
 5418TIP3    H237670   3.689   1.250  11.388 -1.3606 -0.2216 -0.5182
 5419TIP3   OH237671   2.936   2.971  11.560 -0.3268  0.0939 -1.1518
 5419TIP3    H137672   2.876   2.899  11.539 -3.4128  2.5390 -0.9955
 5419TIP3    H237673   2.954   2.960  11.654 -0.5993 -0.5590 -1.1708
 5420TIP3   OH237674   6.673   4.722  13.093  0.0222 -0.2312 -0.3158
 5420TIP3    H137675   6.612   4.776  13.143 -2.7016 -0.2512 -3.5046
 5420TIP3    H237676   6.667   4.635  13.133  0.3450  0.5124  1.3727
 5421TIP3   OH237677   3.628   6.754  10.622  0.1965 -0.1104 -0.1517
 5421TIP3    H137678   3.649   6.822  10.558  1.5537 -0.2226  0.1551
 5421TIP3    H237679   3.707   6.746  10.675 -0.7343 -0.3642  1.2395
 5422TIP3   OH237680   5.211   2.484  14.709 -0.1942  0.2772 -0.7460
 5422TIP3    H137681   5.299   2.466  14.741 -0.0557  2.0904 -0.0320
 5422TIP3    H237682   5.154   2.425  14.759  0.4037  0.5265  0.2272
 5423TIP3   OH237683   3.392   2.713  11.939  0.2039  0.0631  0.6793
 5423TIP3    H137684   3.391   2.629  11.984  1.3748 -0.1064  0.4006
 5423TIP3    H237685   3.452   2.700  11.866  2.7519  2.0410  2.3588
 5424TIP3   OH237686   1.170   4.443  14.507 -0.6394 -0.5346  0.3400
 5424TIP3    H137687   1.233   4.514  14.519  0.5853 -1.7047  0.9342
 5424TIP3    H237688   1.183   4.414  14.417 -0.3480 -0.7329  0.4411
 5425TIP3   OH237689   0.649   2.352  11.198 -0.2472  0.0003 -0.3624
 5425TIP3    H137690   0.717   2.415  11.220 -0.2895  0.6306 -1.9653
 5425TIP3    H237691   0.673   2.319  11.111 -1.6085 -0.2709 -0.6568
 5426TIP3   OH237692   0.736   0.091  10.833 -0.3646 -0.0494  0.2989
 5426TIP3    H137693   0.709   0.181  10.850 -0.9480 -0.0554 -0.5804
 5426TIP3    H237694   0.697   0.069  10.749  0.6289 -0.7807  0.0152
 5427TIP3   OH237695   3.454   0.924  11.955  0.2552  0.8986 -0.2334
 5427TIP3    H137696   3.511   0.976  11.898  1.0797  0.3420  0.0754
 5427TIP3    H237697   3.446   0.839  11.912 -0.4295  1.0080 -0.3290
 5428TIP3   OH237698   3.632   2.220  15.317  0.0411 -0.3202  0.0370
 5428TIP3    H137699   3.720   2.191  15.343  0.0529 -1.3760 -1.1345
 5428TIP3    H237700   3.573   2.175  15.377  0.1466 -1.6874 -0.8735
 5429TIP3   OH237701   1.630   6.172  10.685 -0.8593 -0.6227  0.1491
 5429TIP3    H137702   1.571   6.120  10.740 -1.7681 -0.8519 -1.0154
 5429TIP3    H237703   1.583   6.255  10.673  0.2300  0.1798  1.3526
 5430TIP3   OH237704   1.298   6.319  12.356  0.4842 -0.5243 -0.2761
 5430TIP3    H137705   1.246   6.290  12.431 -0.0683 -1.2738 -0.9496
 5430TIP3    H237706   1.386   6.287  12.375  0.4249 -0.4064  0.2186
 5431TIP3   OH237707   4.936   0.501  15.273 -0.1712 -0.6467 -0.0772
 5431TIP3    H137708   4.983   0.426  15.238 -1.7731 -1.5906 -0.2512
 5431TIP3    H237709   5.000   0.572  15.273  1.8377 -2.4014  1.6324
 5432TIP3   OH237710   5.640   4.258  12.694  0.2014 -0.3429 -0.0497
 5432TIP3    H137711   5.704   4.189  12.709  1.1024  0.4291 -0.2491
 5432TIP3    H237712   5.582   4.224  12.626  0.1663 -1.2037  0.4110
 5433TIP3   OH237713   3.128   1.128  11.353 -0.1664  0.1544 -0.0605
 5433TIP3    H137714   3.159   1.185  11.424  0.1427  0.3408 -0.3480
 5433TIP3    H237715   3.037   1.156  11.339 -0.1863  0.2109  0.1687
 5434TIP3   OH237716   4.085   4.450  14.259 -0.4037  0.2851  0.1553
 5434TIP3    H137717   4.050   4.416  14.177  2.0646  0.6767 -1.0750
 5434TIP3    H237718   4.118   4.537  14.238 -2.2337  1.5333  2.2110
 5435TIP3   OH237719   5.063   3.151  14.051  0.4898 -0.7299  0.0113
 5435TIP3    H137720   5.025   3.075  14.007  0.9876 -0.7659 -0.3671
 5435TIP3    H237721   5.072   3.217  13.982  0.8500 -0.6273  0.1515
 5436TIP3   OH237722   4.168   2.590  13.606  0.4301  0.1379 -0.3768
 5436TIP3    H137723   4.217   2.596  13.525  2.2556 -0.5771  0.6502
 5436TIP3    H237724   4.190   2.670  13.654 -0.8729  0.7032 -0.6871
 5437TIP3   OH237725   0.163   4.909  13.467 -0.1632 -0.4760 -0.7667
 5437TIP3    H137726   0.247   4.892  13.426 -0.4001 -1.2398 -0.9428
 5437TIP3    H237727   0.101   4.855  13.417 -0.4323 -1.5033  0.6627
 5438TIP3   OH237728   3.043   1.384  13.422 -0.9043 -0.3415 -0.1146
 5438TIP3    H137729   3.072   1.475  13.412  0.0071 -0.7475 -1.2898
 5438TIP3    H237730   3.061   1.364  13.513  0.0697  0.2696 -0.1580
 5439TIP3   OH237731   6.239   3.739  12.320 -0.0626 -0.0641 -0.0907
 5439TIP3    H137732   6.245   3.671  12.387 -0.4213 -0.3624 -0.3581
 5439TIP3    H237733   6.145   3.759  12.315  0.1214  0.9687  0.5012
 5440TIP3   OH237734   1.549   5.302  10.644  0.1177 -0.5611 -0.6657
 5440TIP3    H137735   1.623   5.248  10.670  0.6612 -0.9420 -2.8594
 5440TIP3    H237736   1.511   5.256  10.569  0.5704  2.0311 -2.5622
 5441TIP3   OH237737   6.350   2.951  12.583 -0.4581  0.1420  0.0257
 5441TIP3    H137738   6.411   2.909  12.522 -0.9697  0.3648 -0.6395
 5441TIP3    H237739   6.302   2.878  12.623 -0.7340  0.0457 -0.4817
 5442TIP3   OH237740   1.840   0.978  11.890  0.0694  0.0610 -0.1898
 5442TIP3    H137741   1.912   1.015  11.941  0.0659 -0.7462  0.4140
 5442TIP3    H237742   1.840   1.028  11.808  1.7114 -0.3426 -0.4528
 5443TIP3   OH237743   4.152   6.440  10.232 -0.2056  0.3251 -0.2781
 5443TIP3    H137744   4.157   6.383  10.309  1.2072  1.0195  0.1726
 5443TIP3    H237745   4.237   6.486  10.231 -0.1325  0.1916 -2.3508
 5444TIP3   OH237746   5.507   0.290  11.853 -0.0211 -0.2313  0.1243
 5444TIP3    H137747   5.507   0.196  11.868  0.9085 -0.2715 -0.0873
 5444TIP3    H237748   5.530   0.328  11.937  0.7508 -0.2479 -0.0773
 5445TIP3   OH237749   1.495   6.170  13.519  0.1138  0.1291 -0.2810
 5445TIP3    H137750   1.479   6.124  13.437  2.1275 -1.8293  0.3852
 5445TIP3    H237751   1.579   6.215  13.505  1.0285 -1.1075  1.0395
 5446TIP3   OH237752   3.246   2.822  11.038 -0.4773 -0.0012 -0.3626
 5446TIP3    H137753   3.216   2.913  11.045 -0.2231  0.1101 -0.6913
 5446TIP3    H237754   3.216   2.781  11.119  0.1407  0.5807  0.1697
 5447TIP3   OH237755   2.196   5.892  12.006 -0.0071  0.0826  0.6254
 5447TIP3    H137756   2.191   5.987  12.017 -0.6418  0.1324 -0.0341
 5447TIP3    H237757   2.106   5.862  12.019  0.2331 -0.4579  1.0508
 5448TIP3   OH237758   6.343   5.651  10.970  0.3705  0.0137 -0.4551
 5448TIP3    H137759   6.406   5.670  11.040  1.9928 -2.7329 -1.1055
 5448TIP3    H237760   6.266   5.617  11.016  0.4202  0.6845  0.1425
 5449TIP3   OH237761   4.489   5.206  13.417  0.1996 -0.1473  0.0810
 5449TIP3    H137762   4.434   5.128  13.424  0.0589 -0.0188  0.4309
 5449TIP3    H237763   4.518   5.206  13.326  0.7878 -1.0021  0.2623
 5450TIP3   OH237764   6.986   4.712  10.250 -0.0213 -0.2106  0.0933
 5450TIP3    H137765   7.030   4.776  10.193 -0.8555 -0.7944 -1.2277
 5450TIP3    H237766   7.008   4.627  10.211 -0.8081 -0.6004  0.5017
 5451TIP3   OH237767   3.195   1.786   1.795  0.1230 -0.2740  0.1607
 5451TIP3    H137768   3.182   1.879   1.779 -0.2918 -0.3954 -0.2200
 5451TIP3    H237769   3.172   1.773   1.887  1.8005  0.2983  0.6826
 5452TIP3   OH237770   4.480   3.024  10.764  0.0379  0.3235 -0.8159
 5452TIP3    H137771   4.506   2.981  10.682 -1.0962  0.2098 -1.1277
 5452TIP3    H237772   4.408   2.971  10.797 -0.4981  1.2231 -0.5147
 5453TIP3   OH237773   4.043   2.392  13.741 -0.1150  0.0493  0.3255
 5453TIP3    H137774   4.066   2.314  13.690 -0.4596 -0.2462  0.6197
 5453TIP3    H237775   4.104   2.459  13.711  1.2235 -0.7566  1.2227
 5454TIP3   OH237776   0.360   4.392  12.338  0.0536  0.2365  0.4849
 5454TIP3    H137777   0.282   4.342  12.314 -0.8167  1.6603  0.2246
 5454TIP3    H237778   0.381   4.443  12.260  0.9546  0.2287  0.7167
 5455TIP3   OH237779   6.534   0.169  13.008 -0.4530  0.1457  0.8060
 5455TIP3    H137780   6.448   0.195  12.974 -0.4774  0.1364  0.8610
 5455TIP3    H237781   6.549   0.228  13.082 -0.5883 -0.1195  1.0422
 5456TIP3   OH237782   5.184   1.120  13.954  0.5797  0.6425  0.1429
 5456TIP3    H137783   5.229   1.189  13.905  1.5352 -0.2663 -0.2710
 5456TIP3    H237784   5.221   1.039  13.921  0.0767 -0.0467  1.2409
 5457TIP3   OH237785   4.284   6.503  12.068  0.0181  0.2761 -0.3452
 5457TIP3    H137786   4.345   6.451  12.015  0.2051  0.2755 -0.1300
 5457TIP3    H237787   4.339   6.569  12.110 -0.1329  0.2942 -0.1747
 5458TIP3   OH237788   1.682   2.415  13.123 -0.1639  0.2411 -0.2226
 5458TIP3    H137789   1.653   2.452  13.206 -0.8259 -2.1163  0.6443
 5458TIP3    H237790   1.768   2.453  13.108 -0.6349  1.7451  0.8442
 5459TIP3   OH237791   4.961   1.115  11.710  0.4967  0.1863  0.4379
 5459TIP3    H137792   5.036   1.132  11.654 -0.0582  1.9164  0.1872
 5459TIP3    H237793   4.947   1.197  11.757 -1.4988  0.0212  0.1673
 5460TIP3   OH237794   2.695   2.747  12.696  0.1379  0.0039 -0.0421
 5460TIP3    H137795   2.716   2.831  12.655 -0.8628  0.0318 -0.5021
 5460TIP3    H237796   2.607   2.759  12.732 -0.6389 -1.3341 -1.4487
 5461TIP3   OH237797   3.821   2.021  12.536 -0.0348 -0.2902 -0.0410
 5461TIP3    H137798   3.838   2.115  12.531 -0.9510  0.0372  2.0976
 5461TIP3    H237799   3.761   2.012  12.611  2.6576 -2.8976  1.9026
 5462TIP3   OH237800   4.586   2.087  12.734 -0.3084  0.1493  0.3311
 5462TIP3    H137801   4.494   2.070  12.754 -1.0099 -1.2658 -3.6192
 5462TIP3    H237802   4.630   2.004  12.752 -0.3766 -0.1303 -0.7586
 5463TIP3   OH237803   3.168   1.622  12.645 -0.1414  0.0499  0.2179
 5463TIP3    H137804   3.241   1.680  12.621 -1.4946  1.6490 -0.1731
 5463TIP3    H237805   3.147   1.647  12.735  1.1704 -1.9207  1.1046
 5464TIP3   OH237806   2.071   1.646  13.815 -0.5722 -0.1508  0.2678
 5464TIP3    H137807   2.153   1.693  13.828 -1.1615  0.6908  1.0020
 5464TIP3    H237808   2.019   1.704  13.759 -0.6505 -0.6962 -0.2292
 5465TIP3   OH237809   6.676   4.508  13.819  0.1794 -0.1532 -0.1368
 5465TIP3    H137810   6.627   4.426  13.816 -1.0720  0.5887 -0.6181
 5465TIP3    H237811   6.640   4.555  13.894  1.4528 -0.3850  0.6215
 5466TIP3   OH237812   3.912   2.728  14.869 -0.0475 -0.3488  0.0973
 5466TIP3    H137813   3.947   2.641  14.889 -1.6124 -0.9397  0.3914
 5466TIP3    H237814   3.983   2.788  14.891  1.2615 -1.5873 -0.6632
 5467TIP3   OH237815   3.615   2.444   9.654 -0.4239  0.0218  0.5637
 5467TIP3    H137816   3.608   2.530   9.612  1.4913 -0.7194 -1.3512
 5467TIP3    H237817   3.702   2.444   9.694 -0.8932 -0.6031  1.6190
 5468TIP3   OH237818   5.012   2.506  10.626 -0.1386  0.8762  0.2487
 5468TIP3    H137819   5.028   2.468  10.540 -2.8418  2.0503 -0.8338
 5468TIP3    H237820   4.980   2.433  10.679  1.8916  0.0685  0.4278
 5469TIP3   OH237821   0.472   6.493  14.756  0.0825 -0.2198 -0.0086
 5469TIP3    H137822   0.442   6.402  14.757 -0.6474  0.0008 -1.1253
 5469TIP3    H237823   0.400   6.542  14.714  1.1353  0.6318 -0.8497
 5470TIP3   OH237824   0.155   3.477  12.378  0.2671  0.2425 -0.2443
 5470TIP3    H137825   0.241   3.504  12.348  0.8422 -1.4262 -0.1292
 5470TIP3    H237826   0.151   3.505  12.470 -0.1291  2.1501 -0.8106
 5471TIP3   OH237827   4.729   1.135  14.740 -0.0823 -0.0353 -0.2246
 5471TIP3    H137828   4.657   1.172  14.689  0.5099  2.8659  0.9439
 5471TIP3    H237829   4.699   1.141  14.830  0.9015 -0.4593  0.1300
 5472TIP3   OH237830   6.878   6.339  13.422 -0.4438 -0.7867 -0.3924
 5472TIP3    H137831   6.963   6.334  13.464 -0.1111  0.4541 -0.8715
 5472TIP3    H237832   6.821   6.284  13.475 -0.0787  0.8332  1.7688
 5473TIP3   OH237833   2.425   4.499  10.603  0.2521  0.0952  0.1590
 5473TIP3    H137834   2.330   4.486  10.611  0.0489  0.2783 -1.7299
 5473TIP3    H237835   2.436   4.594  10.598  0.5536  0.0760  0.4174
 5474TIP3   OH237836   1.009   2.085  10.020 -0.0983 -0.3982  0.5582
 5474TIP3    H137837   1.100   2.107   9.999  0.0423 -0.2076  1.3358
 5474TIP3    H237838   0.969   2.065   9.936  0.4171  0.4482  0.1021
 5475TIP3   OH237839   1.105   2.761  13.296  0.0348  0.4475  0.0668
 5475TIP3    H137840   1.015   2.735  13.273  0.0755 -2.2171  2.6795
 5475TIP3    H237841   1.113   2.741  13.389  3.0112  1.7190  0.1322
 5476TIP3   OH237842   5.157   5.068  14.106 -0.5032 -0.2983 -0.1357
 5476TIP3    H137843   5.147   5.021  14.189  0.2076 -2.1852 -1.0911
 5476TIP3    H237844   5.198   5.151  14.130  1.7931 -1.7687  1.1531
 5477TIP3   OH237845   2.632   1.402  11.638  0.2096  0.4348 -0.0915
 5477TIP3    H137846   2.621   1.471  11.573  0.2361  0.0090 -0.5503
 5477TIP3    H237847   2.590   1.325  11.599  0.2411  0.1721  0.3839
 5478TIP3   OH237848   1.766   3.199  10.426 -0.5634 -0.1576  0.1130
 5478TIP3    H137849   1.741   3.274  10.480 -0.1133 -0.7318  1.1356
 5478TIP3    H237850   1.825   3.235  10.360  0.4141  0.2305  1.1876
 5479TIP3   OH237851   6.542   5.753  11.444 -0.2113  0.0535 -0.0408
 5479TIP3    H137852   6.622   5.760  11.392 -0.1092 -0.0689  0.0947
 5479TIP3    H237853   6.478   5.808  11.399 -0.2925 -0.4942 -0.6100
 5480TIP3   OH237854   6.238   5.859  10.833 -0.4073 -0.0058 -0.1874
 5480TIP3    H137855   6.279   5.871  10.747 -0.3812  1.5506  0.0385
 5480TIP3    H237856   6.293   5.793  10.876  0.6775  0.5776 -0.6633
 5481TIP3   OH237857   1.359   4.940  10.176 -0.1283  0.2775  0.3322
 5481TIP3    H137858   1.285   4.947  10.115  0.4847  0.4035 -0.4021
 5481TIP3    H237859   1.390   5.030  10.187  0.1621  0.1774  0.3319
 5482TIP3   OH237860   4.910   5.625  12.275 -0.2200  0.8686  0.4283
 5482TIP3    H137861   4.988   5.571  12.288  0.1085  0.7147 -1.9692
 5482TIP3    H237862   4.882   5.647  12.363  1.5258 -0.5254  1.3798
 5483TIP3   OH237863   0.554   6.269  12.145 -0.0569  0.6758  0.2203
 5483TIP3    H137864   0.496   6.329  12.099  0.9606  2.0925  0.7490
 5483TIP3    H237865   0.616   6.239  12.079  0.6803  1.7970  0.3903
 5484TIP3   OH237866   5.469   4.387  14.858  0.3433 -0.3420 -0.0587
 5484TIP3    H137867   5.496   4.433  14.938 -1.1512  0.4944 -0.0284
 5484TIP3    H237868   5.421   4.310  14.889  0.6519 -0.5701 -0.1416
 5485TIP3   OH237869   2.005   2.140  13.984  0.2464  0.3578  0.0241
 5485TIP3    H137870   2.057   2.100  14.053 -0.9068  0.2879  0.8618
 5485TIP3    H237871   1.915   2.115  14.003 -0.0519  0.0638 -1.7019
 5486TIP3   OH237872   1.612   6.472   0.248 -0.6539 -0.3468  0.2148
 5486TIP3    H137873   1.676   6.503   0.184  1.0164 -1.7173  1.1915
 5486TIP3    H237874   1.638   6.514   0.330 -0.5715 -1.4589  0.7639
 5487TIP3   OH237875   1.470   1.322  14.075  0.2880  0.4813 -0.2732
 5487TIP3    H137876   1.417   1.268  14.134  0.1325  0.1058 -0.7487
 5487TIP3    H237877   1.444   1.412  14.096  0.9363  0.4088  0.8953
 5488TIP3   OH237878   2.078   1.411   0.082 -0.2139  0.0619  0.3622
 5488TIP3    H137879   2.115   1.465   0.152  0.7626  0.0281 -0.1231
 5488TIP3    H237880   2.146   1.347   0.063 -0.6498 -0.1950 -0.3259
 5489TIP3   OH237881   0.058   3.457  10.992  0.5875 -0.3895  0.6716
 5489TIP3    H137882  -0.015   3.508  10.958  0.3533 -0.8357  0.5127
 5489TIP3    H237883   0.055   3.374  10.945  1.4690 -0.2387  0.3322
 5490TIP3   OH237884   1.894   4.776  13.175 -0.3877 -0.0034 -0.3248
 5490TIP3    H137885   1.856   4.708  13.230  1.0414  0.0467  0.7278
 5490TIP3    H237886   1.907   4.851  13.233  1.4504 -0.0594 -0.6360
 5491TIP3   OH237887   5.685   6.383  11.997 -0.0323 -0.1081 -0.1483
 5491TIP3    H137888   5.604   6.367  12.047  1.1885  0.7750  2.1629
 5491TIP3    H237889   5.677   6.473  11.966  0.7036  0.4866  1.3461
 5492TIP3   OH237890   4.212   5.738  12.121 -0.3349 -0.5627 -0.4395
 5492TIP3    H137891   4.122   5.728  12.151 -0.1135  0.5422  0.6408
 5492TIP3    H237892   4.265   5.698  12.190  0.1911  2.2624  0.8594
 5493TIP3   OH237893   3.121   0.478  15.138 -0.0791  0.0672 -0.0163
 5493TIP3    H137894   3.131   0.423  15.216 -0.7770 -0.7127 -0.4671
 5493TIP3    H237895   3.070   0.424  15.078 -0.6659  1.1820 -0.5129
 5494TIP3   OH237896   2.536   6.185  15.297  0.2585  0.1475  0.2662
 5494TIP3    H137897   2.552   6.209  15.206  1.7136 -0.6644  0.2951
 5494TIP3    H237898   2.478   6.254  15.330  1.5776  1.7189 -0.6088
 5495TIP3   OH237899   5.713   3.077  12.833 -0.0780  0.0735 -0.0294
 5495TIP3    H137900   5.768   3.152  12.857  1.8641 -2.1269  2.5992
 5495TIP3    H237901   5.755   3.040  12.755  0.1244  0.4706 -0.1104
 5496TIP3   OH237902   1.781   3.375  15.385 -0.1020 -0.3321  0.1585
 5496TIP3    H137903   1.788   3.415  15.471  1.5779 -0.0254 -0.1019
 5496TIP3    H237904   1.871   3.348  15.363 -0.7569 -1.7807 -0.8316
 5497TIP3   OH237905   7.004   2.744  11.513 -0.4911 -0.0872  0.2679
 5497TIP3    H137906   7.078   2.687  11.494 -1.8029 -2.2784  1.4023
 5497TIP3    H237907   6.981   2.723  11.604 -3.1153 -0.2243 -0.3766
 5498TIP3   OH237908   4.092   2.769  11.481  0.0528 -0.0844 -0.3058
 5498TIP3    H137909   4.070   2.862  11.486  1.0764  0.1447 -0.1058
 5498TIP3    H237910   4.039   2.736  11.408 -0.5572  0.5812 -0.1648
 5499TIP3   OH237911   0.689   0.491  12.972 -0.0198 -0.7711 -0.1086
 5499TIP3    H137912   0.651   0.408  12.944  1.8065 -0.7122 -2.9562
 5499TIP3    H237913   0.689   0.545  12.893  0.5859  1.2488  1.2396
 5500TIP3   OH237914   5.171   3.238  15.313 -0.2624 -0.3953 -0.1183
 5500TIP3    H137915   5.145   3.323  15.350  2.0948  0.4155 -0.2139
 5500TIP3    H237916   5.261   3.252  15.284  0.4473 -3.1700  0.6234
 5501TIP3   OH237917   2.501   3.413  10.526 -0.3159 -0.5139  0.3165
 5501TIP3    H137918   2.494   3.356  10.449 -1.7842  0.6818 -0.4688
 5501TIP3    H237919   2.585   3.458  10.515  0.5565 -2.0610  0.6233
 5502TIP3   OH237920   5.069   6.646  10.505  0.2339 -0.0360 -0.2396
 5502TIP3    H137921   5.123   6.570  10.485 -2.3094 -1.4238 -2.2394
 5502TIP3    H237922   4.986   6.609  10.535 -0.1094  2.0086  1.4292
 5503TIP3   OH237923   5.375   1.547  12.062 -0.1197 -0.7789  0.2958
 5503TIP3    H137924   5.285   1.560  12.091  0.2993 -0.3465  1.4283
 5503TIP3    H237925   5.394   1.456  12.082 -0.6241 -1.1474 -0.8560
 5504TIP3   OH237926   5.195   0.220  14.135  0.5828  0.1709 -0.3615
 5504TIP3    H137927   5.121   0.253  14.085 -1.0331 -0.3513  1.5956
 5504TIP3    H237928   5.233   0.152  14.080 -0.1086  0.7730 -1.5935
 5505TIP3   OH237929   1.638   3.710  11.136  0.0701  0.1491 -0.1456
 5505TIP3    H137930   1.651   3.691  11.043  1.4489  2.4945 -0.4987
 5505TIP3    H237931   1.644   3.625  11.180 -2.8964 -1.2875 -2.3893
 5506TIP3   OH237932   4.843   5.605  10.758 -0.6763  0.1900 -0.2371
 5506TIP3    H137933   4.748   5.595  10.759 -0.6711 -0.2322 -1.8223
 5506TIP3    H237934   4.857   5.693  10.722 -0.4679  0.6984  1.0399
 5507TIP3   OH237935   6.242   6.469  14.088 -0.3259 -0.1642  0.2188
 5507TIP3    H137936   6.265   6.396  14.144 -0.7844  0.0299  0.6597
 5507TIP3    H237937   6.249   6.434  13.999 -3.3746 -1.5951  0.4885
 5508TIP3   OH237938   6.136   5.260  12.919  0.0886 -0.0843  0.3957
 5508TIP3    H137939   6.068   5.237  12.983 -0.3280  2.7082  1.0244
 5508TIP3    H237940   6.197   5.315  12.967  0.0768  1.6007 -1.4391
 5509TIP3   OH237941   0.674   6.347  13.105 -0.1259 -0.1933  0.1024
 5509TIP3    H137942   0.683   6.347  13.201 -0.0333 -2.2487  0.1180
 5509TIP3    H237943   0.579   6.349  13.090 -0.1195  1.4534  0.2034
 5510TIP3   OH237944   6.039   3.789   9.888 -0.1438  0.0581 -0.0724
 5510TIP3    H137945   6.081   3.705   9.907  1.2467  0.6686 -0.4453
 5510TIP3    H237946   5.948   3.777   9.916  0.0565 -1.5597 -0.0827
 5511TIP3   OH237947   2.301   6.621   0.544 -0.1121 -0.2578  0.0124
 5511TIP3    H137948   2.250   6.542   0.529  0.7125 -0.4421 -2.0145
 5511TIP3    H237949   2.318   6.656   0.456 -0.9700  2.5003  0.8803
 5512TIP3   OH237950   3.211   3.708  13.532 -0.3276 -0.0289  0.8354
 5512TIP3    H137951   3.238   3.792  13.568  1.5848  0.6153 -1.9433
 5512TIP3    H237952   3.139   3.729  13.472 -0.1398 -0.4281  0.4672
 5513TIP3   OH237953   5.245   2.783  11.792 -0.1130  0.3957  0.0757
 5513TIP3    H137954   5.239   2.709  11.851  0.1158 -0.1509 -0.5761
 5513TIP3    H237955   5.338   2.806  11.790  0.1643 -0.7568 -1.4674
 5514TIP3   OH237956   0.728   5.149  14.014 -0.0707 -0.6799 -0.3744
 5514TIP3    H137957   0.672   5.145  13.936  0.3623  1.2703 -0.8153
 5514TIP3    H237958   0.815   5.125  13.981  0.2499  0.8126 -0.6609
 5515TIP3   OH237959   5.240   3.392  11.452 -0.2665  0.1875 -0.8320
 5515TIP3    H137960   5.241   3.402  11.547  0.1067 -0.2221 -0.7924
 5515TIP3    H237961   5.206   3.304  11.437  0.8958 -0.2391 -1.0334
 5516TIP3   OH237962   1.424   6.380  11.240 -0.2416 -0.2554 -0.6563
 5516TIP3    H137963   1.513   6.347  11.245  0.6615  2.0174 -0.8075
 5516TIP3    H237964   1.416   6.440  11.314 -1.5833 -0.2869 -0.7505
 5517TIP3   OH237965   1.872   1.247  12.277  0.1870 -0.1175  0.3316
 5517TIP3    H137966   1.904   1.168  12.321 -0.4957 -0.7490 -0.2884
 5517TIP3    H237967   1.927   1.318  12.311 -1.1408 -0.3814  3.1138
 5518TIP3   OH237968   2.178   5.158   9.954 -0.6753 -0.4578 -0.0581
 5518TIP3    H137969   2.100   5.103   9.944 -0.0710 -1.4383  0.5095
 5518TIP3    H237970   2.219   5.157   9.867 -1.4869  0.3693 -0.4573
 5519TIP3   OH237971   7.068   5.405  11.201  0.3601 -0.3713 -0.3438
 5519TIP3    H137972   7.082   5.369  11.113 -1.2743  0.8366 -1.1200
 5519TIP3    H237973   7.033   5.332  11.251  1.3473 -1.0867 -0.6713
 5520TIP3   OH237974   2.746   5.912  11.880  0.2138  0.4575 -0.4993
 5520TIP3    H137975   2.834   5.885  11.906  0.5902  2.2357  0.1922
 5520TIP3    H237976   2.691   5.836  11.896  1.7409 -0.9204 -1.6519
 5521TIP3   OH237977   1.869   5.199  13.520 -0.3547  0.3083 -0.1514
 5521TIP3    H137978   1.919   5.184  13.601 -1.5716 -1.6056  0.2733
 5521TIP3    H237979   1.879   5.292  13.503  0.0288  0.7257  2.1418
 5522TIP3   OH237980   5.957   4.860  12.578  1.1277 -0.1992  0.5619
 5522TIP3    H137981   5.926   4.803  12.508  3.8308 -0.3201 -0.5990
 5522TIP3    H237982   5.911   4.943  12.564 -1.2810 -1.3961  1.0366
 5523TIP3   OH237983   5.085   2.084  11.266 -0.7645  0.1149 -0.1822
 5523TIP3    H137984   5.142   2.036  11.327 -1.6875 -0.3487  0.3133
 5523TIP3    H237985   5.131   2.080  11.183  0.7007  1.0752  0.5455
 5524TIP3   OH237986   6.634   3.574  11.983 -0.1031 -0.0520 -0.1222
 5524TIP3    H137987   6.652   3.505  11.920  0.5686  2.2553 -2.5177
 5524TIP3    H237988   6.538   3.579  11.986 -0.2134  2.6051 -4.2132
 5525TIP3   OH237989   3.236   6.251  10.749  0.7436 -0.2941  0.4955
 5525TIP3    H137990   3.171   6.186  10.722  0.9668 -0.4870  0.4217
 5525TIP3    H237991   3.277   6.279  10.667  0.3174  0.2904  0.4787
 5526TIP3   OH237992   4.792   1.568  12.129  0.5386  0.4512  0.3257
 5526TIP3    H137993   4.837   1.631  12.185  2.0558  1.2376 -1.7127
 5526TIP3    H237994   4.856   1.498  12.114 -0.0107  0.0197 -0.0558
 5527TIP3   OH237995   5.755   2.953  12.363  0.0436  0.0829 -0.2829
 5527TIP3    H137996   5.783   2.959  12.271  0.9556 -1.8739 -0.1425
 5527TIP3    H237997   5.804   2.879  12.399  0.4900  1.4582  2.0894
 5528TIP3   OH237998   6.823   0.684  13.262  0.2310  0.9108  0.0056
 5528TIP3    H137999   6.858   0.749  13.201  1.5905  0.6201  0.4647
 5528TIP3    H238000   6.894   0.621  13.274 -0.9682 -0.5230 -0.2084
 5529TIP3   OH238001   5.642   1.655  12.152  0.5907 -0.2470  0.3043
 5529TIP3    H138002   5.702   1.638  12.224 -1.2734 -2.1493  1.4427
 5529TIP3    H238003   5.663   1.588  12.087  0.6276 -0.0555  0.1188
 5530TIP3   OH238004   1.487   0.026  14.554  0.5594 -0.1199  0.0241
 5530TIP3    H138005   1.458   0.021  14.645  0.5619 -2.5770 -0.0898
 5530TIP3    H238006   1.442   0.103  14.519 -0.7694 -0.1465  1.6191
 5531TIP3   OH238007   0.202   0.502  11.518 -0.0954 -0.1521 -0.1520
 5531TIP3    H138008   0.166   0.550  11.443 -1.2091 -1.4770 -0.4882
 5531TIP3    H238009   0.208   0.568  11.587  1.1153  1.1182 -1.4531
 5532TIP3   OH238010   2.950   3.781   1.339 -0.2998 -0.1365 -0.0368
 5532TIP3    H138011   2.979   3.758   1.427  1.5096 -1.3536 -0.9147
 5532TIP3    H238012   2.909   3.701   1.306 -1.3131  0.4348 -0.1627
 5533TIP3   OH238013   4.933   6.246  10.358 -0.1084  0.2610 -0.2774
 5533TIP3    H138014   4.986   6.307  10.307  1.4612 -0.3394  0.6096
 5533TIP3    H238015   4.879   6.200  10.293  2.0091 -0.6615 -1.4371
 5534TIP3   OH238016   0.554   2.203  13.833 -0.0206  0.6806  0.9372
 5534TIP3    H138017   0.603   2.211  13.750 -1.0827 -1.4976  0.0515
 5534TIP3    H238018   0.620   2.174  13.896  0.1750 -0.7996  0.0899
 5535TIP3   OH238019   0.794   0.805  12.824  0.2784  0.1308  0.5370
 5535TIP3    H138020   0.794   0.889  12.779 -2.6762  0.5275  1.1860
 5535TIP3    H238021   0.736   0.749  12.770 -0.1566 -0.5641  1.7018
 5536TIP3   OH238022   1.522   3.735   1.065 -0.3000  0.4909  0.0783
 5536TIP3    H138023   1.605   3.725   1.019 -0.4000  0.5991 -0.1252
 5536TIP3    H238024   1.456   3.734   0.996 -0.5790 -1.0438  0.3593
 5537TIP3   OH238025   4.206   3.653  13.768 -0.4090  0.6650 -0.0179
 5537TIP3    H138026   4.157   3.625  13.691 -1.9115 -0.0638  1.1794
 5537TIP3    H238027   4.276   3.589  13.777 -1.7459 -0.7303  0.6775
 5538TIP3   OH238028   1.114   4.955  11.695  0.1211 -0.1744 -0.0943
 5538TIP3    H138029   1.132   5.012  11.621  0.3592  0.5224  0.4955
 5538TIP3    H238030   1.152   4.870  11.670 -2.4648 -0.7884 -2.0298
 5539TIP3   OH238031   1.262   5.282  14.812  0.3022  0.4029  0.4191
 5539TIP3    H138032   1.223   5.230  14.741 -1.2822  0.2669  1.3802
 5539TIP3    H238033   1.248   5.373  14.785 -0.1223  0.3510  0.4648
 5540TIP3   OH238034   7.123   1.365  13.332 -0.0247  0.1205 -0.5046
 5540TIP3    H138035   7.098   1.455  13.312 -1.3198  0.3269  1.8804
 5540TIP3    H238036   7.085   1.314  13.260 -1.4374  1.2316 -0.5817
 5541TIP3   OH238037   2.486   5.583   0.553 -0.2633 -0.4667 -0.0171
 5541TIP3    H138038   2.434   5.505   0.532 -0.6287 -0.1011 -0.4728
 5541TIP3    H238039   2.533   5.603   0.472  0.1762 -0.4807  0.2351
 5542TIP3   OH238040   6.425   1.517  12.023 -0.2491 -0.2500  0.4398
 5542TIP3    H138041   6.434   1.429  12.059 -0.2991 -0.2951  0.3444
 5542TIP3    H238042   6.433   1.505  11.928 -2.6765 -0.4775  0.2353
 5543TIP3   OH238043   1.663   3.941  11.482  0.3587  0.1709 -0.0234
 5543TIP3    H138044   1.571   3.954  11.505  0.5801  1.6274  0.0700
 5543TIP3    H238045   1.710   3.950  11.565  0.7611  1.3865 -0.3663
 5544TIP3   OH238046   5.469   6.652  11.467 -0.3455  0.2378 -0.1638
 5544TIP3    H138047   5.467   6.571  11.417 -0.4846 -0.5056  1.0134
 5544TIP3    H238048   5.404   6.638  11.537  1.9780  0.0314  2.0363
 5545TIP3   OH238049   0.838   6.005  14.547  0.0861  0.0496  0.1687
 5545TIP3    H138050   0.870   6.092  14.570  0.5217 -0.8416  3.2452
 5545TIP3    H238051   0.757   6.021  14.498  1.4138  2.1856 -1.4137
 5546TIP3   OH238052   0.056   4.462  12.929  0.7166  0.0414  0.2462
 5546TIP3    H138053  -0.013   4.405  12.896  0.4034  1.0963 -0.9796
 5546TIP3    H238054   0.137   4.413  12.914  1.0943  2.0792 -6.2028
 5547TIP3   OH238055   0.353   0.513  12.012 -0.7295  0.2246 -0.3461
 5547TIP3    H138056   0.301   0.588  12.043 -1.8453 -0.3856 -0.7367
 5547TIP3    H238057   0.441   0.532  12.043 -1.2891  0.9855  0.8390
 5548TIP3   OH238058   2.702   6.758  11.616 -0.2601 -0.2801 -0.3858
 5548TIP3    H138059   2.611   6.787  11.619 -0.2054  0.0359 -1.7361
 5548TIP3    H238060   2.733   6.767  11.707 -1.2367  0.6674 -0.1414
 5549TIP3   OH238061   0.442   5.677  10.375  0.6485 -0.4938  0.2124
 5549TIP3    H138062   0.389   5.651  10.300  0.8534 -0.5302  0.0798
 5549TIP3    H238063   0.379   5.691  10.445  0.3306  0.7191 -0.2925
 5550TIP3   OH238064   1.424   6.661   0.173  0.9929  0.0087 -0.0334
 5550TIP3    H138065   1.453   6.581   0.218 -0.4355  0.0226  0.9037
 5550TIP3    H238066   1.448   6.645   0.081 -0.8816 -2.2947 -0.1844
 5551TIP3   OH238067   6.109   4.379  11.894 -0.4924  0.0017 -0.3052
 5551TIP3    H138068   6.030   4.331  11.919  0.0696 -1.0772 -0.5827
 5551TIP3    H238069   6.147   4.328  11.823  0.4949  0.4899 -0.1382
 5552TIP3   OH238070   5.941   3.181  12.514  0.0173 -0.7617 -0.4419
 5552TIP3    H138071   5.938   3.087  12.531  0.9676 -0.2254  3.0618
 5552TIP3    H238072   6.034   3.204  12.525 -0.7903  1.2208  2.9895
 5553TIP3   OH238073   3.410   5.414   1.243  0.5743 -0.1361 -0.5717
 5553TIP3    H138074   3.353   5.343   1.273  1.3612 -0.5868 -0.1138
 5553TIP3    H238075   3.456   5.442   1.322  0.1818  0.9661 -0.7290
 5554TIP3   OH238076   0.965   5.194  12.548  0.1728 -0.2486 -0.3394
 5554TIP3    H138077   0.886   5.169  12.499  0.8952 -1.8695 -0.7027
 5554TIP3    H238078   0.960   5.142  12.628 -0.0534  1.0130  0.4753
 5555TIP3   OH238079   0.377   3.992  11.429 -0.2332  0.2612 -0.3133
 5555TIP3    H138080   0.328   3.972  11.349  0.7605 -0.4880 -0.7316
 5555TIP3    H238081   0.316   3.971  11.500  0.3005 -3.0372 -0.7601
 5556TIP3   OH238082   6.317   2.165  11.656  1.0456  0.5307  0.4207
 5556TIP3    H138083   6.259   2.211  11.717  1.3388 -0.5076  1.4994
 5556TIP3    H238084   6.326   2.225  11.582 -0.0214  1.4365  1.0075
 5557TIP3   OH238085   0.394   2.754  11.048 -0.0799 -0.2773 -0.2899
 5557TIP3    H138086   0.302   2.730  11.051  0.1671 -1.1965  0.5089
 5557TIP3    H238087   0.440   2.670  11.039  0.6424  0.2308 -1.3740
 5558TIP3   OH238088   6.201   5.567  12.342 -0.0840  0.2099  0.0752
 5558TIP3    H138089   6.218   5.656  12.374  0.1935 -0.8397  2.9752
 5558TIP3    H238090   6.106   5.558  12.344 -0.1510  0.6400 -0.8355
 5559TIP3   OH238091   1.935   5.607  10.140 -0.4060  0.7749 -0.4315
 5559TIP3    H138092   2.014   5.607  10.086  0.2475 -0.5875  0.4648
 5559TIP3    H238093   1.870   5.561  10.088  0.1480 -0.3102 -0.1987
 5560TIP3   OH238094   5.347   4.730  12.252  0.0095 -0.1082  0.1351
 5560TIP3    H138095   5.264   4.768  12.223  0.0207 -0.4462 -0.3353
 5560TIP3    H238096   5.362   4.657  12.192  1.2500  0.6982 -0.5500
 5561TIP3   OH238097   3.179   3.848  15.179 -0.3282 -0.1154 -0.7198
 5561TIP3    H138098   3.265   3.828  15.214  0.5823  1.3109 -2.0730
 5561TIP3    H238099   3.121   3.850  15.255  0.7900 -1.2673  0.1679
 5562TIP3   OH238100   4.721   4.087  11.590  0.5193 -0.2189  0.1075
 5562TIP3    H138101   4.669   4.009  11.606  1.3867 -0.5934  1.1944
 5562TIP3    H238102   4.680   4.155  11.644  0.7844 -0.3652  0.4993
 5563TIP3   OH238103   6.952   7.023  10.731  0.0293  0.6734  0.0415
 5563TIP3    H138104   6.946   7.047  10.824 -0.3404  1.0587 -0.0790
 5563TIP3    H238105   6.891   7.083  10.687  0.9574  1.1629 -0.5774
 5564TIP3   OH238106   6.168   0.297  14.093  0.1516 -0.4791 -0.1311
 5564TIP3    H138107   6.228   0.249  14.037  0.1191 -1.2606  0.4957
 5564TIP3    H238108   6.083   0.289  14.050 -0.0012 -1.6517  0.3731
 5565TIP3   OH238109   4.532   3.398  11.400 -0.7960  0.1425  0.4070
 5565TIP3    H138110   4.533   3.303  11.412  0.0912  0.4179  2.6560
 5565TIP3    H238111   4.471   3.412  11.328 -0.8298 -2.1429 -0.0488
 5566TIP3   OH238112   5.459   4.903  11.599 -0.5115  0.0589 -0.2910
 5566TIP3    H138113   5.531   4.865  11.548 -0.1948  0.6887 -0.3212
 5566TIP3    H238114   5.413   4.827  11.635  0.7461 -0.3410  0.5223
 5567TIP3   OH238115   5.414   4.116  10.684 -0.1341 -0.1024  0.3899
 5567TIP3    H138116   5.496   4.089  10.725 -0.8254 -2.2556  0.4216
 5567TIP3    H238117   5.383   4.190  10.736  0.4246 -0.9940  1.9987
 5568TIP3   OH238118   0.392   6.974  10.697 -0.2363 -0.4786  0.0268
 5568TIP3    H138119   0.354   7.028  10.628 -1.1059 -2.2464 -0.9188
 5568TIP3    H238120   0.340   6.893  10.696  1.4206 -1.5913  0.9738
 5569TIP3   OH238121   4.038   6.155   0.744 -0.6817 -0.0173 -0.1195
 5569TIP3    H138122   4.131   6.162   0.765 -0.5056 -2.3267 -0.0708
 5569TIP3    H238123   3.993   6.184   0.823  0.0082 -2.9237  1.3972
 5570TIP3   OH238124   4.391   6.465  13.111  0.1936  0.2612 -0.2272
 5570TIP3    H138125   4.400   6.410  13.033 -2.1789  0.6744 -0.8326
 5570TIP3    H238126   4.431   6.549  13.086  1.5009 -0.3261 -0.1763
 5571TIP3   OH238127   6.913   3.428  14.736  0.1795 -0.0302  0.0301
 5571TIP3    H138128   6.818   3.440  14.746  0.1550 -0.0407 -0.1885
 5571TIP3    H238129   6.924   3.401  14.645  0.4148  0.2100 -0.0125
 5572TIP3   OH238130   4.921   4.156  10.480  0.2970  0.0709 -0.1749
 5572TIP3    H138131   4.860   4.143  10.407 -0.6636 -0.2992  0.6740
 5572TIP3    H238132   4.887   4.232  10.526  1.6317  1.0847 -0.8187
 5573TIP3   OH238133   6.801   5.141  11.663 -0.0769 -0.4117  0.2547
 5573TIP3    H138134   6.853   5.082  11.718  2.4495 -0.4532 -2.0445
 5573TIP3    H238135   6.829   5.229  11.688  1.0370 -0.4289 -0.8861
 5574TIP3   OH238136   6.659   4.455   9.896 -0.4703 -0.1478 -0.7580
 5574TIP3    H138137   6.565   4.453   9.912 -0.2867  0.3892  0.4146
 5574TIP3    H238138   6.675   4.380   9.838 -1.4249 -0.9949  0.0482
 5575TIP3   OH238139   0.669   1.146  12.178  0.1068  0.2979  0.3438
 5575TIP3    H138140   0.636   1.217  12.234  1.0069  0.2661  0.9313
 5575TIP3    H238141   0.691   1.076  12.240 -0.5502 -0.4095 -0.2134
 5576TIP3   OH238142   6.143   4.921   9.925 -0.4126 -0.3118 -0.0710
 5576TIP3    H138143   6.155   4.826   9.922 -1.0697 -0.3581 -1.2588
 5576TIP3    H238144   6.048   4.933   9.927 -0.3347  0.3354 -0.1842
 5577TIP3   OH238145   5.224   0.796  14.273  0.4238  0.0707  0.0166
 5577TIP3    H138146   5.283   0.853  14.323  0.0011 -0.1261  0.7576
 5577TIP3    H238147   5.165   0.760  14.339  2.5964 -3.6849  0.0353
 5578TIP3   OH238148   0.137   6.511  10.834 -0.2410 -0.1731  0.2902
 5578TIP3    H138149   0.199   6.511  10.907 -1.0054  2.7860  1.0078
 5578TIP3    H238150   0.176   6.570  10.769 -0.5247 -1.2387 -0.8817
 5579TIP3   OH238151   3.282   6.283  14.662 -0.2060 -0.4060 -0.8433
 5579TIP3    H138152   3.295   6.251  14.751 -0.7959  0.1213 -0.5673
 5579TIP3    H238153   3.246   6.208  14.615 -2.0250 -0.0250 -0.0824
 5580TIP3   OH238154   5.003   5.301  12.179 -0.1733 -0.4770 -0.1896
 5580TIP3    H138155   5.000   5.328  12.271  0.4871 -0.3794 -0.1973
 5580TIP3    H238156   4.973   5.377  12.130 -0.0955 -0.3809 -0.0865
 5581TIP3   OH238157   3.360   5.409   9.634 -0.4588  0.4716  0.5081
 5581TIP3    H138158   3.309   5.329   9.647  1.0783 -0.6691 -0.3476
 5581TIP3    H238159   3.345   5.432   9.543 -0.2692  0.7311  0.5418
 5582TIP3   OH238160   1.839   4.844  10.702 -0.0584  0.1789 -0.0127
 5582TIP3    H138161   1.924   4.874  10.668 -0.1510  0.4888  0.0254
 5582TIP3    H238162   1.783   4.922  10.696 -0.0416  0.2704  0.9601
 5583TIP3   OH238163   1.115   2.143  11.305  0.0203  0.7030 -0.0418
 5583TIP3    H138164   1.145   2.198  11.233  1.3385  0.9716  0.6891
 5583TIP3    H238165   1.120   2.054  11.270 -1.4127  0.9654 -0.9776
 5584TIP3   OH238166   2.768   3.197  11.743 -0.1402 -0.5018  0.4197
 5584TIP3    H138167   2.859   3.228  11.748  0.3378 -1.7484 -0.3461
 5584TIP3    H238168   2.718   3.274  11.719  1.0215 -0.3080 -1.4392
 5585TIP3   OH238169   6.714   4.601  15.043 -0.8452 -0.5669 -0.2674
 5585TIP3    H138170   6.752   4.523  15.002 -0.4004 -0.1698 -0.6199
 5585TIP3    H238171   6.697   4.575  15.134  2.8513  0.0934  0.6690
 5586TIP3   OH238172   4.888   5.359  15.216 -0.0655  0.0582  0.2157
 5586TIP3    H138173   4.871   5.452  15.198  0.0174  0.4372  1.9379
 5586TIP3    H238174   4.977   5.358  15.252 -0.4396 -0.5427  1.1405
 5587TIP3   OH238175   0.411   2.466  13.935  0.1099  0.2768  0.0272
 5587TIP3    H138176   0.461   2.544  13.910  1.6995 -1.4944 -2.5540
 5587TIP3    H238177   0.477   2.399  13.951 -1.3134 -1.5507 -1.4249
 5588TIP3   OH238178   3.288   2.073  14.817  0.2006 -0.1049 -0.3400
 5588TIP3    H138179   3.289   2.058  14.723  2.0225 -0.2557 -0.3247
 5588TIP3    H238180   3.304   1.987  14.855  0.4576  0.1145  0.0585
 5589TIP3   OH238181   0.075   3.219  11.189 -0.0658  0.0134 -0.2788
 5589TIP3    H138182   0.020   3.193  11.115 -0.1393  0.2561 -0.3121
 5589TIP3    H238183   0.077   3.315  11.184  0.7784 -0.0170 -0.5846
 5590TIP3   OH238184   0.670   4.280  15.484  0.1686  0.3099 -0.1215
 5590TIP3    H138185   0.724   4.343  15.436  0.6195 -0.1056 -0.1700
 5590TIP3    H238186   0.707   4.195  15.461  2.8696  0.2622  3.9210
 5591TIP3   OH238187   6.385   5.837  10.249  0.2107  0.1287  0.1113
 5591TIP3    H138188   6.386   5.910  10.187  1.0145 -0.1613 -0.2203
 5591TIP3    H238189   6.369   5.760  10.195 -0.7164  0.0679  0.4734
 5592TIP3   OH238190   6.984   5.836  13.361  0.1396 -0.6888 -0.2285
 5592TIP3    H138191   7.003   5.927  13.384  2.6682 -1.3160  0.3403
 5592TIP3    H238192   6.906   5.814  13.413  0.7152  0.5340  1.2050
 5593TIP3   OH238193   4.813   1.711  15.516 -0.3517  0.1256 -0.2367
 5593TIP3    H138194   4.877   1.709  15.445 -0.7775 -1.1843 -0.6035
 5593TIP3    H238195   4.851   1.656  15.585 -0.2877  0.7648  0.2374
 5594TIP3   OH238196   6.378   5.043  12.975 -0.0427  0.1288  0.9534
 5594TIP3    H138197   6.385   5.137  12.957 -1.1866  0.4149  1.8970
 5594TIP3    H238198   6.466   5.009  12.964  0.1223  1.0610 -0.7998
 5595TIP3   OH238199   2.486   3.034  10.266  0.4926  0.0266  0.1864
 5595TIP3    H138200   2.503   3.128  10.254  1.1664 -0.1214 -0.0226
 5595TIP3    H238201   2.409   3.017  10.212  2.0305 -0.1097 -2.0394
 5596TIP3   OH238202   5.979   6.797  13.685  0.5626  0.3648  0.7032
 5596TIP3    H138203   5.932   6.880  13.698 -1.0358 -0.0598 -2.1570
 5596TIP3    H238204   6.052   6.820  13.627 -1.1205 -0.5833 -1.8640
 5597TIP3   OH238205   3.809   4.201   9.718 -0.0046  0.3828 -0.1326
 5597TIP3    H138206   3.840   4.255   9.645 -3.0787  0.9487 -1.0897
 5597TIP3    H238207   3.814   4.112   9.684  1.5044  0.3642  0.1016
 5598TIP3   OH238208   6.580   0.491  13.477  0.7314  0.4740  0.0764
 5598TIP3    H138209   6.528   0.453  13.548 -1.3893  0.8662 -1.2092
 5598TIP3    H238210   6.613   0.573  13.514  0.5142  0.1809  0.9486
 5599TIP3   OH238211   0.726   3.237  10.493  0.5113 -0.1416  0.2321
 5599TIP3    H138212   0.780   3.289  10.433  1.1946 -0.8478  0.2219
 5599TIP3    H238213   0.652   3.208  10.439 -0.3556  1.5367  0.4663
 5600TIP3   OH238214   4.202   1.224  11.612 -0.1661  0.2600 -0.8262
 5600TIP3    H138215   4.269   1.277  11.567 -0.2068  0.9238 -0.1019
 5600TIP3    H238216   4.195   1.263  11.699 -1.2262 -0.0493 -0.7697
 5601TIP3   OH238217   5.892   2.893  14.331 -0.3388 -0.2973  0.0460
 5601TIP3    H138218   5.798   2.880  14.337 -0.6175  1.2905 -0.5914
 5601TIP3    H238219   5.902   2.967  14.270  1.3459 -0.9784 -0.5283
 5602TIP3   OH238220   3.289   5.574  12.306  0.1423  0.0013 -0.2723
 5602TIP3    H138221   3.350   5.566  12.233  0.1622 -0.8878 -0.1614
 5602TIP3    H238222   3.315   5.505  12.367 -1.2837 -0.7217 -0.4603
 5603TIP3   OH238223   6.231   2.336  15.014 -0.5116 -0.3673 -0.0323
 5603TIP3    H138224   6.268   2.399  15.076 -0.6731 -1.5748  1.3180
 5603TIP3    H238225   6.308   2.290  14.979 -0.3891  0.6010 -1.0719
 5604TIP3   OH238226   2.000   2.433  11.461  0.1911 -0.0072  0.7417
 5604TIP3    H138227   1.905   2.441  11.457  0.2349  0.0404 -0.4349
 5604TIP3    H238228   2.022   2.457  11.551 -0.8938  0.1472  0.9763
 5605TIP3   OH238229   5.935   1.021  12.789 -0.3712  0.1346  0.0429
 5605TIP3    H138230   5.965   0.973  12.866  0.4663  1.8705  0.8425
 5605TIP3    H238231   5.961   0.967  12.715 -0.8506 -1.3761  0.9598
 5606TIP3   OH238232   6.817   0.988  11.544  0.3976  0.3886  0.3853
 5606TIP3    H138233   6.882   0.967  11.477  0.0633  0.2132  0.1105
 5606TIP3    H238234   6.861   0.974  11.627  0.2236 -1.2641  0.2042
 5607TIP3   OH238235   4.727   4.377  12.036  0.0564 -0.1273 -0.2788
 5607TIP3    H138236   4.704   4.297  12.083  2.9938 -0.9411 -0.1324
 5607TIP3    H238237   4.659   4.439  12.061 -0.5879 -1.6679  2.0312
 5608TIP3   OH238238   6.759   6.653  13.061  0.2655  0.2562 -0.0776
 5608TIP3    H138239   6.777   6.721  12.995  2.5097 -0.7576 -0.5438
 5608TIP3    H238240   6.768   6.698  13.145 -1.0559  1.1827 -0.4140
 5609TIP3   OH238241   4.499   4.885  14.871 -0.2353 -0.5724 -0.3895
 5609TIP3    H138242   4.584   4.870  14.914 -0.7147 -0.3716  0.6567
 5609TIP3    H238243   4.504   4.836  14.790  0.8580 -0.6362 -0.2939
 5610TIP3   OH238244   5.922   3.962  10.366 -0.0292 -0.2764  0.2585
 5610TIP3    H138245   5.920   4.058  10.362 -0.2392 -0.1928  2.0263
 5610TIP3    H238246   5.939   3.942  10.458  0.4928 -1.9386 -0.1791
 5611TIP3   OH238247   6.248   3.266  10.867  0.3770  0.1044 -0.0368
 5611TIP3    H138248   6.207   3.352  10.875 -0.6507 -0.4636  1.1371
 5611TIP3    H238249   6.270   3.242  10.957  7.6754  2.3800 -0.9121
 5612TIP3   OH238250   0.331   6.701   0.407 -0.1558  0.4565  0.3925
 5612TIP3    H138251   0.368   6.631   0.460 -0.8787  0.4621  0.9191
 5612TIP3    H238252   0.356   6.782   0.451  0.5399  0.5277 -0.1248
 5613TIP3   OH238253   4.925   5.335  14.439 -0.0581  0.3908 -0.1811
 5613TIP3    H138254   5.018   5.350  14.460 -0.1310  0.5662  0.0158
 5613TIP3    H238255   4.912   5.242  14.458  0.6790 -0.2043 -2.4569
 5614TIP3   OH238256   2.763   4.543   2.498 -0.0510  0.6562 -0.1664
 5614TIP3    H138257   2.773   4.468   2.439 -1.8619  0.0047  0.3227
 5614TIP3    H238258   2.821   4.524   2.572  0.9406  0.6609 -0.9400
 5615TIP3   OH238259   3.379   2.197  12.074 -0.2655  0.4190  0.5768
 5615TIP3    H138260   3.386   2.152  11.990 -0.3902 -0.4914  1.0510
 5615TIP3    H238261   3.285   2.208  12.087 -0.2422  0.6527  0.5482
 5616TIP3   OH238262   6.848   2.254  12.590  0.0081  0.2830 -0.5469
 5616TIP3    H138263   6.777   2.247  12.525  1.0422  0.1370 -1.6704
 5616TIP3    H238264   6.803   2.282  12.670 -1.6804 -2.1702 -0.5755
 5617TIP3   OH238265   6.507   5.545  12.830 -0.4634 -0.5060  0.5037
 5617TIP3    H138266   6.417   5.529  12.801 -0.6479 -0.9652  1.3335
 5617TIP3    H238267   6.551   5.579  12.752 -1.7561  1.2165  0.5005
 5618TIP3   OH238268   6.342   6.758  11.206  0.1364 -0.5362  0.1486
 5618TIP3    H138269   6.290   6.682  11.232 -0.8389  0.3391  0.8303
 5618TIP3    H238270   6.281   6.812  11.156  0.9538 -0.4222 -0.7204
 5619TIP3   OH238271   3.857   2.177   9.990  0.7925  0.7440 -0.4237
 5619TIP3    H138272   3.882   2.193   9.899 -1.4746  1.1934 -0.9943
 5619TIP3    H238273   3.932   2.208  10.041  2.5168 -0.4373 -2.1625
 5620TIP3   OH238274   5.584   5.150  11.694 -0.0738  0.6263 -0.1972
 5620TIP3    H138275   5.647   5.133  11.764  1.2453  0.0287 -1.5104
 5620TIP3    H238276   5.564   5.063  11.658 -0.4570  0.9586 -0.7987
 5621TIP3   OH238277   6.720   6.263  10.520 -0.3237 -0.5879 -0.2493
 5621TIP3    H138278   6.685   6.219  10.443  1.9240  0.0039 -1.6623
 5621TIP3    H238279   6.809   6.289  10.494  0.9807 -1.5951  2.9776
 5622TIP3   OH238280   0.846   3.215   0.194 -0.0792  0.2901  0.3774
 5622TIP3    H138281   0.813   3.248   0.110 -0.9586  0.1800  0.6737
 5622TIP3    H238282   0.825   3.121   0.192  1.4517 -0.0524 -0.0093
 5623TIP3   OH238283   6.365   0.572  12.830  0.0718 -0.0137 -0.0151
 5623TIP3    H138284   6.285   0.611  12.794 -1.1639 -0.4486  2.1516
 5623TIP3    H238285   6.372   0.487  12.787 -1.1359 -0.3452  0.4322
 5624TIP3   OH238286   4.916   6.303  12.512 -0.3746  0.1645 -0.1154
 5624TIP3    H138287   4.848   6.364  12.540 -1.1875 -1.3396  1.2667
 5624TIP3    H238288   4.981   6.307  12.581 -0.5201 -0.6830  0.0685
 5625TIP3   OH238289   4.616   1.811  13.999  0.6088  0.0259  0.4032
 5625TIP3    H138290   4.612   1.732  13.944 -1.1644 -0.0244  0.5664
 5625TIP3    H238291   4.579   1.784  14.083  0.0963  1.0023  0.4974
 5626TIP3   OH238292   0.272   6.841  12.655 -0.1515 -0.3888 -0.5236
 5626TIP3    H138293   0.296   6.931  12.636  0.4419 -0.0618  1.6362
 5626TIP3    H238294   0.350   6.790  12.634  0.0461 -0.1975 -0.2611
 5627TIP3   OH238295   0.536   4.637  11.882 -0.0879 -0.2133 -0.1837
 5627TIP3    H138296   0.610   4.698  11.881 -0.7872  0.6579  0.3078
 5627TIP3    H238297   0.460   4.693  11.867 -0.5724 -1.2132 -1.5755
 5628TIP3   OH238298   0.296   6.753  12.239  0.2246 -0.0367  0.2035
 5628TIP3    H138299   0.224   6.697  12.265  1.0274 -0.9625  0.4655
 5628TIP3    H238300   0.263   6.842  12.251 -1.8683 -0.3938 -2.4165
 5629TIP3   OH238301   5.042   1.309  13.293 -0.2311  0.2361  0.0237
 5629TIP3    H138302   5.036   1.341  13.203 -0.9589 -0.0466 -0.0326
 5629TIP3    H238303   4.952   1.288  13.317 -0.1661  1.1373  1.1270
 5630TIP3   OH238304   7.064   1.844  14.204  0.6330  0.6868  1.0001
 5630TIP3    H138305   7.105   1.833  14.289  1.1885  2.5501  0.9973
 5630TIP3    H238306   6.995   1.909  14.218 -1.0770 -0.9885  0.5924
 5631TIP3   OH238307   6.133   5.379   9.863 -0.1833  0.2640  0.3801
 5631TIP3    H138308   6.129   5.413   9.952  0.3925  0.5369  0.3047
 5631TIP3    H238309   6.170   5.291   9.872 -0.2166  0.2547  0.4210
 5632TIP3   OH238310   6.484   5.642  10.561 -0.5115 -0.4053  0.5473
 5632TIP3    H138311   6.500   5.688  10.644 -2.0905  0.3959  0.4457
 5632TIP3    H238312   6.401   5.597  10.575 -1.5937  1.0141 -1.1030
 5633TIP3   OH238313   5.620   3.991  10.028 -0.2722  0.3028  0.0182
 5633TIP3    H138314   5.563   4.046  10.082 -0.2464 -0.0998  0.4605
 5633TIP3    H238315   5.636   4.043   9.949  0.8330  1.4768  0.9922
 5634TIP3   OH238316   6.737   6.131  13.560  0.4104  0.2940 -0.1488
 5634TIP3    H138317   6.807   6.093  13.612  0.2692  1.7920  1.1644
 5634TIP3    H238318   6.673   6.163  13.624 -1.1424 -0.4045 -1.2941
 5635TIP3   OH238319   1.657   0.461  11.317 -0.0756 -0.1780 -0.1739
 5635TIP3    H138320   1.570   0.433  11.288 -0.5811  1.5624 -0.3831
 5635TIP3    H238321   1.696   0.502  11.239  0.7216 -0.4846  0.0620
 5636TIP3   OH238322   3.865   4.456   9.893  0.1853 -0.0251 -0.2702
 5636TIP3    H138323   3.866   4.388   9.826  0.2096 -0.2014 -0.0908
 5636TIP3    H238324   3.919   4.421   9.963 -0.8616 -0.3647  0.3674
 5637TIP3   OH238325   4.768   2.609   9.979  0.0615  0.6894  0.8375
 5637TIP3    H138326   4.689   2.613   9.925  0.0974  1.4530  0.8394
 5637TIP3    H238327   4.838   2.587   9.918 -0.1746 -0.2172  0.8725
 5638TIP3   OH238328   0.329   1.467  11.595 -0.0149  0.2325  0.2018
 5638TIP3    H138329   0.375   1.415  11.660  1.3126 -0.1201 -0.9931
 5638TIP3    H238330   0.396   1.525  11.559 -0.3595 -0.6591 -1.9416
 5639TIP3   OH238331   3.682   0.072  14.028 -0.2523  0.1279  0.0829
 5639TIP3    H138332   3.675  -0.003  13.970 -0.9961  1.2353 -1.3134
 5639TIP3    H238333   3.775   0.080  14.048 -0.0663 -0.6004 -0.4951
 5640TIP3   OH238334   2.905   2.580  10.025  0.5175  0.1429  0.2567
 5640TIP3    H138335   2.870   2.634  10.096 -0.5266  0.2464 -0.3118
 5640TIP3    H238336   2.845   2.596   9.952 -0.0613 -2.0724  0.1897
 5641TIP3   OH238337   4.173   5.085  10.212  0.2113  0.5773  0.1972
 5641TIP3    H138338   4.188   5.100  10.306 -0.0487  2.1683 -0.0035
 5641TIP3    H238339   4.260   5.088  10.173  0.0594  2.9453 -0.0151
 5642TIP3   OH238340   2.045   5.939  10.958  0.2768  0.4563 -0.2933
 5642TIP3    H138341   1.962   5.977  10.987  0.1828  0.3492 -0.4258
 5642TIP3    H238342   2.054   5.966  10.867  0.0305 -0.1472 -0.4987
 5643TIP3   OH238343   0.103   4.455  13.564 -0.0446 -0.2193  0.3444
 5643TIP3    H138344   0.116   4.549  13.553  1.9406 -0.3419  1.4138
 5643TIP3    H238345   0.188   4.422  13.594 -1.5365 -1.8540  3.0375
 5644TIP3   OH238346   6.021   4.228  12.811  0.5240  0.1842 -0.0890
 5644TIP3    H138347   6.015   4.317  12.844  1.6413 -0.0878  0.8544
 5644TIP3    H238348   6.085   4.233  12.740  0.2450  0.2078 -0.3449
 5645TIP3   OH238349   4.332   6.073  11.615 -0.3528  0.2892  0.5070
 5645TIP3    H138350   4.297   6.091  11.702  1.0062  0.5377  1.0149
 5645TIP3    H238351   4.301   6.145  11.561  1.4276  1.8699  1.5275
 5646TIP3   OH238352   3.651   3.924  13.940  0.2420 -0.6531 -0.4690
 5646TIP3    H138353   3.724   3.985  13.945 -1.7893  1.8422 -0.5344
 5646TIP3    H238354   3.607   3.931  14.025 -0.8724 -0.9204 -1.0071
 5647TIP3   OH238355   6.841   5.638  12.196 -0.6820 -0.8666  0.0066
 5647TIP3    H138356   6.773   5.648  12.130 -1.1391 -0.9909  0.4512
 5647TIP3    H238357   6.824   5.552  12.234 -0.9129 -0.4645  0.8291
 5648TIP3   OH238358   6.399   5.172  10.936 -0.7375 -0.6407  0.1051
 5648TIP3    H138359   6.468   5.224  10.894 -0.0057 -1.6476  0.0339
 5648TIP3    H238360   6.324   5.179  10.877 -0.2849 -0.5929 -0.4714
 5649TIP3   OH238361   1.234   0.825  14.664  0.1097 -0.1354 -0.3179
 5649TIP3    H138362   1.316   0.778  14.648 -0.5387 -1.4518  0.2106
 5649TIP3    H238363   1.174   0.792  14.598 -0.8519 -1.3263  1.1185
 5650TIP3   OH238364   6.443   1.792  10.595  0.0751  0.2176  0.1360
 5650TIP3    H138365   6.450   1.827  10.506 -2.7335  0.3471 -0.0614
 5650TIP3    H238366   6.530   1.757  10.614  1.5797  2.9377 -1.4917
 5651TIP3   OH238367   7.118   1.753  10.648  0.3892 -0.0791  0.2061
 5651TIP3    H138368   7.108   1.820  10.580  0.4858 -1.0287 -0.7544
 5651TIP3    H238369   7.190   1.785  10.702  0.0460  0.8834  0.1107
 5652TIP3   OH238370   6.590   2.213  12.438 -0.0266  0.2031 -0.0147
 5652TIP3    H138371   6.536   2.254  12.371  0.9646  1.3946 -0.0939
 5652TIP3    H238372   6.532   2.151  12.482 -1.0306  0.3747 -1.1038
 5653TIP3   OH238373   0.140   4.535  13.924 -0.0415  0.7428 -0.1656
 5653TIP3    H138374   0.055   4.574  13.945  0.3525  1.1736  0.6736
 5653TIP3    H238375   0.119   4.453  13.881 -0.8913  1.4593 -1.1529
 5654TIP3   OH238376   6.166   0.949  11.195  0.0771  0.4454 -0.2706
 5654TIP3    H138377   6.143   0.859  11.171 -1.7930  0.9912 -0.6020
 5654TIP3    H238378   6.152   0.999  11.114  2.3710  0.8357 -0.4533
 5655TIP3   OH238379   2.090   3.570  10.189 -0.3898 -0.7993  0.1440
 5655TIP3    H138380   2.130   3.483  10.184  0.1646 -0.6532  1.7625
 5655TIP3    H238381   2.101   3.596  10.280  1.4015  1.9222 -0.8025
 5656TIP3   OH238382   0.702   5.592  11.782  0.1690 -0.3261  0.3901
 5656TIP3    H138383   0.611   5.620  11.770 -0.2693 -1.6355  0.5331
 5656TIP3    H238384   0.695   5.503  11.817  1.4983 -0.0162  1.4964
 5657TIP3   OH238385   2.140   0.136  10.806  0.3784 -0.5075  0.1938
 5657TIP3    H138386   2.193   0.081  10.865  1.4463  0.0453 -0.2276
 5657TIP3    H238387   2.112   0.077  10.737 -1.1340 -1.2311  1.4010
 5658TIP3   OH238388   3.835   1.499  12.213  0.1276  0.5068  0.0155
 5658TIP3    H138389   3.755   1.457  12.242  1.5828  0.5281  4.4478
 5658TIP3    H238390   3.881   1.431  12.163 -1.4898 -0.2542 -0.4762
 5659TIP3   OH238391   3.334   6.932   2.783  0.1696 -0.6616 -0.8367
 5659TIP3    H138392   3.301   6.844   2.802 -0.7149 -0.2857 -0.6222
 5659TIP3    H238393   3.420   6.917   2.743  0.7956 -1.5633  0.8039
 5660TIP3   OH238394   0.027   5.740  15.043  0.3404  0.0788  0.0576
 5660TIP3    H138395  -0.053   5.747  14.992  0.7783 -0.2583 -0.6944
 5660TIP3    H238396   0.035   5.647  15.063  1.7752 -0.2655 -1.9304
 5661TIP3   OH238397   3.950   6.654  10.219 -0.2639  0.5508 -0.2332
 5661TIP3    H138398   4.007   6.578  10.228 -0.3942  0.4892  0.0697
 5661TIP3    H238399   4.009   6.726  10.200 -0.0455  0.5525  0.4311
 5662TIP3   OH238400   6.493   1.299  12.942  0.4209  0.2654 -0.2143
 5662TIP3    H138401   6.446   1.295  13.026  0.1675 -1.4912 -0.4043
 5662TIP3    H238402   6.471   1.384  12.906 -3.4642 -0.8703 -0.7366
 5663TIP3   OH238403   5.250   0.943  14.601  0.0211  0.7101 -0.3304
 5663TIP3    H138404   5.236   1.013  14.664 -1.5130 -0.8157  1.0708
 5663TIP3    H238405   5.165   0.899  14.594  0.0210  1.1391 -3.8584
 5664TIP3   OH238406   0.062   1.044  13.654  0.0562  0.1344  0.2797
 5664TIP3    H138407   0.139   1.066  13.706 -0.2992  0.8181  0.5182
 5664TIP3    H238408   0.037   1.127  13.613  1.2596 -0.6706 -2.2290
 5665TIP3   OH238409   6.900   6.049  13.963  0.0267  0.7998  0.0781
 5665TIP3    H138410   6.937   6.137  13.964  0.8300  0.4648  0.1155
 5665TIP3    H238411   6.906   6.022  13.872  0.7600  0.3819  0.2421
 5666TIP3   OH238412   3.204   1.955  14.569  0.0130  0.1661  0.5275
 5666TIP3    H138413   3.126   1.977  14.517 -0.3943 -1.7990  0.2635
 5666TIP3    H238414   3.211   1.860  14.562  1.6175  0.1787  1.7433
 5667TIP3   OH238415   0.714   0.808  12.208 -0.0188 -0.5128  0.3460
 5667TIP3    H138416   0.807   0.830  12.207  0.2236 -1.5587 -1.2397
 5667TIP3    H238417   0.690   0.810  12.301  1.5791 -0.2750  0.7687
 5668TIP3   OH238418   0.248   7.100  14.132  0.4000  0.4478  0.1566
 5668TIP3    H138419   0.206   7.182  14.105  0.5642  0.6912  0.6278
 5668TIP3    H238420   0.177   7.035  14.128  0.2469  0.6311 -0.1256
 5669TIP3   OH238421   0.985   1.062   0.569 -0.1809 -0.1360 -0.0573
 5669TIP3    H138422   1.075   1.050   0.601  0.2706 -0.6987 -1.4698
 5669TIP3    H238423   0.969   1.156   0.576  0.8413  0.0905 -0.5937
 5670TIP3   OH238424   2.799   2.562  12.890  0.3077 -0.4531  0.7603
 5670TIP3    H138425   2.806   2.633  12.954  0.2877 -1.4422  1.8845
 5670TIP3    H238426   2.753   2.601  12.816 -3.7049 -0.4407  3.1062
 5671TIP3   OH238427   1.093   6.005  13.917  0.7396 -0.2570 -0.5553
 5671TIP3    H138428   1.022   6.068  13.908  0.3643 -0.9039 -2.2862
 5671TIP3    H238429   1.058   5.939  13.978  0.3432  0.1101 -0.3808
 5672TIP3   OH238430   3.127   6.949   0.344  0.6037 -0.0346 -0.4833
 5672TIP3    H138431   3.035   6.956   0.320  0.6870  1.5805 -0.4271
 5672TIP3    H238432   3.136   6.863   0.384 -1.0577  0.1246  0.2531
 5673TIP3   OH238433   1.128   7.015  11.464  0.2366  0.3583  0.0104
 5673TIP3    H138434   1.068   7.088  11.451  0.3688  0.4504 -0.0839
 5673TIP3    H238435   1.176   7.037  11.544 -1.1383 -0.5920  1.1037
 5674TIP3   OH238436   0.088   0.139  14.045  0.1539 -0.2440  0.3088
 5674TIP3    H138437   0.018   0.198  14.015 -0.5593 -0.5077  1.4120
 5674TIP3    H238438   0.134   0.114  13.965 -0.2263  0.9285 -0.3013
 5675TIP3   OH238439   5.825   1.723  14.792  0.5881  0.5573  0.5560
 5675TIP3    H138440   5.811   1.812  14.824  0.7941  0.5567  0.6491
 5675TIP3    H238441   5.782   1.721  14.706 -0.6768  0.3154  1.1951
 5676TIP3   OH238442   1.083   1.250  10.933 -0.0539  0.1480  0.3741
 5676TIP3    H138443   1.077   1.158  10.959  0.5622 -0.0339 -0.1133
 5676TIP3    H238444   1.110   1.296  11.013  1.6800 -0.3904  0.1235
 5677TIP3   OH238445   6.181   4.480  12.152  0.2767 -0.0841 -0.1887
 5677TIP3    H138446   6.254   4.540  12.137  0.4035 -0.0641  0.4778
 5677TIP3    H238447   6.173   4.431  12.070  2.0683 -1.1983  0.2733
 5678TIP3   OH238448   2.786   1.875  12.188 -0.0988 -0.4161  0.6519
 5678TIP3    H138449   2.832   1.884  12.105 -0.5280  0.8480  0.5518
 5678TIP3    H238450   2.703   1.834  12.166 -0.4034  0.3376  0.3958
 5679TIP3   OH238451   0.042   6.259  10.754  0.5035  0.7766  0.0677
 5679TIP3    H138452   0.111   6.211  10.800 -0.8899 -1.7214 -0.3321
 5679TIP3    H238453   0.060   6.351  10.772  0.3276 -0.0610  5.1362
 5680TIP3   OH238454   2.855   0.067  14.694  1.3589 -0.4947 -0.2681
 5680TIP3    H138455   2.883   0.137  14.635  1.6410  0.4970  1.0190
 5680TIP3    H238456   2.930   0.054  14.752  0.1394  0.3637  1.5487
 5681TIP3   OH238457   5.480   1.191  13.447 -0.1331  0.1896 -0.1240
 5681TIP3    H138458   5.390   1.157  13.444 -1.2828  3.0283  0.6442
 5681TIP3    H238459   5.489   1.242  13.366  0.9589 -0.4517 -0.4197
 5682TIP3   OH238460   0.715   5.110  12.070  0.1069 -0.2902  0.3530
 5682TIP3    H138461   0.754   5.080  11.987  0.2134 -1.1896  0.7180
 5682TIP3    H238462   0.725   5.035  12.129 -4.9374 -1.7788 -0.4176
 5683TIP3   OH238463   4.804   6.233  13.887 -0.2175 -0.1664  0.5514
 5683TIP3    H138464   4.762   6.162  13.935 -3.1431  0.1185 -1.4287
 5683TIP3    H238465   4.769   6.226  13.799  1.6341  2.0158 -0.4043
 5684TIP3   OH238466   6.389   5.088  12.483 -0.3762 -0.0819 -0.4502
 5684TIP3    H138467   6.473   5.084  12.528 -0.7327  0.2828  0.2527
 5684TIP3    H238468   6.334   5.144  12.538 -0.4099  1.4886 -2.0240
 5685TIP3   OH238469   1.481   5.019  14.574  0.1109 -0.3488  0.4351
 5685TIP3    H138470   1.562   4.976  14.545  0.4397  0.4538  0.1295
 5685TIP3    H238471   1.429   5.029  14.494 -0.4960 -1.2906  0.7103
 5686TIP3   OH238472   5.827   5.255  12.226 -0.7216 -0.2747  0.1956
 5686TIP3    H138473   5.906   5.265  12.279 -1.2145 -0.1240  0.9184
 5686TIP3    H238474   5.823   5.334  12.173 -1.0619  0.3203  1.0844
 5687TIP3   OH238475   1.526   7.159  14.128  0.6734  0.3855  0.6291
 5687TIP3    H138476   1.525   7.254  14.136  0.6332  0.3760  0.7393
 5687TIP3    H238477   1.597   7.140  14.066 -1.0529  0.6214 -1.4468
 5688TIP3   OH238478   4.498   0.147  13.573  0.2326 -0.7857  0.1115
 5688TIP3    H138479   4.457   0.187  13.496  1.1211  0.0442  0.0586
 5688TIP3    H238480   4.585   0.185  13.576  0.7343 -1.9543  0.6682
 5689TIP3   OH238481   5.511   1.049  12.995  0.3169 -0.1531 -0.1924
 5689TIP3    H138482   5.487   1.128  13.044 -0.8956 -0.5201 -0.1775
 5689TIP3    H238483   5.539   1.082  12.910  1.0265  0.3855  0.2472
 5690TIP3   OH238484   2.274   6.120  14.077 -0.2905 -0.4061  0.5940
 5690TIP3    H138485   2.304   6.111  14.167 -0.8836  2.0690  1.0682
 5690TIP3    H238486   2.203   6.184  14.081 -1.0174 -1.0431 -1.4839
 5691TIP3   OH238487   5.484   3.659  13.593  0.0718  0.3265 -0.1333
 5691TIP3    H138488   5.577   3.641  13.581 -0.0531 -1.5599  1.3092
 5691TIP3    H238489   5.479   3.753  13.608  1.7676  0.4184 -0.0617
 5692TIP3   OH238490   5.248   6.967   0.414  0.0838 -0.2780  0.4013
 5692TIP3    H138491   5.246   7.058   0.384 -0.2080 -0.4381 -0.0663
 5692TIP3    H238492   5.342   6.948   0.422  0.2033 -0.5582 -1.4294
 5693TIP3   OH238493   6.182   1.586  13.027 -0.3217  0.5186  0.4109
 5693TIP3    H138494   6.108   1.646  13.038 -0.0661  0.7005  1.1450
 5693TIP3    H238495   6.176   1.526  13.101 -0.5639 -0.3582 -0.3107
 5694TIP3   OH238496   4.015   6.021  10.177 -0.4520 -0.1946  0.0554
 5694TIP3    H138497   4.041   6.075  10.103 -2.0675 -0.8932 -1.0391
 5694TIP3    H238498   4.098   5.985  10.211  0.9117  4.4301  2.0270
 5695TIP3   OH238499   5.388   4.081  14.072  0.2507 -0.5059  0.5843
 5695TIP3    H138500   5.329   4.128  14.013  0.5986 -1.9095 -0.9290
 5695TIP3    H238501   5.339   4.004  14.098  0.6773 -0.6745  0.8988
 5696TIP3   OH238502   3.338   7.094  13.534  0.1705 -0.1368  0.1506
 5696TIP3    H138503   3.363   7.170  13.480 -0.7347  0.6246  0.7917
 5696TIP3    H238504   3.392   7.023  13.501  1.8145  1.0402  0.2554
 5697TIP3   OH238505   1.217   4.439  13.946 -0.3700  0.1001 -0.2658
 5697TIP3    H138506   1.145   4.377  13.940 -0.3389  0.1506 -1.3710
 5697TIP3    H238507   1.183   4.518  13.903 -0.6760  1.1054  1.7859
 5698TIP3   OH238508   0.818   0.000  14.341  0.0766 -0.4396  0.1785
 5698TIP3    H138509   0.806  -0.085  14.383  1.3684  0.4558  2.4838
 5698TIP3    H238510   0.846   0.058  14.412  0.4154  1.6247 -1.5746
 5699TIP3   OH238511   3.353   4.779  11.758 -0.1532 -0.0650 -0.5427
 5699TIP3    H138512   3.392   4.693  11.770 -1.8242 -0.7714  0.0666
 5699TIP3    H238513   3.427   4.839  11.752  1.0147 -0.9370  3.5998
 5700TIP3   OH238514   4.624   3.578   9.977 -0.5372 -0.5982 -0.1062
 5700TIP3    H138515   4.554   3.546   9.920  0.5086 -0.4253 -1.5161
 5700TIP3    H238516   4.667   3.646   9.926  0.6393 -0.6742  0.7596
 5701TIP3   OH238517   5.229   5.588  10.701 -0.4151  0.0713  0.2305
 5701TIP3    H138518   5.220   5.669  10.751  1.4606  0.7229 -0.4271
 5701TIP3    H238519   5.233   5.519  10.768  2.3911  0.9538  1.0809
 5702TIP3   OH238520   7.122   6.647  11.478 -0.4037  0.0183  0.1094
 5702TIP3    H138521   7.036   6.627  11.516 -0.2662  0.0004  0.4113
 5702TIP3    H238522   7.103   6.708  11.407 -0.5977  0.5627  0.6251
 5703TIP3   OH238523   1.753   3.951  12.876 -1.1215  0.2579  0.5352
 5703TIP3    H138524   1.657   3.955  12.877 -1.1011  0.6995  0.8103
 5703TIP3    H238525   1.781   4.042  12.888 -0.6702  0.3885 -1.3695
 5704TIP3   OH238526   6.836   4.270  10.880  0.2067  0.9022 -0.2667
 5704TIP3    H138527   6.785   4.194  10.909 -1.9389  2.0946 -0.7968
 5704TIP3    H238528   6.927   4.246  10.898 -0.6284 -0.6186  2.2885
 5705TIP3   OH238529   0.745   4.273  10.597  0.1623  0.1755 -0.7447
 5705TIP3    H138530   0.764   4.365  10.617  0.9414 -0.5272  1.9379
 5705TIP3    H238531   0.649   4.267  10.601  0.1671  0.6390  0.1410
 5706TIP3   OH238532   5.837   6.713  10.394  0.0032  0.8115 -0.5443
 5706TIP3    H138533   5.833   6.797  10.347 -1.1235  1.1345  0.1222
 5706TIP3    H238534   5.775   6.723  10.466 -1.6274 -1.3032 -1.6033
 5707TIP3   OH238535   4.355   3.325  15.024 -0.1110 -0.4108 -0.2682
 5707TIP3    H138536   4.288   3.309  14.957 -0.2343  0.3833 -0.3469
 5707TIP3    H238537   4.305   3.341  15.104 -0.0991  1.8253 -0.6728
 5708TIP3   OH238538   1.847   4.178  12.465 -0.1284  0.6630  0.2376
 5708TIP3    H138539   1.808   4.158  12.380 -0.2025 -1.3244  0.7265
 5708TIP3    H238540   1.917   4.114  12.475  0.7795  1.7586  1.0787
 5709TIP3   OH238541   6.806   0.765  11.701  0.3736 -0.0086  0.7512
 5709TIP3    H138542   6.773   0.835  11.757 -0.2899 -0.2779  0.6987
 5709TIP3    H238543   6.729   0.731  11.657  0.5353 -1.6303  1.7231
 5710TIP3   OH238544   2.468   4.994  13.423  0.1412 -0.3632  0.2012
 5710TIP3    H138545   2.393   4.961  13.373 -0.1267 -1.6180  1.3870
 5710TIP3    H238546   2.429   5.039  13.498  0.5686 -1.1184  0.8808
 5711TIP3   OH238547   5.854   5.102  14.217  0.7815 -0.2020 -0.2081
 5711TIP3    H138548   5.852   5.120  14.123  0.5584 -0.1698 -0.1979
 5711TIP3    H238549   5.845   5.188  14.258  0.4885 -0.2541 -0.1580
 5712TIP3   OH238550   2.430   1.182  10.660 -0.4183  0.3644 -0.1795
 5712TIP3    H138551   2.417   1.108  10.719  0.5426  0.5692  0.2968
 5712TIP3    H238552   2.396   1.152  10.576 -0.6925 -0.3597  0.1833
 5713TIP3   OH238553   6.547   3.824  12.620  0.2361 -0.1944 -0.8357
 5713TIP3    H138554   6.611   3.783  12.678 -1.6673 -2.6633 -0.3727
 5713TIP3    H238555   6.596   3.844  12.540  1.8156 -1.1114 -0.1171
 5714TIP3   OH238556   5.219   1.315  11.222 -0.4191  0.6009 -0.7616
 5714TIP3    H138557   5.256   1.327  11.135  1.5503 -0.5465 -0.1364
 5714TIP3    H238558   5.250   1.391  11.272  0.4424  0.0619 -0.4581
 5715TIP3   OH238559   0.924   4.545  14.794 -0.2431  0.5760  0.1195
 5715TIP3    H138560   0.894   4.547  14.703  0.0505  0.4289  0.0181
 5715TIP3    H238561   0.938   4.637  14.817 -0.9370  0.6550  0.2222
 5716TIP3   OH238562   1.026   3.933  14.728 -0.4957 -0.0138  0.1540
 5716TIP3    H138563   1.019   3.888  14.643 -0.8813  0.9237 -0.3156
 5716TIP3    H238564   0.938   3.967  14.744 -0.6928 -1.0906  1.4449
 5717TIP3   OH238565   5.745   2.148  12.762 -0.0020 -0.6511  0.1961
 5717TIP3    H138566   5.765   2.224  12.818  3.0698  0.7420 -2.6480
 5717TIP3    H238567   5.804   2.080  12.792  0.6502 -0.3509 -0.3860
 5718TIP3   OH238568   0.557   3.358  14.309  0.3253  0.1361 -0.1775
 5718TIP3    H138569   0.630   3.415  14.335  0.5837 -0.0435 -0.5011
 5718TIP3    H238570   0.585   3.321  14.226 -0.3810  0.4971 -0.5728
 5719TIP3   OH238571   3.091   7.124  12.177  0.4361  0.2304 -0.4642
 5719TIP3    H138572   3.010   7.154  12.135  2.1386  3.0070 -1.8498
 5719TIP3    H238573   3.160   7.146  12.116  2.1670 -3.7914 -0.1523
 5720TIP3   OH238574   3.737   0.648   9.610  0.7113  0.1374 -0.4939
 5720TIP3    H138575   3.755   0.729   9.563  0.0468 -0.4062 -1.7063
 5720TIP3    H238576   3.779   0.580   9.558  2.9555 -0.1129  1.5487
 5721TIP3   OH238577   5.630   0.099  15.485 -0.0205 -0.1374  0.2059
 5721TIP3    H138578   5.704   0.111  15.544  0.0536  0.1013  0.0631
 5721TIP3    H238579   5.565   0.052  15.538 -0.0689  0.3379  0.5664
 5722TIP3   OH238580   2.018   3.255  11.229  0.7627 -0.0663  0.2860
 5722TIP3    H138581   2.031   3.234  11.137  0.3508  2.0643 -0.2979
 5722TIP3    H238582   2.051   3.179  11.276  3.9158  0.1051 -1.4931
 5723TIP3   OH238583   6.169   0.400  11.595  0.1848  0.6474  0.0694
 5723TIP3    H138584   6.176   0.493  11.575 -1.3671  0.5168 -1.1676
 5723TIP3    H238585   6.248   0.362  11.559 -0.7008  1.0222 -2.3421
 5724TIP3   OH238586   1.084   6.092  12.258  0.0048 -0.4160  0.6492
 5724TIP3    H138587   1.009   6.150  12.241  1.7379  1.7240 -0.0089
 5724TIP3    H238588   1.083   6.080  12.353 -0.6668  0.3288  0.7490
 5725TIP3   OH238589   4.118   3.559  10.034  0.0859  0.1606  0.0036
 5725TIP3    H138590   4.044   3.498  10.033  0.6218 -0.5010  0.0661
 5725TIP3    H238591   4.132   3.582   9.942  1.3534 -1.6346 -0.2765
 5726TIP3   OH238592   2.044   2.772  13.714 -0.0616 -0.0258  0.1641
 5726TIP3    H138593   1.971   2.802  13.768 -0.2512 -0.5443  0.2008
 5726TIP3    H238594   2.097   2.850  13.699 -0.9176  0.4643 -0.3183
 5727TIP3   OH238595   2.512   2.524  10.666  0.3344  0.2762  0.0183
 5727TIP3    H138596   2.545   2.515  10.577  0.8416  0.8445  0.1439
 5727TIP3    H238597   2.587   2.559  10.715  0.3309 -0.8729  0.8518
 5728TIP3   OH238598   4.079   1.797  14.031 -0.4592  0.2301  0.5249
 5728TIP3    H138599   4.160   1.845  14.050 -0.4858 -0.0507  1.3924
 5728TIP3    H238600   4.045   1.838  13.952  1.1699 -0.4545 -0.5582
 5729TIP3   OH238601   4.571   3.508  11.880 -0.0058 -0.3393  0.7003
 5729TIP3    H138602   4.633   3.442  11.911  0.8894  0.0223 -0.2725
 5729TIP3    H238603   4.523   3.465  11.809  0.1518 -0.1514  0.4777
 5730TIP3   OH238604   4.581   3.572   0.075 -0.0135  0.7439 -0.1119
 5730TIP3    H138605   4.591   3.570   0.170 -0.1628 -0.6825 -0.1261
 5730TIP3    H238606   4.629   3.496   0.043 -2.3083 -0.4138 -0.9495
 5731TIP3   OH238607   5.197   0.794  13.317  0.2474  0.3393 -0.0491
 5731TIP3    H138608   5.138   0.863  13.287 -0.8612 -0.6784 -0.2399
 5731TIP3    H238609   5.271   0.798  13.257 -1.2566 -0.7033 -2.0334
 5732TIP3   OH238610   1.409   2.793  13.909 -0.6026  0.2147 -0.2961
 5732TIP3    H138611   1.431   2.807  14.001 -0.8647 -1.2866  0.0020
 5732TIP3    H238612   1.490   2.813  13.862  0.0499 -0.6858  0.4157
 5733TIP3   OH238613   0.887   0.486  12.083  0.2783 -0.2943  0.1552
 5733TIP3    H138614   0.958   0.533  12.127  0.2862  0.0276 -0.1990
 5733TIP3    H238615   0.912   0.394  12.089  1.1791 -0.1268 -0.7433
 5734TIP3   OH238616   2.321   4.039   1.194 -0.1185  0.0113  0.3083
 5734TIP3    H138617   2.357   4.123   1.220 -0.2402  0.2746 -0.3646
 5734TIP3    H238618   2.292   4.052   1.104  2.0690 -1.4210 -0.6552
 5735TIP3   OH238619   4.838   1.891  13.441 -0.2562 -0.3527 -0.1569
 5735TIP3    H138620   4.785   1.865  13.517 -0.6414 -1.3573 -0.7659
 5735TIP3    H238621   4.903   1.951  13.477 -1.0507 -0.0485  0.8071
 5736TIP3   OH238622   5.276   6.314  14.090  0.2445 -0.3455  0.5449
 5736TIP3    H138623   5.343   6.266  14.043  0.0355 -0.4242  0.3276
 5736TIP3    H238624   5.253   6.387  14.033 -0.6506 -0.9492  0.1208
 5737TIP3   OH238625   4.330   4.055   1.571 -0.4535  0.3334 -0.3546
 5737TIP3    H138626   4.331   4.075   1.478  0.7287  1.5190 -0.1012
 5737TIP3    H238627   4.401   4.108   1.608 -0.2939 -0.8290  1.0708
 5738TIP3   OH238628   2.754   6.146  10.962 -0.0904 -0.7117  0.6200
 5738TIP3    H138629   2.675   6.105  10.927  1.3312 -2.5291 -0.5421
 5738TIP3    H238630   2.784   6.205  10.893 -2.2186  2.5629  2.3488
 5739TIP3   OH238631   1.426   0.308  12.464 -0.1157 -0.1509  0.6879
 5739TIP3    H138632   1.360   0.278  12.401 -0.5067 -0.5919  1.3065
 5739TIP3    H238633   1.489   0.356  12.411 -0.6567 -0.1750  0.0128
 5740TIP3   OH238634   0.705   4.590  14.191  0.2920 -0.4723 -0.3745
 5740TIP3    H138635   0.788   4.635  14.172  0.2713 -0.0790  0.4579
 5740TIP3    H238636   0.652   4.655  14.236  0.4638 -1.4771  1.3293
 5741TIP3   OH238637   1.155   0.385  15.047  0.4953 -0.3025  0.3508
 5741TIP3    H138638   1.225   0.450  15.044 -0.2136  0.5187  1.1204
 5741TIP3    H238639   1.077   0.435  15.069  0.0297 -1.4905  1.4723
 5742TIP3   OH238640   2.591   7.059  12.839 -0.6042  0.2629  0.2123
 5742TIP3    H138641   2.518   7.037  12.781 -0.7088 -0.0792  0.4656
 5742TIP3    H238642   2.608   7.152  12.824  0.1158 -0.0756 -1.1989
 5743TIP3   OH238643   0.049   5.041  10.411 -0.3748 -0.0961 -0.0132
 5743TIP3    H138644   0.052   5.136  10.401 -1.4890 -0.2319 -2.0358
 5743TIP3    H238645  -0.015   5.025  10.481 -0.7448  0.6243 -0.1886
 5744TIP3   OH238646   3.015   5.572  11.939 -0.4247 -0.5393  0.9690
 5744TIP3    H138647   2.981   5.503  11.882  0.1463 -0.0879  0.0744
 5744TIP3    H238648   2.966   5.562  12.021 -1.2343 -1.1958  0.4087
 5745TIP3   OH238649   5.153   5.047   9.991 -0.0496  0.0347  0.5906
 5745TIP3    H138650   5.240   5.039   9.951 -0.4149  0.5850 -0.3238
 5745TIP3    H238651   5.106   5.108   9.934 -1.6669 -1.7321 -0.0077
 5746TIP3   OH238652   1.959   4.451  11.781 -0.1031  0.4217  0.3605
 5746TIP3    H138653   2.008   4.410  11.710  0.3145 -0.3181  1.0684
 5746TIP3    H238654   2.020   4.515  11.818  0.2073 -0.2615  1.0261
 5747TIP3   OH238655   2.203   1.178  14.855 -0.1504 -0.4033  0.0406
 5747TIP3    H138656   2.173   1.087  14.861 -1.3831 -0.0478 -0.5547
 5747TIP3    H238657   2.193   1.212  14.944  0.3407 -0.8507  0.2720
 5748TIP3   OH238658   6.783   0.887  13.825 -0.5334  1.5724  0.0722
 5748TIP3    H138659   6.809   0.966  13.778 -0.7076  0.7489 -1.4492
 5748TIP3    H238660   6.811   0.815  13.768 -0.1692  0.5268  1.5382
 5749TIP3   OH238661   2.633   0.086  11.176 -0.2234 -0.3109  0.3492
 5749TIP3    H138662   2.563   0.049  11.230 -0.7184 -1.2946 -0.9529
 5749TIP3    H238663   2.713   0.042  11.206 -0.4907 -0.8308  0.3016
 5750TIP3   OH238664   6.469   6.898  12.837 -0.4439 -0.6310  0.8595
 5750TIP3    H138665   6.426   6.977  12.870 -0.1978  0.4229 -1.3195
 5750TIP3    H238666   6.559   6.906  12.866 -0.7293 -0.8025  1.8233
 5751TIP3   OH238667   5.509   5.987  11.423 -0.7221 -0.2942  0.0378
 5751TIP3    H138668   5.488   5.954  11.336  1.6727  0.9205 -1.0449
 5751TIP3    H238669   5.560   5.917  11.464 -0.9056 -0.4199  0.0505
 5752TIP3   OH238670   0.626   5.356  14.175  0.4342  0.1289  0.1099
 5752TIP3    H138671   0.718   5.367  14.199  0.6008  0.3338 -0.6381
 5752TIP3    H238672   0.628   5.314  14.089 -0.1712  0.4079 -0.0432
 5753TIP3   OH238673   1.045   4.505  10.621  0.0633  0.1126  0.5032
 5753TIP3    H138674   1.090   4.586  10.642  0.4659 -0.1523  0.6665
 5753TIP3    H238675   0.957   4.516  10.658  0.0937  0.5040  0.4578
 5754TIP3   OH238676   6.063   6.825   1.289 -0.1228 -0.1509 -0.4745
 5754TIP3    H138677   6.048   6.812   1.383 -0.3942 -1.7964 -0.7317
 5754TIP3    H238678   6.049   6.919   1.276 -1.4477 -0.1317  0.8845
 5755TIP3   OH238679   7.158   6.696  11.973 -0.1158 -0.1204  0.7338
 5755TIP3    H138680   7.212   6.689  12.052 -1.2450  0.4213  1.5826
 5755TIP3    H238681   7.068   6.688  12.006 -0.5458 -1.3031 -0.6817
 5756TIP3   OH238682   1.656   5.518  12.248 -0.4077  0.1274 -0.4376
 5756TIP3    H138683   1.590   5.586  12.237 -1.0072 -0.1950  0.9659
 5756TIP3    H238684   1.676   5.489  12.159 -1.9166  0.4735 -0.9138
 5757TIP3   OH238685   4.976   0.198  11.024  0.2744  0.4038  0.0232
 5757TIP3    H138686   4.896   0.247  11.040  0.3420  0.9349 -1.1908
 5757TIP3    H238687   5.037   0.262  10.988  0.3838 -0.5176 -1.5283
 5758TIP3   OH238688   3.283   5.711  13.731  0.4181 -0.0387 -0.1735
 5758TIP3    H138689   3.358   5.708  13.790  0.7329 -0.9529 -0.6134
 5758TIP3    H238690   3.315   5.757  13.654  0.3119  0.2155 -0.0682
 5759TIP3   OH238691   2.111   5.324  14.182  0.0910 -0.5835  0.5672
 5759TIP3    H138692   2.016   5.320  14.168  0.2981 -1.6724 -0.6094
 5759TIP3    H238693   2.139   5.402  14.135  0.0422 -1.3442 -0.7443
 5760TIP3   OH238694   2.758   6.315  11.188  0.5530  0.2264 -0.2619
 5760TIP3    H138695   2.761   6.257  11.111  1.2753  0.6440 -0.5547
 5760TIP3    H238696   2.723   6.260  11.258  0.2694 -0.2745 -0.7955
 5761TIP3   OH238697   2.512   1.954  10.351 -0.3177 -0.2617 -0.2225
 5761TIP3    H138698   2.503   1.880  10.290  0.7985 -0.5728 -0.0308
 5761TIP3    H238699   2.603   1.948  10.381 -0.6605  0.3194  0.9317
 5762TIP3   OH238700   5.134   3.358  12.194 -0.2688 -0.0354  0.2812
 5762TIP3    H138701   5.208   3.410  12.223  0.4258 -0.5326 -0.5688
 5762TIP3    H238702   5.075   3.354  12.270  0.6368  0.2276  0.9981
 5763TIP3   OH238703   6.029   6.307  11.326  0.9757 -0.0751  0.4558
 5763TIP3    H138704   5.973   6.230  11.338  1.2946 -0.6175 -1.3989
 5763TIP3    H238705   6.113   6.271  11.296  1.6149  0.8958  1.0612
 5764TIP3   OH238706   5.429   3.465  10.281 -0.4138  0.6575 -0.0425
 5764TIP3    H138707   5.434   3.370  10.270 -2.0792  0.5167  0.1813
 5764TIP3    H238708   5.335   3.482  10.291 -0.0001  2.1693  1.3568
 5765TIP3   OH238709   1.475   1.825  13.558 -0.2494  0.2935  0.0497
 5765TIP3    H138710   1.480   1.908  13.606  1.1692 -0.0276  0.4747
 5765TIP3    H238711   1.520   1.762  13.614 -1.0614 -0.7099 -0.4092
 5766TIP3   OH238712   0.573   6.932  14.179  0.3930 -0.8094  0.0893
 5766TIP3    H138713   0.626   6.872  14.232 -0.5232 -1.9412 -0.2596
 5766TIP3    H238714   0.528   6.875  14.117  0.8491  0.4131 -1.4061
 5767TIP3   OH238715   3.369   6.701  13.819  0.0761  0.3999 -0.3879
 5767TIP3    H138716   3.290   6.744  13.787  0.4741  1.7600  0.4246
 5767TIP3    H238717   3.401   6.757  13.890  2.1513  0.2432 -1.1440
 5768TIP3   OH238718   5.205   4.356  13.530  0.1414 -0.3242 -0.2686
 5768TIP3    H138719   5.274   4.302  13.492 -1.2259 -1.0944 -1.7415
 5768TIP3    H238720   5.188   4.424  13.465 -1.3728 -0.9186 -0.5279
 5769TIP3   OH238721   3.684   3.935  15.061 -0.2722 -0.3928  0.6102
 5769TIP3    H138722   3.602   3.978  15.086 -1.0046 -2.5125  1.9209
 5769TIP3    H238723   3.749   3.972  15.120  0.1437  2.5929 -1.5579
 5770TIP3   OH238724   6.305   0.736  12.283 -0.1360 -0.2860 -0.4809
 5770TIP3    H138725   6.388   0.783  12.280 -0.4583  0.2730 -0.6412
 5770TIP3    H238726   6.329   0.644  12.275  0.3109  0.0106 -2.8515
 5771TIP3   OH238727   2.105   0.536  12.552 -0.1462  0.0855  0.1275
 5771TIP3    H138728   2.038   0.595  12.520  0.3822 -0.6733 -2.4832
 5771TIP3    H238729   2.181   0.592  12.567 -0.6753  0.5888  0.9815
 5772TIP3   OH238730   2.895   5.189  15.149 -0.3640  0.5811 -0.4930
 5772TIP3    H138731   2.953   5.178  15.074 -0.4706  0.2994 -0.5344
 5772TIP3    H238732   2.815   5.143  15.125 -0.8664  1.5592 -0.7281
 5773TIP3   OH238733   6.159   3.839  10.261 -0.2872 -0.4863 -0.4360
 5773TIP3    H138734   6.076   3.873  10.294 -0.2066  0.0933 -0.8337
 5773TIP3    H238735   6.147   3.744  10.260 -0.3252 -0.5144  1.1846
 5774TIP3   OH238736   1.394   6.901  10.446 -0.5168  0.0883 -0.0976
 5774TIP3    H138737   1.430   6.989  10.442 -2.1813  0.7632 -0.7851
 5774TIP3    H238738   1.462   6.845  10.409 -0.4536  1.4320 -2.0660
 5775TIP3   OH238739   1.648   0.966  10.636  0.2707 -0.2651  0.3262
 5775TIP3    H138740   1.694   1.045  10.608  0.0832 -0.4414 -0.4851
 5775TIP3    H238741   1.564   0.968  10.589  1.5814 -2.5984 -2.2761
 5776TIP3   OH238742   5.968   0.238  13.320 -0.5039 -0.1114  0.1142
 5776TIP3    H138743   5.883   0.266  13.353  0.0568  1.7310  0.0422
 5776TIP3    H238744   5.991   0.304  13.254  1.6328  0.2367  1.1732
 5777TIP3   OH238745   7.108   6.832  14.939 -0.4000 -0.1289  0.0468
 5777TIP3    H138746   7.169   6.783  14.995  2.7152  1.8590 -1.4979
 5777TIP3    H238747   7.120   6.795  14.852 -0.7996  0.8301 -0.4223
 5778TIP3   OH238748   6.225   0.666  13.093 -0.0199  0.4969 -0.1882
 5778TIP3    H138749   6.186   0.750  13.068 -0.5197  0.4855  0.5603
 5778TIP3    H238750   6.302   0.659  13.036 -0.2021  1.2675 -0.5464
 5779TIP3   OH238751   5.649   6.773  10.592 -0.0700  0.3293  0.7703
 5779TIP3    H138752   5.701   6.759  10.671 -3.0173  3.5152  3.3974
 5779TIP3    H238753   5.567   6.726  10.608  0.0879 -0.7816 -1.3806
 5780TIP3   OH238754   0.261   5.840  11.837 -0.1927 -0.1905 -0.7533
 5780TIP3    H138755   0.262   5.930  11.803 -1.4998  0.1071 -0.0191
 5780TIP3    H238756   0.220   5.847  11.923 -0.1230 -1.4624 -0.6117
 5781TIP3   OH238757   5.694   0.884  14.896 -0.2707  0.5884  0.6328
 5781TIP3    H138758   5.737   0.964  14.865 -1.2708  0.9130  0.0364
 5781TIP3    H238759   5.698   0.825  14.821  0.6609 -0.0094  1.1454
 5782TIP3   OH238760   7.131   1.773  12.284 -0.4501  0.4231  0.3588
 5782TIP3    H138761   7.086   1.751  12.203 -0.2568 -3.0103  1.1123
 5782TIP3    H238762   7.064   1.814  12.339 -2.0442 -2.2774  0.4992
 5783TIP3   OH238763   0.099   3.510  14.108 -0.3101 -0.6721 -0.1088
 5783TIP3    H138764   0.109   3.415  14.114 -0.9084 -0.8015 -1.0654
 5783TIP3    H238765   0.040   3.532  14.180  0.8757 -0.8395  0.9427
 5784TIP3   OH238766   6.992   5.288  13.249 -0.1082 -0.3391  1.2703
 5784TIP3    H138767   6.985   5.334  13.166 -0.4264 -4.7821 -1.2855
 5784TIP3    H238768   6.928   5.332  13.306 -1.8733  1.0257 -1.6457
 5785TIP3   OH238769   0.006   6.619   1.773  0.8359 -0.0328 -0.2199
 5785TIP3    H138770   0.075   6.649   1.714  0.7680  0.7753  0.1130
 5785TIP3    H238771  -0.055   6.571   1.717  0.9744  0.4030 -0.7398
 5786TIP3   OH238772   5.990   3.945  11.728 -0.1110  0.1150  0.0670
 5786TIP3    H138773   5.984   3.983  11.815  0.5304  2.3874 -0.8491
 5786TIP3    H238774   5.898   3.927  11.704 -0.7447  3.9895 -0.6845
 5787TIP3   OH238775   0.911   0.270  10.301  0.6314 -0.0243  0.0122
 5787TIP3    H138776   0.889   0.216  10.225 -0.3370 -0.0589  0.3113
 5787TIP3    H238777   0.913   0.360  10.267 -1.0689  0.1005  0.1923
 5788TIP3   OH238778   6.871   5.941  12.087  0.7510 -0.0342  0.5098
 5788TIP3    H138779   6.864   6.035  12.100  2.4554  0.4593 -1.7811
 5788TIP3    H238780   6.807   5.903  12.148 -0.8089  2.6287  0.6047
 5789TIP3   OH238781   3.215   6.871  11.710  0.3205 -0.5016  0.6875
 5789TIP3    H138782   3.239   6.958  11.742 -2.5566 -0.2265  2.2643
 5789TIP3    H238783   3.236   6.813  11.784 -1.8465 -0.5290  1.2982
 5790TIP3   OH238784   1.061   5.432   2.494 -0.2821 -0.3265 -0.7410
 5790TIP3    H138785   1.042   5.358   2.552 -0.4412 -0.1680 -0.5934
 5790TIP3    H238786   1.138   5.473   2.532  0.6986 -1.2908 -1.6345
 5791TIP3   OH238787   4.697   2.673  11.783  0.0668  0.2086  0.1766
 5791TIP3    H138788   4.608   2.671  11.747  0.7687  3.9475 -2.0354
 5791TIP3    H238789   4.753   2.684  11.706  2.6332 -3.5509  1.3914
 5792TIP3   OH238790   4.823   3.109  14.204  0.0772  0.4232 -0.3016
 5792TIP3    H138791   4.795   3.158  14.281  0.2176  1.0909 -0.6721
 5792TIP3    H238792   4.911   3.080  14.224  0.1478  0.6759 -0.2390
 5793TIP3   OH238793   3.832   6.061  12.966 -0.1585 -0.4374 -0.0742
 5793TIP3    H138794   3.890   6.073  12.891 -0.0474  0.9501  0.2114
 5793TIP3    H238795   3.887   6.076  13.042 -0.7156  0.1134  0.2258
 5794TIP3   OH238796   0.397   6.133  10.230 -0.2643  0.1504  0.2319
 5794TIP3    H138797   0.396   6.190  10.307 -0.9558  1.4205 -0.7076
 5794TIP3    H238798   0.490   6.118  10.213 -0.1118 -0.7135  1.7213
 5795TIP3   OH238799   0.802   5.339  13.549  0.1767 -0.1391 -0.2600
 5795TIP3    H138800   0.774   5.430  13.555 -0.5569 -0.4023  0.4270
 5795TIP3    H238801   0.721   5.289  13.544  0.5024 -0.9243  1.8500
 5796TIP3   OH238802   3.556   2.984  13.020 -0.0502 -0.1356  0.3467
 5796TIP3    H138803   3.621   3.035  13.068 -0.0854  0.6105 -0.4059
 5796TIP3    H238804   3.608   2.930  12.960 -0.1507  1.0519 -0.8336
 5797TIP3   OH238805   6.992   7.115   1.534 -0.2352  0.4127 -0.0540
 5797TIP3    H138806   6.978   7.047   1.600  1.2876 -0.4627 -0.5963
 5797TIP3    H238807   6.915   7.171   1.540 -0.1678  0.2855  2.3860
 5798TIP3   OH238808   3.472   4.932  13.108  0.2154  0.3098 -0.1298
 5798TIP3    H138809   3.468   5.027  13.116 -2.5442  0.2134  0.3110
 5798TIP3    H238810   3.404   4.901  13.168 -0.8270 -1.7975 -2.3490
 5799TIP3   OH238811   1.612   5.252  13.575 -0.0323  0.1784  0.0638
 5799TIP3    H138812   1.603   5.347  13.567  0.0596  0.1454 -0.4185
 5799TIP3    H238813   1.705   5.235  13.561 -0.0617  0.0080  0.0699
 5800TIP3   OH238814   1.047   0.314  13.536 -0.1044  0.5519  0.5049
 5800TIP3    H138815   1.031   0.243  13.598 -3.0718  0.0525 -0.7643
 5800TIP3    H238816   1.080   0.386  13.591 -0.0840 -0.7554  2.2477
 5801TIP3   OH238817   5.904   3.731  13.230 -0.8227  0.4086 -0.4364
 5801TIP3    H138818   5.978   3.791  13.226 -1.8279  1.6796 -0.0728
 5801TIP3    H238819   5.828   3.785  13.209 -1.6058 -0.9751 -1.2318
 5802TIP3   OH238820   1.950   3.808  10.968  0.0107  0.0684  0.7081
 5802TIP3    H138821   1.911   3.842  10.888 -0.1422 -0.4061  0.5789
 5802TIP3    H238822   2.017   3.872  10.991  0.1749  0.1167  0.1016
 5803TIP3   OH238823   4.918   0.652  13.160  0.4789  0.3214 -0.0504
 5803TIP3    H138824   5.013   0.659  13.145  0.7412  0.6253  1.5577
 5803TIP3    H238825   4.906   0.686  13.249 -1.3771  1.8946 -0.8709
 5804TIP3   OH238826   1.727   5.862  11.092  0.4692 -0.3762  0.2008
 5804TIP3    H138827   1.780   5.784  11.074  0.2315 -0.5930  0.4462
 5804TIP3    H238828   1.642   5.828  11.118  0.8121 -0.0531  1.7556
 5805TIP3   OH238829   1.208   1.574   9.811  0.3891  0.4668  0.4142
 5805TIP3    H138830   1.180   1.527   9.733  1.0472 -1.2677  1.1993
 5805TIP3    H238831   1.133   1.629   9.834 -0.0959  0.4069 -0.9825
 5806TIP3   OH238832   3.448   3.684  12.598  0.1769 -0.4473  0.4319
 5806TIP3    H138833   3.387   3.645  12.661  0.9078 -1.2701  0.6407
 5806TIP3    H238834   3.410   3.770  12.578 -0.3150 -0.3709  1.6316
 5807TIP3   OH238835   2.473   6.840  12.369 -0.4098 -0.1893 -0.4783
 5807TIP3    H138836   2.389   6.795  12.353 -1.0263  0.4054  1.0225
 5807TIP3    H238837   2.528   6.773  12.410 -1.0317  0.1533  0.9389
 5808TIP3   OH238838   1.625   6.899  15.487 -0.4694 -0.1689  0.0418
 5808TIP3    H138839   1.568   6.935  15.556  0.3305 -0.6289  0.9639
 5808TIP3    H238840   1.606   6.805  15.488 -0.2407 -0.2154 -0.1605
 5809TIP3   OH238841   1.275   2.128   2.630 -0.1804  0.3133 -0.0390
 5809TIP3    H138842   1.186   2.134   2.664 -0.8971  0.5676 -1.9031
 5809TIP3    H238843   1.273   2.053   2.570  1.3404 -0.8195  1.2763
 5810TIP3   OH238844   2.483   2.625  12.526 -0.0193 -0.6653  0.9420
 5810TIP3    H138845   2.486   2.696  12.591 -0.6354  0.4006 -0.1684
 5810TIP3    H238846   2.562   2.574  12.543  1.2391  1.1740  0.8035
 5811TIP3   OH238847   6.947   1.666  10.043  0.6375  0.0846 -0.1726
 5811TIP3    H138848   6.982   1.580  10.068  2.6208  1.0928  0.6854
 5811TIP3    H238849   6.967   1.675   9.950  1.0485 -0.0993 -0.1023
 5812TIP3   OH238850   2.420   5.241  11.549 -0.3571  0.1720 -0.1140
 5812TIP3    H138851   2.348   5.268  11.493 -1.7359 -0.1541  1.4736
 5812TIP3    H238852   2.496   5.239  11.491 -1.2637  2.2023 -1.4394
 5813TIP3   OH238853   3.648   0.731  10.143  0.0839  0.4367  0.4770
 5813TIP3    H138854   3.664   0.694  10.056  0.0873  0.0866  0.6268
 5813TIP3    H238855   3.719   0.794  10.156  0.1476  0.4068  0.2741
 5814TIP3   OH238856   2.202   5.790  10.640  0.0553 -0.6355  0.2037
 5814TIP3    H138857   2.286   5.779  10.686 -0.2511 -1.9370  0.4658
 5814TIP3    H238858   2.202   5.882  10.612  2.1381 -0.9516 -0.9348
 5815TIP3   OH238859   1.220   6.898  10.245 -0.1511  0.1932  0.0414
 5815TIP3    H138860   1.132   6.908  10.280 -1.2236 -4.1772 -1.1432
 5815TIP3    H238861   1.277   6.901  10.322 -1.4461  1.6398  0.9665
 5816TIP3   OH238862   6.142   7.043  10.187 -0.1166  0.2310 -0.4971
 5816TIP3    H138863   6.064   7.085  10.224 -0.7883 -1.5481  0.1503
 5816TIP3    H238864   6.209   7.053  10.255 -0.2983  0.1722 -0.3101
 5817TIP3   OH238865   2.538   6.707  13.565 -0.1270  0.2832  0.4898
 5817TIP3    H138866   2.621   6.679  13.527 -0.3328  0.8819 -0.4282
 5817TIP3    H238867   2.555   6.797  13.594 -1.1786  1.3522 -2.0760
 5818TIP3   OH238868   6.259   1.123  14.599 -0.0025  0.1671  0.3372
 5818TIP3    H138869   6.354   1.133  14.598 -0.3515  3.8584 -1.0202
 5818TIP3    H238870   6.226   1.194  14.545 -3.4864 -2.2738 -0.9321
 5819TIP3   OH238871   1.524   2.900  12.929  0.8008  0.2532  0.3710
 5819TIP3    H138872   1.552   2.989  12.948  0.3427  0.5594 -0.3677
 5819TIP3    H238873   1.439   2.891  12.972  0.0590  0.7384 -0.9678
 5820TIP3   OH238874   3.843   2.107  13.228 -0.1382 -0.4824  0.1516
 5820TIP3    H138875   3.834   2.196  13.194  1.6387 -0.2017  0.3754
 5820TIP3    H238876   3.885   2.058  13.157 -0.5657 -1.0010  0.2525
 5821TIP3   OH238877   3.335   1.480  13.789  0.0832  0.2443 -0.1467
 5821TIP3    H138878   3.417   1.517  13.824  0.4825 -0.0872 -0.7216
 5821TIP3    H238879   3.331   1.392  13.826  1.2970 -0.6835 -2.1273
 5822TIP3   OH238880   0.534   5.254  13.863  0.0116 -0.1638  0.7834
 5822TIP3    H138881   0.511   5.329  13.808 -0.3753 -1.4418 -0.8551
 5822TIP3    H238882   0.451   5.222  13.897  0.1540  0.0043  1.2969
 5823TIP3   OH238883   0.703   6.530   1.156 -0.0736  0.1770 -0.1979
 5823TIP3    H138884   0.619   6.490   1.179 -1.0347  1.3686 -1.4883
 5823TIP3    H238885   0.706   6.527   1.061  0.6128  1.5752 -0.2420
 5824TIP3   OH238886   5.040   4.609   9.837 -0.1769  0.1200 -0.0920
 5824TIP3    H138887   4.950   4.582   9.821 -0.6516  3.0235 -2.8479
 5824TIP3    H238888   5.093   4.545   9.789 -0.8730 -0.2213 -0.4130
 5825TIP3   OH238889   5.490   4.133  12.497  0.5760  0.2940  0.0570
 5825TIP3    H138890   5.499   4.195  12.424  2.2898 -0.8250 -0.7052
 5825TIP3    H238891   5.546   4.059  12.473 -0.3365 -0.9393  1.6195
 5826TIP3   OH238892   3.406   0.601  11.649 -0.5660 -0.5182  0.4655
 5826TIP3    H138893   3.488   0.581  11.604 -1.3946 -0.8724 -0.9252
 5826TIP3    H238894   3.393   0.695  11.635 -2.0685 -1.0722 -2.2276
 5827TIP3   OH238895   1.923   6.385  10.750 -0.2904 -0.7098  0.4748
 5827TIP3    H138896   1.972   6.319  10.799  0.2268 -0.0962  0.7957
 5827TIP3    H238897   1.870   6.429  10.816  0.0142 -0.2317  0.4044
 5828TIP3   OH238898   0.220   5.872  12.915 -0.0411 -0.3966 -0.2157
 5828TIP3    H138899   0.162   5.890  12.841 -0.5695 -1.4423 -0.0582
 5828TIP3    H238900   0.240   5.779  12.908 -1.1091 -0.7938  1.6680
 5829TIP3   OH238901   2.544   3.536  12.928 -0.5674  0.0543 -0.1238
 5829TIP3    H138902   2.522   3.449  12.895 -0.7233  0.4325 -1.0367
 5829TIP3    H238903   2.602   3.573  12.861 -1.7237  1.2392 -0.4854
 5830TIP3   OH238904   1.165   0.337  12.364 -0.5374  0.4737  0.4263
 5830TIP3    H138905   1.186   0.429  12.380 -0.5200  0.6404 -0.5389
 5830TIP3    H238906   1.158   0.330  12.269  1.2739 -0.8995  0.3557
 5831TIP3   OH238907   1.130   5.205  12.230 -0.4116 -0.7109 -1.1340
 5831TIP3    H138908   1.046   5.250  12.218 -0.4990 -0.9832 -1.5512
 5831TIP3    H238909   1.150   5.215  12.324  1.1395  2.9542 -1.7742
 5832TIP3   OH238910   6.521   3.311  10.862  0.0233 -0.5013 -0.8590
 5832TIP3    H138911   6.518   3.367  10.785 -1.2206  1.6158  0.6748
 5832TIP3    H238912   6.432   3.276  10.869 -0.4810  1.0194  0.7849
 5833TIP3   OH238913   2.471   3.849  13.171  0.5552 -0.2840 -0.4100
 5833TIP3    H138914   2.449   3.895  13.253 -0.4579 -1.0418 -0.2395
 5833TIP3    H238915   2.417   3.769  13.174  1.7640 -1.1274 -1.0357
 5834TIP3   OH238916   0.004   6.447   0.849  0.4671 -0.1851  0.8008
 5834TIP3    H138917  -0.025   6.377   0.791 -0.0150  0.7401 -0.0824
 5834TIP3    H238918   0.098   6.436   0.856  0.5285 -0.2877 -0.1768
 5835TIP3   OH238919   0.152   3.733  13.035  0.1235 -0.3412  0.4032
 5835TIP3    H138920   0.220   3.728  13.102 -0.0056  0.7220  0.6230
 5835TIP3    H238921   0.195   3.777  12.961 -0.5104  0.9787  0.7994
 5836TIP3   OH238922   2.999   6.243  12.020  0.1471  0.2627 -0.0418
 5836TIP3    H138923   2.961   6.250  12.107 -0.3392 -1.2142 -0.1316
 5836TIP3    H238924   2.988   6.331  11.982 -2.4589  0.0993  0.2243
 5837TIP3   OH238925   2.385   4.446  12.306 -0.3961  0.1038 -0.0626
 5837TIP3    H138926   2.337   4.502  12.366 -0.4211  0.2423 -0.2107
 5837TIP3    H238927   2.400   4.501  12.229 -0.3657 -0.0739 -0.1823
 5838TIP3   OH238928   2.040   2.398  11.199 -0.1143 -0.6788  0.2313
 5838TIP3    H138929   1.961   2.450  11.186  0.4453  0.3835  1.0838
 5838TIP3    H238930   2.042   2.378  11.293  0.9675 -0.1571  0.3270
 5839TIP3   OH238931   3.954   0.515  14.826  0.4552  0.1532  0.5008
 5839TIP3    H138932   3.958   0.574  14.901  1.0786  0.5525  0.1580
 5839TIP3    H238933   4.024   0.544  14.769  0.4281 -0.5909  0.0808
 5840TIP3   OH238934   0.874   4.714  11.179  0.4639  0.2179  0.4314
 5840TIP3    H138935   0.922   4.751  11.254  1.5594 -0.7096  0.1989
 5840TIP3    H238936   0.910   4.759  11.103 -0.5558  1.0627  0.4260
 5841TIP3   OH238937   6.442   6.833  12.060 -0.2713 -0.2749  0.2282
 5841TIP3    H138938   6.528   6.842  12.102 -0.5544 -0.2920  0.8278
 5841TIP3    H238939   6.381   6.872  12.123 -0.6634  0.0189 -0.3364
 5842TIP3   OH238940   5.734   5.439  10.807  0.3559 -0.3931 -0.2583
 5842TIP3    H138941   5.695   5.353  10.794  0.5479 -0.6663  0.9594
 5842TIP3    H238942   5.670   5.488  10.858 -1.3521  1.4096 -3.8808
 5843TIP3   OH238943   3.160   6.693  12.368 -0.5578  0.2501 -0.6341
 5843TIP3    H138944   3.094   6.750  12.327  0.6361  1.2767 -1.1715
 5843TIP3    H238945   3.179   6.626  12.302 -3.5897 -2.1626  0.8182
 5844TIP3   OH238946   5.253   2.880  15.264  0.1745 -0.3539 -0.4571
 5844TIP3    H138947   5.229   2.789  15.243  0.6852 -0.1603 -1.9231
 5844TIP3    H238948   5.298   2.912  15.186  4.9001 -0.5705  1.9778
 5845TIP3   OH238949   6.091   6.575  10.017  0.0820  0.5587 -0.1051
 5845TIP3    H138950   6.061   6.568  10.108  0.8946 -0.0301  0.1208
 5845TIP3    H238951   6.010   6.576   9.966 -0.3226 -2.3009  0.4115
 5846TIP3   OH238952   4.376   4.533  10.697 -0.4025 -0.7356 -0.5051
 5846TIP3    H138953   4.394   4.532  10.603 -0.8947 -0.7991 -0.5975
 5846TIP3    H238954   4.315   4.461  10.711 -1.9402  0.5362 -0.4704
 5847TIP3   OH238955   4.034   1.665  13.337  0.4250  0.4851 -0.1553
 5847TIP3    H138956   3.992   1.631  13.415  0.4787 -3.1804 -1.6504
 5847TIP3    H238957   3.978   1.737  13.309 -0.8589  0.3322  1.9190
 5848TIP3   OH238958   2.692   7.111  10.953 -0.4169 -0.2604 -0.2839
 5848TIP3    H138959   2.683   7.183  11.014  0.9704 -1.3341  1.2369
 5848TIP3    H238960   2.671   7.033  11.004  3.1371 -1.4069 -0.4090
 5849TIP3   OH238961   1.776   6.578  13.708  0.4788  0.2743  0.5528
 5849TIP3    H138962   1.857   6.568  13.657  0.0746 -0.9987  0.1511
 5849TIP3    H238963   1.768   6.673  13.720  1.0073  0.5520 -1.0726
 5850TIP3   OH238964   0.134   2.380  15.211 -0.0325 -0.0379 -0.5018
 5850TIP3    H138965   0.078   2.305  15.192  1.7827 -1.6336  0.2345
 5850TIP3    H238966   0.210   2.342  15.255  0.1803  2.4325  1.3670
 5851TIP3   OH238967   3.697   3.086  13.280  0.4238  0.1934  0.1039
 5851TIP3    H138968   3.783   3.058  13.312 -0.4222 -0.6354  1.7221
 5851TIP3    H238969   3.635   3.043  13.338 -1.0339  2.6703  0.4566
 5852TIP3   OH238970   5.509   5.655  12.206  0.2693 -0.4287 -0.2838
 5852TIP3    H138971   5.485   5.568  12.237  0.9032 -0.4021  0.2961
 5852TIP3    H238972   5.563   5.691  12.276 -0.5453  0.6959 -0.2270
 5853TIP3   OH238973   6.776   3.776  13.331 -0.0201  0.8664  0.2286
 5853TIP3    H138974   6.867   3.790  13.305 -0.1151 -0.3371 -0.8049
 5853TIP3    H238975   6.728   3.845  13.287  0.4010  1.5374  0.8153
 5854TIP3   OH238976   5.903   5.232  12.796 -0.0499 -0.1740 -0.4695
 5854TIP3    H138977   5.994   5.263  12.798  0.6837 -2.2864 -0.8278
 5854TIP3    H238978   5.900   5.167  12.726 -1.3864 -1.4869  0.7611
 5855TIP3   OH238979   5.347   7.010  14.498 -0.4217  0.3434  0.0466
 5855TIP3    H138980   5.301   6.926  14.497 -0.5409  0.4061  0.2487
 5855TIP3    H238981   5.360   7.029  14.591 -1.8563  1.3591  0.0521
 5856TIP3   OH238982   3.773   6.826  10.361  0.4093  0.2820 -0.4690
 5856TIP3    H138983   3.778   6.731  10.366  1.4346  0.2902 -1.1032
 5856TIP3    H238984   3.857   6.852  10.321  0.2604  1.4608 -0.0300
 5857TIP3   OH238985   0.004   3.135  12.499  0.6711 -0.5444  0.4044
 5857TIP3    H138986  -0.068   3.128  12.561  0.1001  0.7426 -0.0921
 5857TIP3    H238987   0.024   3.229  12.495  1.1629 -0.6846 -0.8196
 5858TIP3   OH238988   3.126   4.146   0.537 -0.1465 -0.4942  0.2392
 5858TIP3    H138989   3.155   4.177   0.451  0.1855  0.5246  0.7059
 5858TIP3    H238990   3.097   4.056   0.522  0.1253 -0.4002 -0.8911
 5859TIP3   OH238991   5.561   1.597  10.485 -0.3916 -0.5515 -0.1100
 5859TIP3    H138992   5.541   1.566  10.396  1.3331 -1.8535 -0.0660
 5859TIP3    H238993   5.618   1.530  10.522  0.1112  0.7068  1.4670
 5860TIP3   OH238994   0.035   5.527  13.789  0.3870  0.1601 -0.1114
 5860TIP3    H138995   0.074   5.529  13.702  0.2877  1.3529 -0.1426
 5860TIP3    H238996   0.106   5.498  13.846  0.1722 -1.5953 -0.7158
 5861TIP3   OH238997   7.117   0.375  13.986  0.0569  0.1233  0.4383
 5861TIP3    H138998   7.151   0.459  13.954 -0.3646  0.1666  0.1031
 5861TIP3    H238999   7.052   0.398  14.052 -0.4827  0.0742 -0.0736
 5862TIP3   OH239000   6.194   2.821  10.880 -0.0987  0.6351 -0.5344
 5862TIP3    H139001   6.229   2.786  10.798  0.6892  0.3914 -0.0893
 5862TIP3    H239002   6.179   2.745  10.935 -0.1507  0.8392 -0.2610
 5863TIP3   OH239003   2.405   5.593  10.464  0.3352  0.1941 -0.1604
 5863TIP3    H139004   2.338   5.591  10.395  1.6550  0.6792 -1.4824
 5863TIP3    H239005   2.420   5.686  10.481 -2.3403  0.1214  3.1893
 5864TIP3   OH239006   0.693   6.379  10.404 -0.3398  0.1610  0.7976
 5864TIP3    H139007   0.787   6.389  10.392 -0.3669 -0.0487  0.4251
 5864TIP3    H239008   0.656   6.463  10.375 -0.5122 -0.7531 -1.7453
 5865TIP3   OH239009   1.561   5.779  13.652 -0.2024 -0.1051 -0.0728
 5865TIP3    H139010   1.488   5.840  13.659 -0.4505 -0.5475  1.2862
 5865TIP3    H239011   1.629   5.828  13.606 -1.2163  0.4275 -1.0269
 5866TIP3   OH239012   4.402   7.101  12.860  0.2733  0.1601  0.7317
 5866TIP3    H139013   4.367   7.035  12.920 -0.9334  1.9957  2.0750
 5866TIP3    H239014   4.325   7.150  12.831  1.2169  1.3461  0.1999
 5867TIP3   OH239015   4.300   3.210  13.065  0.5882  0.1207  0.4981
 5867TIP3    H139016   4.248   3.244  13.138 -0.8147 -0.3930 -0.2371
 5867TIP3    H239017   4.305   3.116  13.081 -0.2027 -0.0760 -0.3424
 5868TIP3   OH239018   3.749   6.138  10.689  0.1969 -0.3274 -1.0284
 5868TIP3    H139019   3.706   6.216  10.723 -0.6442 -1.6734  1.0290
 5868TIP3    H239020   3.686   6.100  10.628 -1.2891 -1.8634  1.3924
 5869TIP3   OH239021   4.028   5.575  11.415  0.2927  0.9683 -0.1750
 5869TIP3    H139022   4.118   5.610  11.416  0.4399  0.5616  1.0368
 5869TIP3    H239023   3.999   5.582  11.505  0.1095 -1.4981 -0.0159
 5870TIP3   OH239024   7.055   4.521  11.808 -0.0217 -0.5221 -0.0789
 5870TIP3    H139025   6.996   4.531  11.733 -0.3730 -0.2845  0.2228
 5870TIP3    H239026   7.106   4.442  11.789 -0.5974 -0.8584 -0.2406
 5871TIP3   OH239027   0.107   2.391  14.296  0.1042  0.4751  0.0966
 5871TIP3    H139028   0.088   2.474  14.339 -1.0937 -1.1405  2.8081
 5871TIP3    H239029   0.134   2.416  14.207  0.3922  3.7663  1.0354
 5872TIP3   OH239030   4.781   4.453  13.296 -0.0226 -0.3725 -0.0046
 5872TIP3    H139031   4.833   4.492  13.225 -0.2266 -0.1501 -0.0335
 5872TIP3    H239032   4.833   4.378  13.325  0.6124  0.2141  0.3801
 5873TIP3   OH239033   5.066   5.487  10.225  0.7202  0.5399 -0.2398
 5873TIP3    H139034   5.055   5.531  10.309  0.5787  1.6123 -0.8158
 5873TIP3    H239035   5.003   5.415  10.227 -0.8957  1.9407 -0.3554
 5874TIP3   OH239036   5.039   5.923  14.268  0.3148 -0.0218  0.1705
 5874TIP3    H139037   5.087   5.929  14.351  1.2952  0.6475 -0.4408
 5874TIP3    H239038   5.059   6.005  14.223  0.3499 -0.6957 -1.0410
 5875TIP3   OH239039   6.004   6.402  12.950  0.2410 -0.3783  0.0673
 5875TIP3    H139040   5.920   6.379  12.911  0.0713 -0.4887  0.4881
 5875TIP3    H239041   6.019   6.333  13.016 -0.1664  0.5852  1.1884
 5876TIP3   OH239042   5.973   5.226   1.229 -0.0140  0.3416  0.1567
 5876TIP3    H139043   6.024   5.154   1.265  0.6857  1.6488  1.8032
 5876TIP3    H239044   6.037   5.296   1.214 -1.1251  1.5710  1.1135
 5877TIP3   OH239045   6.154   6.789  10.778 -0.1422 -0.1005  0.6215
 5877TIP3    H139046   6.089   6.737  10.730  0.6737 -1.3773  0.8766
 5877TIP3    H239047   6.210   6.724  10.820  0.7229  1.0000  1.1890
 5878TIP3   OH239048   6.699   4.071  10.046 -0.5858  0.2934  0.2224
 5878TIP3    H139049   6.765   4.003  10.057  0.9915  1.6787 -0.4320
 5878TIP3    H239050   6.615   4.024  10.045  0.4292 -1.5569  0.3107
 5879TIP3   OH239051   2.873   1.618  13.891  0.3147  0.1840  1.0661
 5879TIP3    H139052   2.866   1.696  13.945 -0.0983  0.8206  0.1068
 5879TIP3    H239053   2.788   1.574  13.902  0.0232  0.6004  0.5090
 5880TIP3   OH239054   5.660   5.163  10.709  0.0119 -0.0543  0.0865
 5880TIP3    H139055   5.652   5.075  10.746 -0.2458  0.6074  1.6331
 5880TIP3    H239056   5.570   5.190  10.689  0.1754 -0.5376 -1.3590
 5881TIP3   OH239057   6.888   6.337  11.641  0.3875  0.6265  0.2499
 5881TIP3    H139058   6.908   6.351  11.548  1.7932  1.3110  0.6388
 5881TIP3    H239059   6.935   6.408  11.686 -1.4031  1.1382  1.3763
 5882TIP3   OH239060   1.467   0.093  11.604 -0.3327 -0.2813  0.5211
 5882TIP3    H139061   1.459   0.126  11.514 -1.6039 -1.1554  0.2991
 5882TIP3    H239062   1.542   0.140  11.640  0.6944 -0.5035 -1.2616
 5883TIP3   OH239063   1.841   7.123  11.842  0.0534 -0.2745 -0.1738
 5883TIP3    H139064   1.808   7.212  11.834 -0.7144 -0.5141  0.2778
 5883TIP3    H239065   1.926   7.125  11.798 -0.5562  0.3532 -1.3695
 5884TIP3   OH239066   5.421   5.979  14.449  0.1279 -0.2433  0.1071
 5884TIP3    H139067   5.423   5.884  14.461  0.7599 -0.1611  0.6924
 5884TIP3    H239068   5.471   5.995  14.369 -0.6703 -0.4611 -0.4479
 5885TIP3   OH239069   3.913   1.258  11.008 -0.4221  0.3014  0.2938
 5885TIP3    H139070   3.824   1.263  11.043 -0.1450 -1.1715  1.2932
 5885TIP3    H239071   3.968   1.244  11.086  0.4443 -0.8509 -0.5066
 5886TIP3   OH239072   0.902   5.201  11.881  0.4049 -0.6696 -0.1034
 5886TIP3    H139073   0.922   5.107  11.884  1.1218 -0.4814  1.9305
 5886TIP3    H239074   0.987   5.243  11.868  0.2578 -0.2315  0.3453
 5887TIP3   OH239075   1.203   6.140   9.808 -0.3637  0.1435  1.5457
 5887TIP3    H139076   1.248   6.205   9.754  0.6838 -0.6652  1.4302
 5887TIP3    H239077   1.199   6.062   9.753 -2.5441  0.3915  1.2843
 5888TIP3   OH239078   6.151   2.104  15.310  0.3650 -0.3333 -0.0165
 5888TIP3    H139079   6.240   2.132  15.286 -0.2710 -0.5912 -2.8344
 5888TIP3    H239080   6.156   2.008  15.308  1.2455 -0.5267  4.7367
 5889TIP3   OH239081   2.309   4.309  14.410 -0.0912  0.2407  0.5615
 5889TIP3    H139082   2.298   4.384  14.352 -0.3732 -0.0278  0.2653
 5889TIP3    H239083   2.397   4.276  14.391 -0.0794  0.3179  0.4854
 5890TIP3   OH239084   3.506   2.504  11.397  0.1377 -0.1002  0.5028
 5890TIP3    H139085   3.438   2.463  11.450  1.0475 -1.3397  0.7197
 5890TIP3    H239086   3.477   2.595  11.389 -1.1440 -0.4188  1.2446
 5891TIP3   OH239087   3.811   1.201  10.403  0.3288  0.0869 -0.5222
 5891TIP3    H139088   3.766   1.138  10.346 -0.2381  0.4328 -0.4548
 5891TIP3    H239089   3.895   1.159  10.422  0.2843 -0.2962 -1.1339
 5892TIP3   OH239090   1.500   5.926  12.708  0.2532 -0.3143  0.2546
 5892TIP3    H139091   1.477   5.870  12.782 -1.1303 -0.9249 -0.6368
 5892TIP3    H239092   1.593   5.908  12.693  0.7762  0.4372  2.3678
 5893TIP3   OH239093   5.755   6.130  14.058  0.0392  0.3069 -0.2256
 5893TIP3    H139094   5.802   6.199  14.106 -1.2501 -0.0338  1.5385
 5893TIP3    H239095   5.822   6.091  14.002  1.0844  2.1221 -0.2962
 5894TIP3   OH239096   5.670   5.314  15.107  0.6953  0.6934  0.3585
 5894TIP3    H139097   5.599   5.376  15.089  1.8911  1.3124 -2.4963
 5894TIP3    H239098   5.651   5.239  15.051  1.2401  0.0343  1.0548
 5895TIP3   OH239099   3.739   3.415  14.789 -0.1211  0.5262  0.5462
 5895TIP3    H139100   3.714   3.472  14.717 -0.4218  0.0595  0.2794
 5895TIP3    H239101   3.663   3.359  14.804  0.9638 -1.3319 -0.6916
 5896TIP3   OH239102   3.671   3.109  12.187 -0.4655  0.0870  0.1344
 5896TIP3    H139103   3.750   3.105  12.133  0.2686  0.5251  1.1541
 5896TIP3    H239104   3.619   3.034  12.158  0.8154 -0.8469  0.1759
 5897TIP3   OH239105   5.669   5.995  12.957 -0.0067  0.3749  0.4756
 5897TIP3    H139106   5.752   5.963  12.993  0.0457  1.1280  1.0324
 5897TIP3    H239107   5.653   5.939  12.881  0.9386  0.1279  0.4481
 5898TIP3   OH239108   4.952   6.833  11.209 -0.1568 -0.0895  0.1487
 5898TIP3    H139109   5.005   6.848  11.131  1.4105 -2.6668  0.6476
 5898TIP3    H239110   5.006   6.865  11.281 -1.6122  2.3142  0.2229
 5899TIP3   OH239111   3.854   6.394  10.456 -0.2097 -0.7110 -0.3150
 5899TIP3    H139112   3.765   6.373  10.485 -0.7298 -1.9716 -2.6853
 5899TIP3    H239113   3.889   6.310  10.425  2.6504 -0.7242  2.6064
 5900TIP3   OH239114   4.987   5.290  11.262 -0.3040 -0.3410  0.0542
 5900TIP3    H139115   4.942   5.216  11.304 -1.4434 -0.0104 -0.5406
 5900TIP3    H239116   5.071   5.254  11.234 -0.4895 -1.1794  0.5424
 5901TIP3   OH239117   3.470   7.158  14.231  0.1670 -0.2450  0.6431
 5901TIP3    H139118   3.478   7.212  14.309  1.0765  0.5809 -0.0177
 5901TIP3    H239119   3.517   7.206  14.163  0.4462 -1.5516 -0.1102
 5902TIP3   OH239120   0.023   7.004  13.347 -0.3153  0.1563 -0.0593
 5902TIP3    H139121   0.073   6.989  13.427 -1.6505 -0.9214  0.5995
 5902TIP3    H239122   0.079   6.970  13.277  1.2737  1.9886  0.2776
 5903TIP3   OH239123   6.751   0.129  12.070  0.1358 -0.3553 -0.4907
 5903TIP3    H139124   6.837   0.088  12.064  0.5839  0.8233 -2.4978
 5903TIP3    H239125   6.695   0.075  12.014  0.2637  0.5522 -1.5172
 5904TIP3   OH239126   3.168   2.816  11.322 -0.0864  0.7834  0.1970
 5904TIP3    H139127   3.188   2.803  11.415  1.1204  0.1127 -0.1594
 5904TIP3    H239128   3.118   2.738  11.297 -1.3669  1.4665  0.5379
 5905TIP3   OH239129   6.495   5.258   2.754 -1.0781 -0.0637  0.0827
 5905TIP3    H139130   6.549   5.204   2.812 -0.2482 -0.7538 -1.3094
 5905TIP3    H239131   6.512   5.224   2.667 -0.3156  2.6580 -0.8625
 5906TIP3   OH239132   2.667   5.553  10.750 -0.3207 -0.4727 -0.7245
 5906TIP3    H139133   2.712   5.612  10.689  0.5269  0.2489  0.5692
 5906TIP3    H239134   2.722   5.474  10.752 -0.1590 -0.3590 -0.6380
 5907TIP3   OH239135   0.524   3.213  14.560 -0.2276 -0.0455  0.0820
 5907TIP3    H139136   0.529   3.228  14.466 -1.2759  0.2423  0.0716
 5907TIP3    H239137   0.481   3.290  14.595 -0.7334 -0.5944  0.6820
 5908TIP3   OH239138   6.982   0.332   0.346  0.0506  0.2272 -0.2694
 5908TIP3    H139139   7.030   0.332   0.263  0.8532  0.8972  0.1838
 5908TIP3    H239140   7.047   0.308   0.412 -0.4684  0.1678  0.2253
 5909TIP3   OH239141   4.354   1.144  13.692  0.1950  0.5443  0.1922
 5909TIP3    H139142   4.299   1.143  13.614  1.3189 -0.7000 -0.6128
 5909TIP3    H239143   4.443   1.152  13.659  0.6339  0.8669  1.3958
 5910TIP3   OH239144   5.793   3.777  11.483  0.0330  0.3516  0.1813
 5910TIP3    H139145   5.764   3.800  11.571 -1.4221 -0.2245 -0.1339
 5910TIP3    H239146   5.855   3.706  11.495 -2.8958 -2.2349  0.5446
 5911TIP3   OH239147   6.970   6.073  11.610  0.1564  0.2617  0.2755
 5911TIP3    H139148   6.969   6.158  11.654  0.4737 -0.5836  1.9763
 5911TIP3    H239149   6.928   6.013  11.673 -1.2632 -0.5926 -1.4387
 5912TIP3   OH239150   4.364   4.185  11.537  0.4432 -0.1787  0.1840
 5912TIP3    H139151   4.324   4.099  11.529 -0.7538  0.3729  0.1375
 5912TIP3    H239152   4.340   4.215  11.625  0.2007  0.4198 -0.0798
 5913TIP3   OH239153   4.257   5.723  11.441 -0.6388 -0.3277 -0.4401
 5913TIP3    H139154   4.340   5.727  11.489 -0.3380 -3.7744 -0.5240
 5913TIP3    H239155   4.264   5.791  11.374  1.7690 -0.0156  0.0855
 5914TIP3   OH239156   4.305   2.826  13.486  0.3145  0.2730  0.1185
 5914TIP3    H139157   4.324   2.782  13.403 -0.2025 -0.8349  0.5811
 5914TIP3    H239158   4.390   2.853  13.520  0.5598  0.3726 -0.5710
 5915TIP3   OH239159   5.676   5.171  11.373  0.0739 -0.2588 -0.0961
 5915TIP3    H139160   5.706   5.256  11.339  0.1856 -0.5876 -0.8405
 5915TIP3    H239161   5.584   5.187  11.396  0.6172  0.5644  1.5615
 5916TIP3   OH239162   2.999   3.699  10.211 -0.5598 -0.6041  0.0089
 5916TIP3    H139163   3.033   3.646  10.140 -1.8633 -0.7947 -0.4800
 5916TIP3    H239164   3.077   3.735  10.254  0.1803  2.0757 -3.4262
 5917TIP3   OH239165   4.532   3.594  13.810 -1.0697 -0.2249  0.6649
 5917TIP3    H139166   4.601   3.562  13.867 -0.2167 -0.7569 -0.6365
 5917TIP3    H239167   4.481   3.515  13.788 -1.6019  0.0319  0.9531
 5918TIP3   OH239168   2.225   3.093  12.946 -0.0012  0.2939 -0.0615
 5918TIP3    H139169   2.211   3.006  12.982  0.9808  0.1369 -0.0689
 5918TIP3    H239170   2.163   3.099  12.873  1.8951 -1.4751 -1.8843
 5919TIP3   OH239171   1.866   4.647   9.544 -0.0510 -0.1844  0.3627
 5919TIP3    H139172   1.868   4.565   9.594  1.1676 -0.8331 -0.6958
 5919TIP3    H239173   1.875   4.716   9.609  1.4901 -1.0098  1.0493
 5920TIP3   OH239174   2.896   2.330  15.316  0.1179 -0.3620 -0.4473
 5920TIP3    H139175   2.852   2.247  15.297 -0.0069  0.0487 -2.0352
 5920TIP3    H239176   2.974   2.306  15.365 -0.9821 -1.2414  0.9071
 5921TIP3   OH239177   2.433   1.329  14.142  0.2962  0.2460 -0.2103
 5921TIP3    H139178   2.401   1.257  14.088  0.6191 -1.8893  2.3527
 5921TIP3    H239179   2.381   1.324  14.222  1.0447  2.2234  0.4274
 5922TIP3   OH239180   0.183   0.568  10.296 -0.7570  0.1297 -0.1621
 5922TIP3    H139181   0.189   0.495  10.358 -0.5204 -0.2480 -0.6349
 5922TIP3    H239182   0.227   0.641  10.341  0.2862 -0.4181 -0.2861
 5923TIP3   OH239183   6.780   6.832  12.800  0.0478 -0.0949  0.6266
 5923TIP3    H139184   6.818   6.869  12.720 -3.1759  1.4446 -0.2564
 5923TIP3    H239185   6.826   6.876  12.871 -0.2796  1.9849 -0.4169
 5924TIP3   OH239186   2.514   0.797  13.360  0.1003  0.4993 -0.0120
 5924TIP3    H139187   2.505   0.887  13.392  0.1138  1.4032 -2.4646
 5924TIP3    H239188   2.606   0.791  13.332 -0.2764  0.1836 -1.1974
 5925TIP3   OH239189   3.847   1.892  10.474  0.1896 -0.4628 -0.1658
 5925TIP3    H139190   3.837   1.944  10.394  0.6243  2.7805  1.8157
 5925TIP3    H239191   3.761   1.894  10.515  0.5443 -0.2063  0.5721
 5926TIP3   OH239192   3.621   5.425  13.037 -0.4090 -0.0123 -0.1801
 5926TIP3    H139193   3.676   5.483  13.089 -0.5465 -0.6765  0.7220
 5926TIP3    H239194   3.676   5.400  12.963  0.5625 -0.7579  0.7742
 5927TIP3   OH239195   4.286   0.967  10.655  0.1324  0.0476  0.1089
 5927TIP3    H139196   4.303   0.946  10.563 -0.5343  1.2184 -0.2892
 5927TIP3    H239197   4.350   1.036  10.675  1.6309 -1.5879  1.1109
 5928TIP3   OH239198   1.582   4.624  14.165  0.1190 -0.0099 -0.3913
 5928TIP3    H139199   1.491   4.644  14.144  0.5556  1.8572 -0.5995
 5928TIP3    H239200   1.634   4.674  14.101  1.2727 -3.8824 -2.6234
 5929TIP3   OH239201   7.134   0.349  15.455 -0.3387  0.9256 -0.0790
 5929TIP3    H139202   7.126   0.444  15.448 -0.7424  0.8359 -1.0054
 5929TIP3    H239203   7.146   0.320  15.364 -0.1822  0.0973  0.2039
 5930TIP3   OH239204   6.477   5.005  10.582 -0.1146  0.4825 -0.1242
 5930TIP3    H139205   6.386   5.002  10.611  0.2250 -2.2153  0.8130
 5930TIP3    H239206   6.515   5.080  10.629 -0.8776 -0.7252  2.4990
 5931TIP3   OH239207   1.144   0.118  15.172 -0.1692  0.4955 -0.3575
 5931TIP3    H139208   1.063   0.129  15.221 -1.2548  0.1963 -2.0859
 5931TIP3    H239209   1.161   0.204  15.134 -0.5052  0.1577 -1.2738
 5932TIP3   OH239210   2.030   5.397  13.179 -0.4128 -0.0066 -0.1521
 5932TIP3    H139211   2.082   5.455  13.123 -0.8288  0.4236 -0.0916
 5932TIP3    H239212   1.952   5.448  13.201 -0.2386 -0.1543  0.8550
 5933TIP3   OH239213   7.093   0.170  11.093 -0.3839  0.4186 -0.1273
 5933TIP3    H139214   7.182   0.147  11.120 -1.0781 -1.7312  0.4336
 5933TIP3    H239215   7.082   0.129  11.007 -0.6930  1.0003 -0.3663
 5934TIP3   OH239216   6.118   0.932  10.007 -0.2092  0.0975 -0.3440
 5934TIP3    H139217   6.115   0.859  10.069  0.1115  1.4197  1.2547
 5934TIP3    H239218   6.209   0.938   9.980 -0.2066  0.0147 -0.3538
 5935TIP3   OH239219   1.986   6.584  12.206  0.4950 -0.4127 -0.1307
 5935TIP3    H139220   2.042   6.653  12.170  2.0581 -1.5190  0.1543
 5935TIP3    H239221   1.922   6.567  12.137  0.0237  1.3726 -0.1703
 5936TIP3   OH239222   1.961   1.911  12.464 -0.4486 -0.0230  0.4503
 5936TIP3    H139223   2.039   1.871  12.501 -1.2692  0.0447  2.3849
 5936TIP3    H239224   1.904   1.837  12.442  0.0441 -0.0643 -0.6720
 5937TIP3   OH239225   0.654   0.162  12.177  0.0054 -0.1808 -0.6091
 5937TIP3    H139226   0.654   0.225  12.249 -0.3471 -0.9909  0.1086
 5937TIP3    H239227   0.692   0.210  12.103 -1.4039  1.2716 -0.4291
 5938TIP3   OH239228   6.640   5.840  13.694 -0.0469  0.6678  0.4824
 5938TIP3    H139229   6.655   5.766  13.636 -1.1353  0.3404  0.5944
 5938TIP3    H239230   6.552   5.870  13.670  0.6532  2.3726 -0.0629
 5939TIP3   OH239231   5.198   5.482  14.331 -1.1057 -0.3855 -0.1165
 5939TIP3    H139232   5.283   5.497  14.290 -0.9301 -2.1189 -0.3912
 5939TIP3    H239233   5.135   5.520  14.269 -0.6446 -0.4103 -0.6059
 5940TIP3   OH239234   4.211   1.669  11.460  0.1914 -0.0105  0.1127
 5940TIP3    H139235   4.260   1.742  11.497  1.4689 -0.5382 -0.4860
 5940TIP3    H239236   4.225   1.597  11.522  0.5672 -0.2972 -0.3047
 5941TIP3   OH239237   4.268   0.306   0.594 -0.5487  0.1100  0.9404
 5941TIP3    H139238   4.308   0.360   0.663 -0.5297  2.4564 -0.8241
 5941TIP3    H239239   4.175   0.329   0.598 -0.6182 -0.1115  0.5144
 5942TIP3   OH239240   5.123   3.516  10.253  0.2177 -0.3862 -0.4354
 5942TIP3    H139241   5.093   3.605  10.270  1.0941 -0.4104  1.3305
 5942TIP3    H239242   5.056   3.459  10.291  0.9657 -0.4508  0.8229
 5943TIP3   OH239243   5.297   2.355  15.068 -0.1143 -0.1904  0.4217
 5943TIP3    H139244   5.244   2.286  15.028 -0.8837 -0.3796  1.7458
 5943TIP3    H239245   5.337   2.400  14.994 -1.2298 -0.7657 -0.5553
 5944TIP3   OH239246   3.943   2.526  12.700 -0.0314 -0.4233  0.2087
 5944TIP3    H139247   4.026   2.574  12.698 -0.6344  0.7475  2.0102
 5944TIP3    H239248   3.891   2.572  12.767 -1.4387 -2.2560  0.3919
 5945TIP3   OH239249   7.146   2.674  11.768  0.0519 -0.2069 -0.1037
 5945TIP3    H139250   7.214   2.609  11.754  0.0004 -0.3390  0.2470
 5945TIP3    H239251   7.191   2.758  11.758  0.8513 -0.2572  2.6813
 5946TIP3   OH239252   0.211   2.995  12.619 -0.1203 -0.5329  0.3950
 5946TIP3    H139253   0.160   3.054  12.564 -0.1456 -0.5953  0.3503
 5946TIP3    H239254   0.187   2.907  12.589 -1.6776 -0.6358  1.8644
 5947TIP3   OH239255   2.802   7.091  12.060  0.1129 -0.6630 -0.5915
 5947TIP3    H139256   2.756   7.164  12.018 -2.1763 -2.1448 -0.7502
 5947TIP3    H239257   2.750   7.072  12.138  0.6132 -2.2263 -0.6186
 5948TIP3   OH239258   5.061   0.101  14.859 -0.1512 -0.1800  0.0381
 5948TIP3    H139259   5.104   0.016  14.873  2.9517  1.4226  0.6528
 5948TIP3    H239260   5.044   0.133  14.947 -1.2292 -0.1126 -0.1940
 5949TIP3   OH239261   2.247   2.715  14.784  0.2352  0.6243 -0.3091
 5949TIP3    H139262   2.261   2.782  14.852  0.6206 -0.6038  0.8510
 5949TIP3    H239263   2.211   2.764  14.710 -1.8852  1.7588  1.3959
 5950TIP3   OH239264   2.620   5.703  12.576  0.3147  0.1037  0.6438
 5950TIP3    H139265   2.584   5.617  12.598  0.0094  0.7322  2.6599
 5950TIP3    H239266   2.596   5.716  12.484 -1.0416 -1.2505  0.7897
 5951TIP3   OH239267   1.762   7.038  14.328 -0.2694  0.5671 -0.3475
 5951TIP3    H139268   1.792   7.122  14.292  0.1161  0.4329 -0.3456
 5951TIP3    H239269   1.667   7.049  14.338 -0.2146  1.0277 -0.2818
 5952TIP3   OH239270   3.409   5.527  10.699 -0.3307  0.1747 -0.6621
 5952TIP3    H139271   3.483   5.524  10.639 -0.2447 -0.7070 -0.5305
 5952TIP3    H239272   3.363   5.608  10.679  0.0265  0.1603 -1.5222
 5953TIP3   OH239273   4.771   6.426  12.099 -0.2849 -0.0374 -0.4996
 5953TIP3    H139274   4.772   6.521  12.082  1.9675  0.1427  0.3817
 5953TIP3    H239275   4.788   6.387  12.014  1.1296  0.4680 -0.4673
 5954TIP3   OH239276   1.869   7.083  15.279  0.1725  0.1468 -0.9115
 5954TIP3    H139277   1.907   7.003  15.317 -0.5516 -0.5575 -1.6339
 5954TIP3    H239278   1.944   7.142  15.270  0.3721  0.3248  1.5233
 5955TIP3   OH239279   0.595   7.022   1.519  0.0503 -0.2389  0.5267
 5955TIP3    H139280   0.517   6.974   1.545  0.2512 -0.6921  0.2976
 5955TIP3    H239281   0.592   7.022   1.423 -0.1604  0.5539  0.5257
 5956TIP3   OH239282   2.354   1.979  12.600  0.8635  0.1388 -0.5125
 5956TIP3    H139283   2.339   1.893  12.640 -1.0511 -0.0165 -1.4875
 5956TIP3    H239284   2.426   1.965  12.539  0.5486 -0.7901 -0.6790
 5957TIP3   OH239285   2.324   6.627  11.548  0.7247 -0.4040 -0.3433
 5957TIP3    H139286   2.231   6.629  11.525  1.1536 -1.3253 -2.2946
 5957TIP3    H239287   2.363   6.699  11.498  1.4620 -1.6356 -1.5941
 5958TIP3   OH239288   1.044   7.005  14.740 -0.1094 -0.0497 -0.4017
 5958TIP3    H139289   0.972   6.943  14.730  0.7910 -1.2813  0.5728
 5958TIP3    H239290   1.090   7.003  14.656 -0.0077 -0.7888 -0.3275
 5959TIP3   OH239291   2.409   1.800  10.771 -0.3570 -0.2836  0.5301
 5959TIP3    H139292   2.323   1.805  10.729  0.2687 -2.1367 -1.0718
 5959TIP3    H239293   2.390   1.780  10.863 -1.6254 -1.7653 -0.0391
 5960TIP3   OH239294   4.230   5.596  10.312 -0.0584 -0.1026 -0.0747
 5960TIP3    H139295   4.183   5.601  10.396  0.0219  1.2623 -0.0969
 5960TIP3    H239296   4.251   5.503  10.301 -1.3854 -0.5016  0.6952
 5961TIP3   OH239297   2.814   5.192  11.202 -0.3241 -0.3770 -0.4770
 5961TIP3    H139298   2.825   5.282  11.234 -0.1346 -0.5934  0.0708
 5961TIP3    H239299   2.902   5.164  11.178 -0.6229  0.1992 -2.3387
 5962TIP3   OH239300   7.002   0.600  12.967  0.6085 -0.3610  0.6656
 5962TIP3    H139301   7.019   0.517  12.923 -0.8785 -0.7948  0.8522
 5962TIP3    H239302   7.029   0.585  13.058  0.0432 -0.7612  0.7736
 5963TIP3   OH239303   4.494   4.925  13.594 -0.6880  0.7998  0.0477
 5963TIP3    H139304   4.484   4.905  13.500  0.8384  1.1009 -0.1973
 5963TIP3    H239305   4.406   4.916  13.630 -0.9489 -1.3113 -1.0382
 5964TIP3   OH239306   4.337   4.685  11.900  0.1160 -0.4161 -0.0042
 5964TIP3    H139307   4.264   4.625  11.880 -0.7477  0.3405  0.8143
 5964TIP3    H239308   4.330   4.753  11.832  0.1479 -0.4134 -0.0041
 5965TIP3   OH239309   5.353   6.342  13.118  0.4597  0.0172  0.2914
 5965TIP3    H139310   5.327   6.310  13.204 -1.0839  0.4101 -0.0111
 5965TIP3    H239311   5.359   6.436  13.129  0.9176  0.0025  0.1419
 5966TIP3   OH239312   3.855   0.267  13.102 -0.1399 -0.5100 -0.0231
 5966TIP3    H139313   3.885   0.210  13.172 -0.0107 -1.7074 -1.0287
 5966TIP3    H239314   3.890   0.353  13.124 -0.8388 -0.6895  1.8204
 5967TIP3   OH239315   4.512   6.347   0.018 -0.1098 -0.0979  0.1340
 5967TIP3    H139316   4.469   6.264  -0.006 -1.5273  0.3503  0.9978
 5967TIP3    H239317   4.440   6.411   0.018  0.6911  0.8043  1.0093
 5968TIP3   OH239318   5.159   5.390  11.852 -0.1819  0.1068  0.0778
 5968TIP3    H139319   5.097   5.319  11.872 -0.4701  0.2891 -0.1635
 5968TIP3    H239320   5.104   5.466  11.837  0.0345 -0.0114 -1.3319
 5969TIP3   OH239321   3.995   4.976  11.462 -0.1475  0.3051  0.0738
 5969TIP3    H139322   4.015   4.885  11.443 -0.4553  0.6452 -1.9303
 5969TIP3    H239323   4.044   4.995  11.542  0.6221 -1.3526  0.0050
 5970TIP3   OH239324   3.138   3.927  11.815  0.6820  0.2729  0.3357
 5970TIP3    H139325   3.164   3.955  11.903  0.8859 -1.7182  0.9256
 5970TIP3    H239326   3.079   3.854  11.830 -0.6816  1.0368 -1.1579
 5971TIP3   OH239327   3.663   6.191  14.873 -0.4546 -0.1702  0.0246
 5971TIP3    H139328   3.586   6.239  14.902 -0.4714  0.4450 -1.0098
 5971TIP3    H239329   3.736   6.235  14.915 -0.6066 -0.2912  0.4163
 5972TIP3   OH239330   1.746   6.318  13.508  0.0761 -1.1732 -0.0063
 5972TIP3    H139331   1.756   6.296  13.600 -2.5212 -1.4518  0.2413
 5972TIP3    H239332   1.814   6.268  13.464  0.4977 -2.0573  1.6151
 5973TIP3   OH239333   1.164   6.135  15.198 -0.5543  0.2680 -0.2555
 5973TIP3    H139334   1.212   6.205  15.153 -0.4226  0.2144 -0.2003
 5973TIP3    H239335   1.078   6.133  15.156  0.1831 -1.0277 -1.7694
 5974TIP3   OH239336   0.639   5.325  11.836 -0.0422 -0.0929 -0.5352
 5974TIP3    H139337   0.603   5.255  11.889 -0.0834  0.3178 -0.0175
 5974TIP3    H239338   0.733   5.307  11.833  0.0526  0.2728  0.2547
 5975TIP3   OH239339   2.272   4.654  12.500  0.3412 -0.7462  0.2979
 5975TIP3    H139340   2.183   4.639  12.531 -0.0137 -0.4538 -0.5652
 5975TIP3    H239341   2.266   4.731  12.444  1.5719  0.7061  2.1146
 5976TIP3   OH239342   0.866   6.173  15.157 -0.0397  0.0202 -0.5674
 5976TIP3    H139343   0.870   6.263  15.189  1.0537  0.3884 -1.7039
 5976TIP3    H239344   0.812   6.127  15.221  0.6828  1.1238  0.8553
 5977TIP3   OH239345   6.511   7.073  14.323 -0.1319  0.2874  0.3460
 5977TIP3    H139346   6.523   7.012  14.396  2.0894 -1.0107 -1.0434
 5977TIP3    H239347   6.471   7.020  14.254 -0.2514  0.9692 -0.1110
 5978TIP3   OH239348   6.942   5.311  14.990  0.3910  0.3066 -0.2082
 5978TIP3    H139349   6.879   5.261  14.938  1.5318 -1.8204  0.3765
 5978TIP3    H239350   7.011   5.334  14.927  0.2865  0.3734 -0.2978
 5979TIP3   OH239351   6.843   0.566  15.386  0.1475 -0.1435 -0.0846
 5979TIP3    H139352   6.933   0.577  15.417 -0.0408  1.5959 -0.1018
 5979TIP3    H239353   6.829   0.638  15.324 -1.1571 -0.5622 -0.3014
 5980TIP3   OH239354   1.774   5.448  11.990  0.4631 -0.0443  0.0038
 5980TIP3    H139355   1.720   5.368  11.986 -0.2809  0.5058 -1.2962
 5980TIP3    H239356   1.757   5.492  11.907  0.0000  2.0350  1.1774
 5981TIP3   OH239357   6.323   6.042  12.974  0.0932  0.3120 -0.5347
 5981TIP3    H139358   6.307   6.131  13.004 -0.1398 -0.4003  1.5891
 5981TIP3    H239359   6.244   6.018  12.925 -0.7944  0.5419  0.7440
 5982TIP3   OH239360   2.963   1.384  15.534  0.6555  0.3540 -0.4045
 5982TIP3    H139361   2.998   1.413  15.450  0.7328  0.9428 -0.1721
 5982TIP3    H239362   2.874   1.421  15.536  0.8034  0.6897 -0.0463
 5983TIP3   OH239363   2.227   4.478  15.132  0.0321  0.2737 -0.3249
 5983TIP3    H139364   2.291   4.416  15.098  0.0118  0.1126 -0.0637
 5983TIP3    H239365   2.171   4.497  15.056  0.1952  0.1749 -0.4719
 5984TIP3   OH239366   6.866   5.492  10.917  0.2609 -0.5657 -0.0667
 5984TIP3    H139367   6.894   5.464  10.829 -1.3909  1.6147 -1.3245
 5984TIP3    H239368   6.946   5.523  10.958  0.6454  0.7166 -1.7173
 5985TIP3   OH239369   4.192   0.742  12.129 -0.7161 -0.0271 -0.0287
 5985TIP3    H139370   4.109   0.699  12.151 -0.9126  0.3087 -0.1221
 5985TIP3    H239371   4.204   0.807  12.198 -0.1893 -0.5302  0.3682
 5986TIP3   OH239372   4.845   2.841  11.591 -0.5996  0.5046  0.8772
 5986TIP3    H139373   4.870   2.771  11.531 -0.0011  0.7084  0.8876
 5986TIP3    H239374   4.919   2.901  11.590  0.2334 -0.4277  3.2548
 5987TIP3   OH239375   0.252   0.768  10.475  0.9263  0.0414 -0.3006
 5987TIP3    H139376   0.330   0.725  10.510  1.3737  1.7900  0.9030
 5987TIP3    H239377   0.217   0.818  10.548 -0.1439  0.9311 -1.4012
 5988TIP3   OH239378   6.200   2.550  13.370 -0.6725  0.0216  0.5450
 5988TIP3    H139379   6.268   2.616  13.357 -2.6934  1.9596 -0.6529
 5988TIP3    H239380   6.247   2.469  13.384  1.8765  1.3362 -0.1229
 5989TIP3   OH239381   2.595   5.922   0.225 -0.4456  0.1984  0.1070
 5989TIP3    H139382   2.591   5.881   0.139  0.6425  1.7599 -0.7295
 5989TIP3    H239383   2.562   6.011   0.210 -1.3715  0.1039  1.5573
 5990TIP3   OH239384   4.133   6.167  11.214 -0.2464  0.3148 -0.4629
 5990TIP3    H139385   4.055   6.119  11.186  0.0621  0.7426 -2.1326
 5990TIP3    H239386   4.108   6.259  11.205 -0.5927  0.5064  2.0283
 5991TIP3   OH239387   4.418   5.708  11.033  0.2439  0.2192  0.1385
 5991TIP3    H139388   4.359   5.760  11.087 -0.5841 -1.4328  0.8761
 5991TIP3    H239389   4.375   5.702  10.948 -1.1353 -1.7500  0.9479
 5992TIP3   OH239390   3.894   7.160  10.847 -0.0021  0.4158 -0.2899
 5992TIP3    H139391   3.913   7.149  10.940  0.0215  0.2416 -0.3149
 5992TIP3    H239392   3.816   7.107  10.831  2.8966 -3.8094 -1.4291
 5993TIP3   OH239393   0.083   0.898  12.268 -0.3696  0.0421 -0.1669
 5993TIP3    H139394  -0.012   0.887  12.269 -0.1926 -1.6470 -0.2898
 5993TIP3    H239395   0.108   0.900  12.360 -0.2423 -2.3912 -0.1180
 5994TIP3   OH239396   3.330   5.839  12.391  0.5006 -0.3458  0.0095
 5994TIP3    H139397   3.324   5.745  12.371 -0.2611 -0.5589  1.2183
 5994TIP3    H239398   3.263   5.879  12.335 -1.6174 -0.9420  2.0429
 5995TIP3   OH239399   6.473   5.909  13.226 -0.2912 -0.5561 -0.0181
 5995TIP3    H139400   6.416   5.948  13.159  1.3549 -0.5803 -1.4493
 5995TIP3    H239401   6.515   5.984  13.268 -2.6525 -0.4292  2.2575
 5996TIP3   OH239402   0.758   1.921  14.104  0.1735 -0.0012  0.1138
 5996TIP3    H139403   0.743   1.856  14.036 -0.3966 -0.3741  0.5934
 5996TIP3    H239404   0.674   1.965  14.115  0.0742 -0.4163  1.0720
 5997TIP3   OH239405   1.787   0.032  13.352 -0.4251 -0.4024 -0.7901
 5997TIP3    H139406   1.874   0.008  13.385 -0.7952  1.1594  1.4684
 5997TIP3    H239407   1.803   0.059  13.262  1.5362  0.2561 -0.2880
 5998TIP3   OH239408   1.573   4.693  14.505 -0.3203 -0.2339 -0.0972
 5998TIP3    H139409   1.626   4.742  14.442  1.3954 -1.3422  0.4718
 5998TIP3    H239410   1.630   4.679  14.580 -1.8534 -0.2769  1.0923
 5999TIP3   OH239411   2.568   1.374  12.368  0.0606 -0.3544 -0.0848
 5999TIP3    H139412   2.546   1.295  12.317  2.0122 -0.4563 -0.8338
 5999TIP3    H239413   2.559   1.446  12.305 -0.4329 -0.1303  0.2420
 6000TIP3   OH239414   5.613   2.620  12.645 -0.5003 -0.3400 -0.2284
 6000TIP3    H139415   5.692   2.656  12.605  0.4254  0.9000  2.6424
 6000TIP3    H239416   5.593   2.543  12.592  0.2587  1.5756 -3.5029
 6001TIP3   OH239417   3.341   6.930  13.201 -0.2749  0.2016 -1.1091
 6001TIP3    H139418   3.376   6.928  13.290  1.8142 -0.2851 -1.8988
 6001TIP3    H239419   3.328   7.024  13.183 -1.6156  0.2452  0.0288
 6002TIP3   OH239420   5.229   1.197  12.296 -0.0167  0.2390  0.2811
 6002TIP3    H139421   5.290   1.188  12.369 -0.1562  1.0786  0.5078
 6002TIP3    H239422   5.186   1.282  12.311 -1.1961 -0.3162  0.1021
 6003TIP3   OH239423   0.869   1.439  12.745  0.0626 -0.4338 -0.1776
 6003TIP3    H139424   0.939   1.377  12.725 -1.3337 -1.1017 -3.2060
 6003TIP3    H239425   0.792   1.384  12.764 -0.4711  0.3309 -0.0761
 6004TIP3   OH239426   4.742   3.302  12.471  0.0232  0.5213  0.6032
 6004TIP3    H139427   4.661   3.297  12.522 -1.1542 -0.8900 -1.3951
 6004TIP3    H239428   4.716   3.337  12.386  1.2256 -1.5476 -0.6499
 6005TIP3   OH239429   4.811   1.946  11.221  0.2250 -0.7063 -0.0942
 6005TIP3    H139430   4.794   1.974  11.131  0.5322  0.8878  0.3295
 6005TIP3    H239431   4.902   1.917  11.222 -0.3089 -2.5195 -0.7086
 6006TIP3   OH239432   6.527   4.845  13.476 -0.1815 -0.1418  0.2097
 6006TIP3    H139433   6.509   4.849  13.382  2.5406 -0.2457 -0.3617
 6006TIP3    H239434   6.619   4.872  13.484 -0.9935  1.9858  3.0748
 6007TIP3   OH239435   0.932   6.166  10.714 -0.5257 -0.2715 -0.0486
 6007TIP3    H139436   0.957   6.096  10.774  0.0066 -1.1284 -1.2289
 6007TIP3    H239437   0.860   6.129  10.663 -1.4803  0.7148  0.5638
 6008TIP3   OH239438   3.047   2.122  14.963  0.1274 -0.0880  0.2007
 6008TIP3    H139439   3.005   2.207  14.948 -2.1964 -1.3426 -0.5322
 6008TIP3    H239440   3.111   2.114  14.891  0.2956  0.9942  0.2230
 6009TIP3   OH239441   4.746   5.386   1.140  0.5717 -0.8582 -0.4561
 6009TIP3    H139442   4.775   5.443   1.212 -1.1430  0.0209 -0.4459
 6009TIP3    H239443   4.823   5.380   1.083  1.3414  0.0177  0.4535
 6010TIP3   OH239444   2.593   5.789  15.180 -0.0392  0.1044 -0.2760
 6010TIP3    H139445   2.628   5.711  15.224  0.6965  0.5062 -0.1455
 6010TIP3    H239446   2.535   5.829  15.245  1.2627  0.8488  0.4405
 6011TIP3   OH239447   1.843   5.098  12.236  0.6255  0.0480  0.2502
 6011TIP3    H139448   1.898   5.020  12.226 -1.0969 -1.3712  1.3908
 6011TIP3    H239449   1.849   5.143  12.152  1.5418 -1.4067 -0.4872
 6012TIP3   OH239450   1.276   5.026  12.430  0.3072 -0.6619  0.5253
 6012TIP3    H139451   1.363   5.065  12.426 -0.2558  0.6300  0.5318
 6012TIP3    H239452   1.287   4.938  12.394  1.3738 -0.0656 -0.6473
 6013TIP3   OH239453   6.135   5.303  14.257 -0.2537 -0.1408 -0.3543
 6013TIP3    H139454   6.048   5.342  14.247 -0.4952 -0.9575 -1.4557
 6013TIP3    H239455   6.130   5.253  14.339 -0.7109  0.1050 -0.2334
 6014TIP3   OH239456   4.052   2.379  15.449  0.2220 -0.3664  0.4078
 6014TIP3    H139457   4.111   2.329  15.505 -1.4054 -1.0849  1.5048
 6014TIP3    H239458   4.071   2.348  15.360  1.6087 -0.4460  0.7161
 6015TIP3   OH239459   1.594   1.792   9.782 -0.2730  0.0045 -0.2597
 6015TIP3    H139460   1.520   1.827   9.832 -0.4211  1.9872 -1.7603
 6015TIP3    H239461   1.553   1.747   9.708 -0.0165  0.9868 -1.0171
 6016TIP3   OH239462   4.101   3.411  11.499 -0.1372  0.3207  0.0573
 6016TIP3    H139463   4.113   3.445  11.410  2.2657  3.2443  1.4196
 6016TIP3    H239464   4.158   3.334  11.503 -2.1649 -1.3408 -1.6403
 6017TIP3   OH239465   4.492   2.606  10.514 -0.2459  0.1186  0.3767
 6017TIP3    H139466   4.425   2.674  10.525 -0.6327 -0.4783  1.9105
 6017TIP3    H239467   4.483   2.577  10.423 -0.8265  1.3331  0.0424
 6018TIP3   OH239468   1.711   6.330  13.180  0.0349 -0.1046  0.0639
 6018TIP3    H139469   1.629   6.353  13.224  0.8541  0.3304  1.4091
 6018TIP3    H239470   1.765   6.409  13.187  1.3050 -1.0253  0.9712
 6019TIP3   OH239471   6.140   2.962  13.774 -0.7268  0.3331  0.1135
 6019TIP3    H139472   6.174   2.886  13.820 -0.0791  1.1538  0.9973
 6019TIP3    H239473   6.170   2.951  13.684 -1.5388 -0.9957 -0.0211
 6020TIP3   OH239474   4.547   6.836  14.323 -0.2816 -0.5463 -0.4725
 6020TIP3    H139475   4.493   6.813  14.248 -0.6019  0.5717 -0.5935
 6020TIP3    H239476   4.554   6.755  14.373 -0.3226 -1.2203 -1.5390
 6021TIP3   OH239477   1.110   5.763  12.617  0.1224  0.3118 -0.3239
 6021TIP3    H139478   1.201   5.734  12.611 -0.1136 -0.2975 -1.1238
 6021TIP3    H239479   1.073   5.715  12.691  1.1561  2.5497  1.7146
 6022TIP3   OH239480   6.425   2.321  13.692 -0.2988 -0.1528  0.3435
 6022TIP3    H139481   6.514   2.335  13.660 -0.3659  0.1114  0.2677
 6022TIP3    H239482   6.431   2.243  13.747 -0.4230 -1.2869 -1.2390
 6023TIP3   OH239483   0.709   0.818  12.492  0.3735  0.3602  0.0657
 6023TIP3    H139484   0.800   0.790  12.502  0.8865  2.0555  0.2058
 6023TIP3    H239485   0.708   0.908  12.524 -1.2207  0.5651 -0.5370
 6024TIP3   OH239486   2.106   4.518  13.664  0.0867 -0.5633  0.3507
 6024TIP3    H139487   2.128   4.553  13.577 -0.5541 -0.4971  0.2091
 6024TIP3    H239488   2.012   4.501  13.659  0.1747 -1.1850  0.8128
 6025TIP3   OH239489   0.632   1.140  12.474 -0.1384 -0.2089 -0.6151
 6025TIP3    H139490   0.552   1.098  12.507 -0.3519  1.8531  1.6279
 6025TIP3    H239491   0.641   1.219  12.526 -0.2349  3.1148 -5.3166
 6026TIP3   OH239492   3.085   4.813  13.448  0.3187 -0.0192 -0.6154
 6026TIP3    H139493   3.139   4.735  13.434  0.9797  0.5728 -1.3829
 6026TIP3    H239494   3.014   4.805  13.384  0.0870 -0.2546 -0.3316
 6027TIP3   OH239495   7.139   6.486   3.266 -0.0992  0.4782 -0.1616
 6027TIP3    H139496   7.062   6.476   3.323 -0.4480  0.1677 -0.6785
 6027TIP3    H239497   7.206   6.431   3.306 -0.4227  0.0595 -0.1872
 6028TIP3   OH239498   2.878   6.611  10.432  0.3721  0.0569  0.7984
 6028TIP3    H139499   2.806   6.621  10.370  1.0071  0.7788  0.1664
 6028TIP3    H239500   2.868   6.685  10.491  0.8077  0.3659  0.4881
 6029TIP3   OH239501   3.329   2.642  14.971 -0.5425  0.3086  0.8756
 6029TIP3    H139502   3.409   2.676  15.012 -0.3756  0.4552  0.4282
 6029TIP3    H239503   3.309   2.705  14.902 -0.9803  0.2081  0.9078
 6030TIP3   OH239504   6.171   4.357   9.940  0.0130 -0.3100  0.4298
 6030TIP3    H139505   6.108   4.419   9.904 -0.7002 -1.4065 -0.2117
 6030TIP3    H239506   6.187   4.389  10.029 -0.8649  0.4019  0.3406
 6031TIP3   OH239507   3.317   1.907  12.879  0.2975  0.0014 -0.7010
 6031TIP3    H139508   3.226   1.902  12.851 -0.6805  0.2936  2.2774
 6031TIP3    H239509   3.356   1.974  12.821 -1.6286  0.6462 -1.2981
 6032TIP3   OH239510   4.479   4.363  14.709 -0.2567  0.0613  0.1393
 6032TIP3    H139511   4.431   4.316  14.778 -0.2404 -1.5747 -0.9412
 6032TIP3    H239512   4.446   4.326  14.627  1.3299  0.4132 -0.6830
 6033TIP3   OH239513   3.582   4.822  13.555 -0.1161  0.3973 -0.1088
 6033TIP3    H139514   3.612   4.911  13.573 -2.3673  1.1443  0.1133
 6033TIP3    H239515   3.519   4.832  13.484 -0.8307 -0.9625  0.3201
 6034TIP3   OH239516   3.920   4.569  13.841 -0.3616 -0.1336  0.0249
 6034TIP3    H139517   3.854   4.636  13.825  0.2391  0.4895  0.1319
 6034TIP3    H239518   3.908   4.545  13.933  1.6575  2.3092  0.9771
 6035TIP3   OH239519   5.126   0.868  11.063 -0.1315 -0.4262  0.1016
 6035TIP3    H139520   5.067   0.943  11.064  0.3122 -0.0729  0.1251
 6035TIP3    H239521   5.072   0.795  11.032 -1.0051 -0.4664  1.6675
 6036TIP3   OH239522   4.311   0.747  11.372 -0.3860  0.0927  0.6884
 6036TIP3    H139523   4.322   0.757  11.467 -0.7460  2.2132  0.5213
 6036TIP3    H239524   4.334   0.655  11.355  0.6911 -0.0264  2.6717
 6037TIP3   OH239525   6.641   5.630  12.592 -0.4602  0.4735  0.0605
 6037TIP3    H139526   6.627   5.699  12.527  0.7649  0.0998 -0.6133
 6037TIP3    H239527   6.713   5.662  12.647 -0.7141  0.2756  0.5097
 6038TIP3   OH239528   2.388   1.677  11.830  0.4206  0.6204  0.1678
 6038TIP3    H139529   2.336   1.597  11.839 -1.1887  1.6290  0.0065
 6038TIP3    H239530   2.415   1.698  11.919  1.7804 -0.6976  0.0837
 6039TIP3   OH239531   1.509   4.282  12.405 -0.2398  0.4840 -0.8932
 6039TIP3    H139532   1.603   4.297  12.400 -0.0748 -0.1304  0.1946
 6039TIP3    H239533   1.475   4.313  12.321  0.8432  1.3224 -1.0331
 6040TIP3   OH239534   0.781   5.062  10.914 -0.3555 -0.5852  0.6830
 6040TIP3    H139535   0.837   5.113  10.856 -0.7670 -0.2175  0.6078
 6040TIP3    H239536   0.839   4.995  10.950 -0.2802 -1.3068 -0.7540
 6041TIP3   OH239537   3.395   0.036  13.110  0.0179 -0.6757 -0.7344
 6041TIP3    H139538   3.380  -0.021  13.034  2.3177 -2.5993  0.2167
 6041TIP3    H239539   3.463   0.096  13.081 -1.0366  0.3931 -1.0699
 6042TIP3   OH239540   0.563   5.038  11.349  0.2377  0.7250 -0.0104
 6042TIP3    H139541   0.505   4.976  11.393 -0.3568  0.9961 -0.4044
 6042TIP3    H239542   0.538   5.124  11.384 -0.8921  1.0469 -1.5494
 6043TIP3   OH239543   6.361   1.862  15.383  0.7810 -0.2331  0.5122
 6043TIP3    H139544   6.391   1.953  15.381  0.2246 -0.0769 -2.4455
 6043TIP3    H239545   6.429   1.813  15.337  0.3132 -1.0855  0.7195
 6044TIP3   OH239546   4.045   6.623  12.569 -0.1735  0.8498 -0.3796
 6044TIP3    H139547   4.001   6.640  12.652 -0.4941  2.5523 -0.8536
 6044TIP3    H239548   4.124   6.676  12.572  0.7170 -0.4634 -0.4421
 6045TIP3   OH239549   6.353   4.803  11.181 -0.3006 -0.4422  0.5201
 6045TIP3    H139550   6.381   4.848  11.261 -1.7319  0.2114  0.6634
 6045TIP3    H239551   6.259   4.789  11.192 -0.6746  0.3668 -1.3996
 6046TIP3   OH239552   0.154   5.492  13.523 -0.8375  0.0342  0.4520
 6046TIP3    H139553   0.162   5.428  13.452  1.0547 -0.6858  1.2709
 6046TIP3    H239554   0.207   5.566  13.494  0.6639 -0.6176  1.4691
 6047TIP3   OH239555   4.949   3.799  12.035  0.3012  0.0066 -0.3629
 6047TIP3    H139556   4.883   3.769  11.973  1.0640 -1.5973 -0.4333
 6047TIP3    H239557   4.911   3.877  12.075 -0.4305  0.7553 -2.4525
 6048TIP3   OH239558   0.169   6.695   9.747  0.1872 -0.3999  0.1403
 6048TIP3    H139559   0.219   6.613   9.747 -0.1904 -0.6450 -1.4216
 6048TIP3    H239560   0.086   6.672   9.707 -1.1393  0.0503  2.5587
 6049TIP3   OH239561   1.761   6.073  12.254 -0.4537  0.0878 -0.1846
 6049TIP3    H139562   1.669   6.094  12.269 -0.7768 -1.8420  0.7539
 6049TIP3    H239563   1.786   6.021  12.330  0.6612 -1.6346 -1.6894
 6050TIP3   OH239564   0.113   2.763  13.533  0.4257  0.4123 -0.5499
 6050TIP3    H139565   0.041   2.793  13.588 -0.2828  1.1024 -1.8348
 6050TIP3    H239566   0.073   2.743  13.449  1.8306  1.5400 -1.5259
 6051TIP3   OH239567   0.025   4.256  11.795  0.0356 -0.0728  0.2121
 6051TIP3    H139568   0.091   4.264  11.864 -0.8239  1.9847  0.8244
 6051TIP3    H239569   0.074   4.262  11.713  0.5834  1.6175  0.6618
 6052TIP3   OH239570   1.380   3.742  11.039  0.8247 -0.0483 -0.5150
 6052TIP3    H139571   1.348   3.824  11.076  1.6446 -0.1613  0.4686
 6052TIP3    H239572   1.457   3.721  11.091  0.0401 -1.9813 -0.0880
 6053TIP3   OH239573   0.980   4.213  11.012 -0.3920  0.3101  0.2436
 6053TIP3    H139574   0.978   4.307  10.996  1.2886  0.1718 -0.8478
 6053TIP3    H239575   0.906   4.178  10.963 -0.1139  0.8861 -0.5935
 6054TIP3   OH239576   6.001   6.330  11.921  0.8497 -0.0406 -0.5796
 6054TIP3    H139577   5.956   6.403  11.879 -0.4157 -0.7721 -0.5435
 6054TIP3    H239578   6.033   6.366  12.004 -1.0398  0.1209  0.1144
 6055TIP3   OH239579   3.184   7.004  12.702 -0.7058  0.1614  0.4960
 6055TIP3    H139580   3.160   7.034  12.614 -0.5613 -1.1702 -0.0124
 6055TIP3    H239581   3.102   7.006  12.752 -1.3851 -1.7463 -0.4686
 6056TIP3   OH239582   6.534   4.257  11.624  0.3153  0.0341 -0.3153
 6056TIP3    H139583   6.535   4.332  11.565  0.4078  0.7027  0.5195
 6056TIP3    H239584   6.561   4.183  11.570  1.6340  0.8655 -0.8132
 6057TIP3   OH239585   6.186   0.016  13.515  0.4667 -0.1824 -0.7204
 6057TIP3    H139586   6.104   0.028  13.467  0.7699 -0.0112 -1.2065
 6057TIP3    H239587   6.229   0.101  13.512  1.2116 -0.5710 -1.5240
 6058TIP3   OH239588   4.127   6.335  15.496  0.5285 -0.4125  0.3407
 6058TIP3    H139589   4.042   6.324  15.538  0.3303  1.0098  0.3407
 6058TIP3    H239590   4.170   6.406  15.546  1.4395 -0.6667 -0.0628
 6059TIP3   OH239591   5.438   6.593  14.476 -0.2792 -0.3843 -0.9417
 6059TIP3    H139592   5.482   6.673  14.447 -0.2087 -0.3556 -0.7573
 6059TIP3    H239593   5.375   6.623  14.542  2.7327 -0.9607  2.3412
 6060TIP3   OH239594   5.647   6.510   1.910 -0.3264  0.0031  0.2048
 6060TIP3    H139595   5.575   6.521   1.972 -1.3344 -1.1911 -0.7372
 6060TIP3    H239596   5.660   6.415   1.905  1.0359  0.1877  0.0434
 6061TIP3   OH239597   6.417   6.637  14.605  0.8419  0.1629  0.4138
 6061TIP3    H139598   6.402   6.548  14.636  2.2325 -1.2599 -2.7656
 6061TIP3    H239599   6.331   6.678  14.606  0.3217 -0.9083  2.7384
 6062TIP3   OH239600   4.885   2.259  11.904 -0.1781 -0.4222 -0.0583
 6062TIP3    H139601   4.942   2.184  11.884 -1.7289 -1.7550  0.3271
 6062TIP3    H239602   4.855   2.242  11.993 -1.3785  0.1124 -0.3589
 6063TIP3   OH239603   5.913   2.492  15.039 -0.4134  0.4438  0.0059
 6063TIP3    H139604   5.943   2.411  15.081 -0.0094  0.7801  0.3722
 6063TIP3    H239605   5.979   2.510  14.972 -1.8940 -0.9598 -1.8905
 6064TIP3   OH239606   5.792   0.935  11.204 -0.1940  0.2366 -0.0195
 6064TIP3    H139607   5.856   0.946  11.274 -0.1016 -1.5715  0.2053
 6064TIP3    H239608   5.707   0.933  11.248 -0.4928  3.3413 -0.3832
 6065TIP3   OH239609   2.793   0.650   0.352  0.1220  0.3007  0.2118
 6065TIP3    H139610   2.745   0.707   0.292 -2.0592 -1.9602 -0.2864
 6065TIP3    H239611   2.766   0.679   0.439 -0.9706  0.0815 -0.0434
 6066TIP3   OH239612   4.896   4.017  11.822 -0.3294  0.0273  0.1514
 6066TIP3    H139613   4.836   4.008  11.748 -0.2241  0.0077  0.0685
 6066TIP3    H239614   4.945   4.097  11.805 -0.0694 -0.1572  0.0295
 6067TIP3   OH239615   4.167   3.731  12.331 -0.2264  0.0804 -0.4678
 6067TIP3    H139616   4.142   3.694  12.415  0.3891  0.1488 -0.2596
 6067TIP3    H239617   4.129   3.671  12.266 -0.2556 -0.2496 -0.1411
 6068TIP3   OH239618   4.733   4.468  14.757  0.3978  0.0437  0.1667
 6068TIP3    H139619   4.650   4.482  14.711  0.4042  0.9331  0.4154
 6068TIP3    H239620   4.748   4.374  14.751 -0.1947 -0.0050 -0.6342
 6069TIP3   OH239621   1.070   3.278  11.721  0.0104  0.3437 -0.2410
 6069TIP3    H139622   1.108   3.191  11.737 -0.9348 -0.3400 -1.6001
 6069TIP3    H239623   1.051   3.279  11.627 -1.1803  1.5322 -0.0049
 6070TIP3   OH239624   0.322   7.081  12.521 -0.3927 -0.3064  0.2078
 6070TIP3    H139625   0.397   7.094  12.464 -2.3622 -2.3533 -2.9931
 6070TIP3    H239626   0.264   7.155  12.503 -0.3602 -0.1629  0.6747
 6071TIP3   OH239627   5.179   0.897   1.533 -0.4122  0.1017  0.2336
 6071TIP3    H139628   5.183   0.804   1.557  0.6493  0.0307 -0.2113
 6071TIP3    H239629   5.264   0.916   1.494 -0.6806  1.2287  0.1739
 6072TIP3   OH239630   2.393   3.323  14.029  0.3601  0.1219  0.1902
 6072TIP3    H139631   2.322   3.349  14.088  1.7433  2.4404  0.9223
 6072TIP3    H239632   2.360   3.342  13.942 -0.1731  0.6345  0.4952
 6073TIP3   OH239633   6.971   0.604  11.862 -0.3606  0.3909 -0.3222
 6073TIP3    H139634   7.043   0.666  11.871 -1.0544  1.3886 -1.3252
 6073TIP3    H239635   6.907   0.651  11.808 -0.1360 -1.8624 -2.6547
 6074TIP3   OH239636   3.085   1.050  14.253  0.1548 -0.2631  0.1061
 6074TIP3    H139637   3.148   0.979  14.239 -1.1959 -1.7017  1.2429
 6074TIP3    H239638   3.040   1.027  14.334 -0.8882  1.4661  0.0350
 6075TIP3   OH239639   0.001   6.306  13.968 -0.2479 -0.4915 -0.3212
 6075TIP3    H139640   0.075   6.352  13.928 -1.3299  1.2262 -0.3839
 6075TIP3    H239641  -0.005   6.341  14.056 -1.4147 -0.1116 -0.5427
 6076TIP3   OH239642   5.035   1.391  12.357  0.1853 -0.0894  0.0028
 6076TIP3    H139643   5.071   1.473  12.324  0.9063 -0.2144  0.4805
 6076TIP3    H239644   4.958   1.417  12.408  0.4830  0.2976  0.2563
 6077TIP3   OH239645   6.969   5.188  11.426 -0.2930 -0.8441  0.7521
 6077TIP3    H139646   6.960   5.093  11.423 -0.3237 -0.8849  1.9803
 6077TIP3    H239647   6.939   5.212  11.513 -0.6082  0.3325  0.3232
 6078TIP3   OH239648   6.105   2.788   0.545  0.0058 -0.1353 -0.7516
 6078TIP3    H139649   6.169   2.747   0.602  0.0025 -0.6143 -1.0889
 6078TIP3    H239650   6.109   2.881   0.567 -0.5903 -0.4196  0.6109
 6079TIP3   OH239651   1.563   4.467  11.215 -0.6349 -0.1433  0.3241
 6079TIP3    H139652   1.548   4.383  11.173  0.9274 -0.5329  0.5029
 6079TIP3    H239653   1.500   4.469  11.288 -0.5644 -1.2273  0.4225
 6080TIP3   OH239654   1.333   0.630  11.053  0.0933  0.2356 -0.5761
 6080TIP3    H139655   1.247   0.594  11.075  0.0708  0.3660 -0.4501
 6080TIP3    H239656   1.380   0.631  11.136  0.5791 -0.8103 -0.8331
 6081TIP3   OH239657   4.799   2.012  10.508 -0.6668  0.1826 -0.7777
 6081TIP3    H139658   4.714   2.003  10.465 -0.6630  0.8640 -0.9325
 6081TIP3    H239659   4.786   2.082  10.572  0.0656  1.0122 -1.5265
 6082TIP3   OH239660   4.915   4.985  15.184  0.4880 -0.0930  0.4590
 6082TIP3    H139661   4.860   4.911  15.160 -2.4013  2.1437 -0.0778
 6082TIP3    H239662   4.888   5.055  15.124  2.4482  1.7008  1.6126
 6083TIP3   OH239663   5.856   0.406  12.439 -0.2678  0.0488  0.1596
 6083TIP3    H139664   5.837   0.396  12.532 -0.0432 -2.1168  0.0042
 6083TIP3    H239665   5.939   0.453  12.436 -0.6626  0.8213  1.0213
 6084TIP3   OH239666   6.980   5.105  10.078  0.1332  0.6515 -0.4680
 6084TIP3    H139667   7.026   5.146  10.151 -0.0344 -0.7873  0.4695
 6084TIP3    H239668   6.888   5.131  10.090 -0.2390 -1.1769  1.0148
 6085TIP3   OH239669   5.631   6.181  13.698  0.0879 -0.8119  0.3288
 6085TIP3    H139670   5.631   6.274  13.679  1.8362 -0.5387  1.5823
 6085TIP3    H239671   5.602   6.175  13.789 -0.4259 -1.5173  0.1228
 6086TIP3   OH239672   3.407   0.774  10.284 -0.9125 -0.1443  0.8010
 6086TIP3    H139673   3.410   0.862  10.322 -1.4176 -0.3198  1.2554
 6086TIP3    H239674   3.474   0.774  10.216 -2.1004  1.1567 -0.4037
 6087TIP3   OH239675   2.987   6.509  11.600 -0.2017 -0.4707 -0.1827
 6087TIP3    H139676   3.010   6.596  11.568 -0.7577  0.1183  0.9782
 6087TIP3    H239677   2.894   6.499  11.581 -0.2583 -0.5997  0.1458
 6088TIP3   OH239678   6.132   5.463  10.120  0.3283 -0.3405  0.0780
 6088TIP3    H139679   6.060   5.493  10.176  0.1623 -1.7752  0.6495
 6088TIP3    H239680   6.153   5.376  10.153  1.9931 -0.1361 -0.4197
 6089TIP3   OH239681   4.042   5.889   0.608  0.0908  0.5294 -0.0028
 6089TIP3    H139682   4.056   5.980   0.635  2.4243 -0.1848  1.2423
 6089TIP3    H239683   4.118   5.868   0.554  0.2726 -1.1320  0.8870
 6090TIP3   OH239684   1.694   0.295  12.341 -0.1506  0.0733 -0.9989
 6090TIP3    H139685   1.665   0.214  12.383 -0.8630  1.0768  0.4694
 6090TIP3    H239686   1.736   0.266  12.260 -0.0738 -1.7874 -0.3160
 6091TIP3   OH239687   4.702   7.086  13.974 -0.3703 -0.4570  0.1786
 6091TIP3    H139688   4.728   7.110  13.885 -0.1984  0.2892  0.4234
 6091TIP3    H239689   4.654   7.004  13.964  1.3984 -1.4468 -0.3667
 6092TIP3   OH239690   5.600   2.320  10.507 -0.6558  0.2222 -0.3943
 6092TIP3    H139691   5.532   2.296  10.444 -0.7616  0.0130 -0.1980
 6092TIP3    H239692   5.577   2.410  10.533 -0.7862  0.1966 -0.4210
 6093TIP3   OH239693   4.276   0.819  10.203 -0.3101 -0.1377  0.0185
 6093TIP3    H139694   4.249   0.761  10.132 -1.6083  0.2948  0.1495
 6093TIP3    H239695   4.228   0.788  10.280  1.9931 -1.3655  1.0227
 6094TIP3   OH239696   1.077   4.338  12.868 -0.4755 -0.4906 -0.5101
 6094TIP3    H139697   1.062   4.432  12.871 -1.3054 -0.6269 -0.0390
 6094TIP3    H239698   1.112   4.322  12.780  0.5236  0.3676 -0.2712
 6095TIP3   OH239699   2.588   4.213  14.797 -0.0426  0.3199 -0.4178
 6095TIP3    H139700   2.581   4.272  14.722  0.1813 -1.2644 -1.6939
 6095TIP3    H239701   2.674   4.233  14.835 -0.1509  1.1153 -0.5702
 6096TIP3   OH239702   2.545   2.564  13.183 -0.0209  0.5768  0.2622
 6096TIP3    H139703   2.634   2.556  13.216 -0.0010 -1.4131 -0.1532
 6096TIP3    H239704   2.537   2.492  13.119 -1.6182  1.2934 -0.3834
 6097TIP3   OH239705   6.596   6.501  11.522 -0.5378  0.2778 -0.0968
 6097TIP3    H139706   6.548   6.502  11.604  1.5592  0.5741  1.1694
 6097TIP3    H239707   6.613   6.408  11.506  2.0342  0.3940  1.6547
 6098TIP3   OH239708   3.352   1.773  12.402 -0.0643 -0.1947 -0.5036
 6098TIP3    H139709   3.380   1.690  12.365 -0.8487 -0.6912 -0.0073
 6098TIP3    H239710   3.300   1.814  12.333 -0.3611 -0.4872 -0.4550
 6099TIP3   OH239711   2.083   0.942  14.858  0.9394  0.6606 -0.3433
 6099TIP3    H139712   2.025   0.873  14.893  0.0066  1.7549  0.3070
 6099TIP3    H239713   2.067   0.940  14.764 -1.3110  1.9299 -0.0379
 6100TIP3   OH239714   4.793   6.308   1.244  0.1616 -0.6854  0.2993
 6100TIP3    H139715   4.825   6.279   1.159 -1.8478 -1.0693 -0.3529
 6100TIP3    H239716   4.793   6.229   1.298  0.5379 -0.6355  0.3722
 6101TIP3   OH239717   1.232   3.282  12.529 -0.3835 -0.8361  0.2516
 6101TIP3    H139718   1.257   3.231  12.452 -1.6108  0.5990 -1.1280
 6101TIP3    H239719   1.143   3.253  12.548 -0.7277  0.0962  0.0470
 6102TIP3   OH239720   4.582   1.673  11.637 -0.1106 -0.0980  0.1436
 6102TIP3    H139721   4.540   1.718  11.710  0.1054 -0.6227  0.5946
 6102TIP3    H239722   4.558   1.724  11.560 -0.2827  0.4961  0.5921
 6103TIP3   OH239723   3.952   1.937   0.243 -0.1236  0.1090  0.2553
 6103TIP3    H139724   4.015   1.866   0.251 -0.2156  0.0730  0.7039
 6103TIP3    H239725   4.003   2.017   0.251  0.1679  0.1318 -1.5850
 6104TIP3   OH239726   2.287   4.905  13.701 -0.0983  0.6823  0.3044
 6104TIP3    H139727   2.280   4.916  13.796  0.9397  2.4484  0.2063
 6104TIP3    H239728   2.300   4.994  13.668  0.1864  0.0135 -1.4344
 6105TIP3   OH239729   0.401   5.468  13.054 -0.1449 -0.3940  1.1032
 6105TIP3    H139730   0.346   5.545  13.040 -1.2212 -0.9822  2.0089
 6105TIP3    H239731   0.487   5.504  13.074 -0.1713  0.5412 -0.3855
 6106TIP3   OH239732   5.540   0.763  11.933 -0.1982  0.1842 -0.6167
 6106TIP3    H139733   5.496   0.763  11.847 -0.7132 -0.7339 -0.3630
 6106TIP3    H239734   5.471   0.737  11.994  0.3038  0.3265  0.0037
 6107TIP3   OH239735   0.778   3.664  12.939  0.0576 -0.3047  0.2706
 6107TIP3    H139736   0.837   3.600  12.978  0.8797  0.5637  0.4768
 6107TIP3    H239737   0.698   3.658  12.990 -0.2010 -1.8292 -0.3137
 6108TIP3   OH239738   3.051   4.239  12.267  0.0051  0.5043  0.3370
 6108TIP3    H139739   3.059   4.331  12.244 -0.9815  0.7750  1.0239
 6108TIP3    H239740   2.965   4.232  12.309  0.6871 -0.4464  1.6106
 6109TIP3   OH239741   5.822   3.248  10.995 -0.5338 -0.1261  0.0591
 6109TIP3    H139742   5.830   3.174  10.935  0.3374  0.7623 -0.9709
 6109TIP3    H239743   5.898   3.240  11.053 -1.4711 -1.0807  1.1556
 6110TIP3   OH239744   2.196   1.953  13.853  0.0961  0.0291 -0.4954
 6110TIP3    H139745   2.126   1.996  13.902  1.3105  1.1231  0.2967
 6110TIP3    H239746   2.269   2.014  13.856  1.2408 -1.2943 -0.9355
 6111TIP3   OH239747   4.242   6.824  10.588  0.1484 -0.3925  0.6539
 6111TIP3    H139748   4.248   6.733  10.558  0.7918 -0.5265  1.1943
 6111TIP3    H239749   4.245   6.818  10.683 -0.4672  0.1481  0.7061
 6112TIP3   OH239750   0.825   4.640  12.808 -0.6481 -0.5739 -0.0570
 6112TIP3    H139751   0.835   4.681  12.722 -1.2272 -2.0346 -0.8370
 6112TIP3    H239752   0.901   4.668  12.858  0.0445 -0.2754 -1.2782
 6113TIP3   OH239753   6.047   2.399  13.186  0.1044  0.5770  0.4558
 6113TIP3    H139754   6.054   2.306  13.208 -0.7204  0.7280  1.4060
 6113TIP3    H239755   6.112   2.441  13.242  2.0051  0.3649 -1.5120
 6114TIP3   OH239756   4.095   1.990  14.827  0.5333  0.0513 -0.1389
 6114TIP3    H139757   4.101   1.990  14.731  2.3836  1.8436 -0.0541
 6114TIP3    H239758   4.028   2.055  14.846 -0.9151 -1.3843 -0.2434
 6115TIP3   OH239759   2.163   5.626  12.713  0.4581 -0.1104 -0.0217
 6115TIP3    H139760   2.120   5.703  12.751  0.2678 -0.5474  0.6590
 6115TIP3    H239761   2.098   5.556  12.721  1.1258 -0.6629  0.5999
 6116TIP3   OH239762   4.360   6.898  15.106 -0.0782  0.2778 -0.3196
 6116TIP3    H139763   4.373   6.818  15.055  1.9018 -0.6725  1.5860
 6116TIP3    H239764   4.437   6.952  15.085  0.4082  0.1557  1.1261
 6117TIP3   OH239765   2.697   3.161  11.247  0.0579  0.7131  0.2711
 6117TIP3    H139766   2.648   3.242  11.232 -2.9745 -1.0943 -0.1649
 6117TIP3    H239767   2.707   3.156  11.342 -0.9528  0.9311  0.3940
 6118TIP3   OH239768   3.124   0.147  10.642 -0.4414 -0.0766 -0.2610
 6118TIP3    H139769   3.130   0.226  10.696 -0.2035  0.6456 -1.3209
 6118TIP3    H239770   3.033   0.144  10.615 -0.4128 -0.0708 -0.3568
 6119TIP3   OH239771   2.486   2.339  13.036  0.6924 -0.0695 -0.0125
 6119TIP3    H139772   2.432   2.262  13.057  0.9475 -0.0626  0.6603
 6119TIP3    H239773   2.461   2.361  12.946  0.6572 -0.9702 -0.2290
 6120TIP3   OH239774   2.326   5.103  13.017  0.5796  0.4934  0.1847
 6120TIP3    H139775   2.370   5.018  13.024 -1.5579 -0.7076 -0.3874
 6120TIP3    H239776   2.311   5.114  12.923  0.6039  1.3696  0.2851
 6121TIP3   OH239777   3.636   1.269  10.995  0.0468  0.3356  0.4559
 6121TIP3    H139778   3.607   1.179  10.981  0.0518 -0.0060  2.5935
 6121TIP3    H239779   3.683   1.292  10.914 -1.7803 -0.8230 -0.9717
 6122TIP3   OH239780   5.408   4.409  10.347  0.4737  0.1688 -0.0067
 6122TIP3    H139781   5.470   4.339  10.367  1.1345  0.6973 -0.2010
 6122TIP3    H239782   5.413   4.468  10.422 -0.7105 -0.4223  0.5535
 6123TIP3   OH239783   0.506   3.513  11.614 -0.1555  0.4807  0.1470
 6123TIP3    H139784   0.497   3.591  11.560 -0.9533  0.2686 -0.0503
 6123TIP3    H239785   0.534   3.545  11.699 -0.4484  0.9799  0.0600
 6124TIP3   OH239786   3.181   3.978  13.638  0.4011 -0.6466  0.3926
 6124TIP3    H139787   3.089   3.951  13.636  0.4518 -1.0124  2.2987
 6124TIP3    H239788   3.178   4.068  13.670  0.6406 -0.2669 -0.6260
 6125TIP3   OH239789   0.653   6.014  10.797 -0.3728  0.0814 -0.0104
 6125TIP3    H139790   0.595   5.938  10.792  0.2212 -0.4255  0.6642
 6125TIP3    H239791   0.740   5.976  10.808  0.1284  0.8262 -1.2770
 6126TIP3   OH239792   5.494   2.359  11.853  0.2522  0.5699 -0.1981
 6126TIP3    H139793   5.515   2.442  11.895 -1.6224  1.3985 -0.8705
 6126TIP3    H239794   5.426   2.321  11.909  1.8511 -1.0393  0.7139
 6127TIP3   OH239795   3.755   5.463  12.644 -0.0064  0.5397 -0.1155
 6127TIP3    H139796   3.819   5.392  12.641  1.0685  1.4690  0.4001
 6127TIP3    H239797   3.767   5.503  12.731 -0.2959  1.6154 -0.5581
 6128TIP3   OH239798   3.808   4.454  12.145  0.4765 -0.2348 -0.3321
 6128TIP3    H139799   3.879   4.409  12.100  1.8611  1.5957 -0.0180
 6128TIP3    H239800   3.843   4.476  12.231 -0.6558  0.2213  0.0292
 6129TIP3   OH239801   0.809   6.864  12.630  0.0273  0.5639 -0.1971
 6129TIP3    H139802   0.825   6.845  12.722  0.5252  3.8100  0.4205
 6129TIP3    H239803   0.896   6.869  12.590 -0.1521  0.1019 -0.6528
 6130TIP3   OH239804   3.917   5.841  14.497  0.4381 -0.2774 -0.3713
 6130TIP3    H139805   4.003   5.865  14.532  1.0536  0.2062 -2.1763
 6130TIP3    H239806   3.874   5.925  14.479 -0.6858 -0.5025  1.1060
 6131TIP3   OH239807   7.162   3.971  11.852  0.2936 -0.2743  0.1529
 6131TIP3    H139808   7.148   4.022  11.772  1.3175 -1.3936 -0.7685
 6131TIP3    H239809   7.094   3.904  11.850  0.0225 -0.0073  0.4652
 6132TIP3   OH239810   4.252   7.161  14.704 -0.1361 -0.0932 -0.0191
 6132TIP3    H139811   4.215   7.076  14.683  1.0285 -0.7368  0.4741
 6132TIP3    H239812   4.299   7.148  14.786  1.1967  0.6738 -0.6303
 6133TIP3   OH239813   3.886   6.080  12.663  0.1697 -0.1824 -0.2056
 6133TIP3    H139814   3.830   6.122  12.598 -1.1011 -1.5503 -0.0219
 6133TIP3    H239815   3.937   6.151  12.702 -1.1882  1.0249 -0.6238
 6134TIP3   OH239816   6.224   6.866  13.538  0.9589  0.1587 -0.5569
 6134TIP3    H139817   6.223   6.961  13.553 -0.4157  0.1579 -0.6236
 6134TIP3    H239818   6.317   6.842  13.544  1.0749  1.1233  1.7675
 6135TIP3   OH239819   2.330   5.478  11.377  0.4522  0.0440 -0.6450
 6135TIP3    H139820   2.422   5.466  11.354  0.2338 -1.4609 -0.8285
 6135TIP3    H239821   2.285   5.491  11.294  0.7421  2.7609 -0.4145
 6136TIP3   OH239822   6.857   6.660  11.568  0.0853  0.3935 -0.0364
 6136TIP3    H139823   6.799   6.585  11.554  0.4014 -0.2224  1.8841
 6136TIP3    H239824   6.831   6.696  11.653  2.3761  0.2182  0.7856
 6137TIP3   OH239825   4.643   0.544  14.541 -0.0913 -0.3504 -0.8357
 6137TIP3    H139826   4.606   0.480  14.602 -0.1635  1.0396  0.6131
 6137TIP3    H239827   4.721   0.577  14.585  0.3509  0.0245 -1.8942
 6138TIP3   OH239828   1.590   7.050  10.178  0.1359  0.2933 -0.1936
 6138TIP3    H139829   1.643   7.113  10.130 -1.4190  1.6700 -0.1683
 6138TIP3    H239830   1.602   7.073  10.270 -1.3504  1.3427 -0.2381
 6139TIP3   OH239831   2.394   0.164  13.396  0.8202  0.2279  0.1842
 6139TIP3    H139832   2.385   0.184  13.303  0.7555 -0.6844 -0.0078
 6139TIP3    H239833   2.305   0.172  13.431  0.8668  0.7050  0.1940
 6140TIP3   OH239834   4.723   1.859  12.857  0.3773  0.3658 -0.0257
 6140TIP3    H139835   4.785   1.837  12.927 -1.1488  1.2464  1.6368
 6140TIP3    H239836   4.665   1.783  12.852 -1.3302  1.5443  1.7144
 6141TIP3   OH239837   2.619   1.305  14.635 -0.2206 -0.0036  0.2502
 6141TIP3    H139838   2.660   1.256  14.706 -0.4798  0.4462  0.7175
 6141TIP3    H239839   2.547   1.352  14.676 -1.1567 -0.7176 -0.5590
 6142TIP3   OH239840   4.210   6.375  12.633  0.2846  0.3867  0.7815
 6142TIP3    H139841   4.296   6.397  12.596 -1.5860  1.1059 -3.4661
 6142TIP3    H239842   4.162   6.457  12.632 -1.1828 -0.4564  0.9423
 6143TIP3   OH239843   1.086   4.331  10.302 -0.0797  0.5508 -0.2534
 6143TIP3    H139844   1.118   4.298  10.386  2.1692 -1.0393 -1.6672
 6143TIP3    H239845   1.009   4.277  10.283  0.6690 -0.5773 -0.1876
 6144TIP3   OH239846   1.261   4.312  11.855  0.6025 -0.1392 -0.1019
 6144TIP3    H139847   1.187   4.372  11.862 -0.9564 -1.7205 -2.2993
 6144TIP3    H239848   1.238   4.238  11.911  1.2972  0.0897  0.4994
 6145TIP3   OH239849   6.373   4.207  14.562 -0.3982  0.4782  0.2091
 6145TIP3    H139850   6.374   4.302  14.571 -0.1545  0.7975 -2.6199
 6145TIP3    H239851   6.284   4.187  14.532 -0.0265 -0.0236 -0.5676
 6146TIP3   OH239852   7.052   5.157  12.539 -0.0432  0.4182 -0.0007
 6146TIP3    H139853   7.104   5.193  12.466  0.5694  2.1424  1.2538
 6146TIP3    H239854   6.965   5.146  12.502  0.9065 -1.4621 -1.8282
 6147TIP3   OH239855   1.093   6.188  10.053 -0.3680 -0.3479  0.3511
 6147TIP3    H139856   1.013   6.197  10.002  0.0974  0.6063 -0.2257
 6147TIP3    H239857   1.152   6.138   9.997 -0.2584 -0.2913  0.4157
 6148TIP3   OH239858   4.981   5.658  14.235 -0.2663 -0.3542  0.3107
 6148TIP3    H139859   5.013   5.747  14.246  1.7364 -0.9145 -0.6875
 6148TIP3    H239860   5.012   5.632  14.148 -1.9864 -1.5567  0.0149
 6149TIP3   OH239861   6.033   6.653  12.077 -0.1327  0.0538  0.7644
 6149TIP3    H139862   6.088   6.637  12.000 -0.2201 -1.3859  0.9733
 6149TIP3    H239863   6.007   6.745  12.070  1.3423  0.4352  0.0430
 6150TIP3   OH239864   4.624   1.828  15.083 -0.2999 -0.1313 -0.2106
 6150TIP3    H139865   4.718   1.838  15.094  0.1459 -2.4907 -1.5245
 6150TIP3    H239866   4.586   1.869  15.160  1.7046  2.3807 -0.4807
 6151TIP3   OH239867   3.687   3.702  12.453 -0.3051 -0.2462  0.3829
 6151TIP3    H139868   3.593   3.693  12.472 -0.8077 -0.9012 -2.2907
 6151TIP3    H239869   3.696   3.789  12.416 -0.0592 -0.6293 -0.4707
 6152TIP3   OH239870   3.324   7.071  11.837  0.7426 -0.4611 -0.3181
 6152TIP3    H139871   3.268   7.124  11.895  2.2877  2.1500 -1.1098
 6152TIP3    H239872   3.385   7.028  11.896  1.1062  0.6973  0.1749
 6153TIP3   OH239873   6.870   5.654  10.324 -0.3119 -0.1861 -0.4061
 6153TIP3    H139874   6.806   5.725  10.336 -1.1619 -0.6661 -1.9840
 6153TIP3    H239875   6.868   5.606  10.407 -1.5682  0.1642 -0.2199
 6154TIP3   OH239876   1.414   1.100  15.294  0.1300 -0.2548 -0.2666
 6154TIP3    H139877   1.454   1.031  15.347  0.6594  0.2701  0.0175
 6154TIP3    H239878   1.384   1.165  15.358  0.7738  0.3840 -0.6071
 6155TIP3   OH239879   4.220   0.310  13.986 -0.1888 -0.0554 -0.1850
 6155TIP3    H139880   4.195   0.338  14.074 -1.1707  1.2759 -0.8610
 6155TIP3    H239881   4.151   0.249  13.959 -0.5012  0.4175 -0.4628
 6156TIP3   OH239882   4.229   7.106  12.060  0.1114 -0.3230  0.1514
 6156TIP3    H139883   4.303   7.051  12.035  1.9242  1.2010  1.9122
 6156TIP3    H239884   4.250   7.192  12.023 -0.4163  0.3035  1.2820
 6157TIP3   OH239885   5.944   6.881  12.551  0.0812  0.0086  0.2087
 6157TIP3    H139886   5.915   6.927  12.472  0.4721 -0.1141 -0.0021
 6157TIP3    H239887   5.885   6.914  12.620  0.4665  0.9455  0.0913
 6158TIP3   OH239888   1.447   0.898  12.289  0.2976 -0.7682 -0.7449
 6158TIP3    H139889   1.399   0.887  12.371 -0.5073  0.4511 -1.0509
 6158TIP3    H239890   1.533   0.930  12.316  0.6337 -2.0281 -0.2677
 6159TIP3   OH239891   3.409   6.946  11.532 -0.4628 -0.5305 -0.0918
 6159TIP3    H139892   3.372   6.915  11.615 -1.1509 -0.7624 -0.4869
 6159TIP3    H239893   3.388   6.878  11.469  0.6506 -0.6763 -0.3237
 6160TIP3   OH239894   6.349   4.330   0.129 -0.3932  0.5911  0.1535
 6160TIP3    H139895   6.257   4.337   0.154 -0.5566  0.2678 -0.3384
 6160TIP3    H239896   6.346   4.304   0.037  0.1772 -0.8239  0.5149
 6161TIP3   OH239897   4.431   2.265   1.202 -1.5163  0.3277  0.0786
 6161TIP3    H139898   4.437   2.321   1.124 -0.8931 -0.4346 -0.4292
 6161TIP3    H239899   4.339   2.239   1.205 -2.4721  3.6782  1.9686
 6162TIP3   OH239900   0.486   5.474   2.031 -0.4640  0.0780  0.5134
 6162TIP3    H139901   0.463   5.431   1.948 -1.4764  0.5349  0.5532
 6162TIP3    H239902   0.402   5.500   2.069 -0.0490 -0.7145  2.0088
 6163TIP3   OH239903   2.473   6.344  11.156 -0.5985  0.0047 -0.0629
 6163TIP3    H139904   2.560   6.348  11.194 -1.1944  1.5194  1.2210
 6163TIP3    H239905   2.488   6.346  11.062  0.7500  0.1268  0.1423
 6164TIP3   OH239906   4.975   0.043  11.953 -0.4573  0.1006  0.5936
 6164TIP3    H139907   4.969   0.010  11.863  1.0448  0.4425  0.3585
 6164TIP3    H239908   4.884   0.042  11.985 -0.6995 -2.3922 -0.0721
 6165TIP3   OH239909   1.631   6.446  14.031  0.2073 -0.2370 -0.2598
 6165TIP3    H139910   1.655   6.462  14.123 -1.0033 -0.1206  0.0428
 6165TIP3    H239911   1.715   6.434  13.986  0.8241  0.0374  0.8003
 6166TIP3   OH239912   3.609   0.220  13.018  0.6248 -0.0023  0.3744
 6166TIP3    H139913   3.575   0.292  12.965 -0.6497 -1.1726 -0.4380
 6166TIP3    H239914   3.699   0.246  13.040  1.2303  0.4305 -2.4667
 6167TIP3   OH239915   6.573   4.448  11.439 -0.6780  0.2002 -0.2726
 6167TIP3    H139916   6.519   4.419  11.365 -0.8179  0.1974 -0.1701
 6167TIP3    H239917   6.572   4.544  11.433 -1.7408  0.2520  0.4646
 6168TIP3   OH239918   1.009   5.622  14.389  0.2980 -0.7416  0.1825
 6168TIP3    H139919   1.012   5.679  14.466  0.8622 -0.4896 -0.0266
 6168TIP3    H239920   1.101   5.601  14.370  0.2374  0.1710 -1.1454
 6169TIP3   OH239921   4.058   0.108  10.465 -0.3242 -0.3361  0.1330
 6169TIP3    H139922   4.012   0.028  10.488  0.8634 -1.1756 -0.3606
 6169TIP3    H239923   4.107   0.086  10.385  1.1849  0.4296  0.8266
 6170TIP3   OH239924   4.655   1.068  15.212 -0.9333 -0.0387 -0.4300
 6170TIP3    H139925   4.700   0.983  15.210  1.2707  0.9756  1.8751
 6170TIP3    H239926   4.573   1.051  15.259  0.5922 -0.4969  2.1700
 6171TIP3   OH239927   3.646   4.008  11.183 -0.0588  0.3938 -0.1871
 6171TIP3    H139928   3.719   4.025  11.242 -0.7876 -1.0908  1.1782
 6171TIP3    H239929   3.679   3.940  11.124 -0.1616  0.1023  0.0922
 6172TIP3   OH239930   5.491   4.990  10.548 -0.2912 -0.7556  0.2589
 6172TIP3    H139931   5.399   5.011  10.531  0.1325  1.0864  0.2252
 6172TIP3    H239932   5.516   4.933  10.475 -0.8535  0.3446 -0.8095
 6173TIP3   OH239933   3.862   4.866  14.496 -0.0757  0.1826  0.1183
 6173TIP3    H139934   3.792   4.907  14.445 -1.0788 -0.0479  1.2857
 6173TIP3    H239935   3.825   4.857  14.584  0.3096 -2.7084  0.0374
 6174TIP3   OH239936   2.914   0.034  11.178 -0.2110  0.2296  0.1647
 6174TIP3    H139937   2.912  -0.029  11.106  1.2956 -0.1132  0.3970
 6174TIP3    H239938   2.964   0.108  11.143 -1.4743  1.0557  0.0872
 6175TIP3   OH239939   4.075   4.317  14.496 -0.4998 -0.1040  0.1991
 6175TIP3    H139940   4.012   4.339  14.428 -0.4445  2.1608  0.8383
 6175TIP3    H239941   4.146   4.380  14.484  0.2315 -0.6923  1.3565
 6176TIP3   OH239942   2.983   6.756  13.093 -0.1094 -0.3607  0.3454
 6176TIP3    H139943   2.912   6.702  13.127  0.8274 -0.2514  2.5890
 6176TIP3    H239944   2.978   6.837  13.145  1.0766  0.0112 -0.0946
 6177TIP3   OH239945   1.178   0.428  11.870  0.5198 -0.2040 -0.3302
 6177TIP3    H139946   1.227   0.477  11.803  2.0502 -0.6656  0.4249
 6177TIP3    H239947   1.101   0.395  11.823 -0.2386  2.4128 -0.9838
 6178TIP3   OH239948   2.427   3.609  11.097 -0.1994  0.2568 -0.0169
 6178TIP3    H139949   2.361   3.613  11.027 -0.3583  0.2736  0.1325
 6178TIP3    H239950   2.476   3.691  11.088 -0.6651  0.5750  0.3213
 6179TIP3   OH239951   1.101   6.905  10.939  0.2160 -0.2149  0.2442
 6179TIP3    H139952   1.014   6.868  10.951 -0.6374  1.9686  1.1511
 6179TIP3    H239953   1.103   6.934  10.847  0.2300 -0.8406  0.0463
 6180TIP3   OH239954   5.370   1.743  10.571 -0.0500  0.0457  0.2061
 6180TIP3    H139955   5.448   1.687  10.574 -0.1488 -0.1156 -0.1532
 6180TIP3    H239956   5.364   1.770  10.479 -0.2507  0.2907  0.2923
 6181TIP3   OH239957   3.772   2.536  11.605  0.2196  0.2102  0.6555
 6181TIP3    H139958   3.797   2.463  11.548 -2.5872  0.4834 -1.0261
 6181TIP3    H239959   3.683   2.515  11.632 -0.6423  3.0014  0.1267
 6182TIP3   OH239960   6.314   4.840  12.348  0.2772  0.4995 -0.3484
 6182TIP3    H139961   6.304   4.764  12.405 -0.0810  0.1318 -0.8957
 6182TIP3    H239962   6.309   4.916  12.406  0.2350  0.1143  0.1449
 6183TIP3   OH239963   4.394   4.619  12.957  0.6554  0.1405 -0.1113
 6183TIP3    H139964   4.337   4.673  13.011 -1.8978 -2.0168 -0.5480
 6183TIP3    H239965   4.396   4.663  12.872 -1.0435 -0.1786 -0.3290
 6184TIP3   OH239966   5.252   5.847  10.774 -0.1969 -0.0799 -0.2785
 6184TIP3    H139967   5.319   5.902  10.816  0.8518 -0.6923 -1.1449
 6184TIP3    H239968   5.170   5.876  10.814  0.6521  0.1790  1.3347
 6185TIP3   OH239969   1.560   1.275  12.149  0.5162  0.3392  0.1276
 6185TIP3    H139970   1.582   1.256  12.058 -0.6860  1.4687 -0.4295
 6185TIP3    H239971   1.627   1.230  12.200  0.8379 -0.8313 -1.2892
 6186TIP3   OH239972   0.144   1.933  10.518 -0.1891  0.1992  0.2524
 6186TIP3    H139973   0.112   1.988  10.446  0.7833  0.0948 -0.2654
 6186TIP3    H239974   0.180   1.856  10.475  2.2465  1.0455  0.6994
 6187TIP3   OH239975   2.918   5.878  14.674 -0.1592 -0.1455 -0.2235
 6187TIP3    H139976   2.936   5.909  14.586  0.2221 -0.5714 -0.2972
 6187TIP3    H239977   2.995   5.827  14.698 -0.9415 -1.3681 -0.2489
 6188TIP3   OH239978   5.353   1.839  10.967 -0.4692 -0.3451  0.6609
 6188TIP3    H139979   5.294   1.859  10.894 -2.3779  0.0336  2.2635
 6188TIP3    H239980   5.323   1.754  10.999  1.0626 -1.0170  0.3103
 6189TIP3   OH239981   3.130   4.888   9.421  0.0855  0.3065  0.1352
 6189TIP3    H139982   3.107   4.981   9.410 -0.0879  0.2022 -0.3968
 6189TIP3    H239983   3.191   4.887   9.494  0.6168  0.9216 -0.2947
 6190TIP3   OH239984   6.506   3.457  13.920 -0.2205  0.0596  0.5422
 6190TIP3    H139985   6.562   3.527  13.889  0.7407 -2.0401 -2.7449
 6190TIP3    H239986   6.550   3.425  13.999 -0.4669  2.8121  1.8545
 6191TIP3   OH239987   6.064   2.730  12.306 -0.2776 -0.1660 -0.0686
 6191TIP3    H139988   6.153   2.703  12.328  0.0428 -1.0010 -2.2588
 6191TIP3    H239989   6.075   2.809  12.253 -0.8545 -0.1311 -0.1386
 6192TIP3   OH239990   6.782   6.729  13.681  0.4056  1.1513 -0.2732
 6192TIP3    H139991   6.784   6.824  13.686 -1.3748  1.2249 -0.6861
 6192TIP3    H239992   6.762   6.701  13.770 -1.2688  1.2662 -0.5982
 6193TIP3   OH239993   3.417   5.741  10.348  0.1561  0.4742 -0.1792
 6193TIP3    H139994   3.442   5.799  10.276  0.8231  1.5458  0.9103
 6193TIP3    H239995   3.332   5.775  10.377 -0.7387 -0.7561 -1.2953
 6194TIP3   OH239996   6.384   6.023  14.782 -0.2875  0.0132 -0.2193
 6194TIP3    H139997   6.342   6.027  14.697 -0.5740  1.8791  0.0022
 6194TIP3    H239998   6.434   5.941  14.780 -1.0057 -0.3964 -1.8306
 6195TIP3   OH239999   4.284   0.117  13.109  0.9065 -0.1487 -0.0903
 6195TIP3    H140000   4.214   0.053  13.095  0.1355  0.7175 -0.1580
 6195TIP3    H240001   4.311   0.142  13.020 -1.4368  2.5285 -0.0925
 6196TIP3   OH240002   2.450   3.123  14.221  0.1338  0.1046 -0.0191
 6196TIP3    H140003   2.391   3.112  14.295  1.1996  0.7425  0.9403
 6196TIP3    H240004   2.425   3.207  14.182 -0.4544 -0.2515 -0.4132
 6197TIP3   OH240005   3.669   5.340  15.543  0.3341 -0.2999 -0.1880
 6197TIP3    H140006   3.714   5.423  15.525 -1.5103  0.5203 -1.0634
 6197TIP3    H240007   3.616   5.358  15.621  0.0729 -0.7155 -0.2713
 6198TIP3   OH240008   5.311   2.867  11.342 -0.0885 -0.2158  0.0626
 6198TIP3    H140009   5.358   2.943  11.307 -0.1623 -0.6485 -0.9893
 6198TIP3    H240010   5.332   2.796  11.282 -0.0918 -1.0108  0.9910
 6199TIP3   OH240011   5.173   4.151  10.378  0.1317 -0.1340  0.1194
 6199TIP3    H140012   5.091   4.158  10.426 -0.6748 -0.5302 -1.1668
 6199TIP3    H240013   5.182   4.058  10.358 -0.4407  0.2084 -1.9499
 6200TIP3   OH240014   2.576   2.957   1.028  0.1427  0.6286  0.2504
 6200TIP3    H140015   2.583   2.928   1.119 -0.7154  0.7586  0.3559
 6200TIP3    H240016   2.486   2.938   1.003  0.5427  0.0343 -0.7688
 6201TIP3   OH240017   2.993   4.667  10.528  0.0487  0.2101 -0.2523
 6201TIP3    H140018   2.926   4.600  10.536 -1.1394  1.2109 -1.4487
 6201TIP3    H240019   2.997   4.709  10.614  0.7015 -1.2868  0.4557
 6202TIP3   OH240020   3.399   6.223  12.051 -0.0113  0.1713  0.5124
 6202TIP3    H140021   3.405   6.134  12.085 -0.4893 -0.6153 -1.3647
 6202TIP3    H240022   3.394   6.212  11.956  0.4913  2.2306  0.2076
 6203TIP3   OH240023   4.702   3.387  12.212  0.2900 -0.6715 -0.3371
 6203TIP3    H140024   4.783   3.438  12.209  0.6093 -1.2241 -1.4288
 6203TIP3    H240025   4.691   3.356  12.122 -0.5405 -1.5194  0.0588
 6204TIP3   OH240026   5.201   2.384  10.963 -0.0824 -0.5670 -0.6304
 6204TIP3    H140027   5.106   2.374  10.965 -0.1505  0.0271 -0.8341
 6204TIP3    H240028   5.217   2.437  10.885  0.3735 -0.1677 -0.2633
 6205TIP3   OH240029   2.961   5.792  15.243  0.0679  0.2525  0.3360
 6205TIP3    H140030   2.983   5.885  15.233  1.6042 -0.0913  0.4877
 6205TIP3    H240031   2.967   5.776  15.338 -0.8477  0.1464  0.3838
 6206TIP3   OH240032   3.693   1.745  12.263 -0.2437 -0.1059  0.3535
 6206TIP3    H140033   3.769   1.688  12.254 -0.9356 -0.7587 -1.5718
 6206TIP3    H240034   3.627   1.691  12.306  0.1492  0.2427  1.3968
 6207TIP3   OH240035   2.381   2.072  11.387 -0.0199 -0.5992  0.3362
 6207TIP3    H140036   2.334   2.049  11.307 -1.4026 -0.5569  1.1120
 6207TIP3    H240037   2.312   2.100  11.448  1.0749 -0.0002  1.3190
 6208TIP3   OH240038   1.847   0.120  11.552 -0.6454  0.0724 -0.0328
 6208TIP3    H140039   1.921   0.105  11.610 -1.0591 -1.6477  0.0641
 6208TIP3    H240040   1.814   0.207  11.576 -1.2846 -0.9010  2.8363
 6209TIP3   OH240041   0.465   4.316  10.483 -0.0242  0.3141 -0.0437
 6209TIP3    H140042   0.477   4.231  10.440  0.0414  0.8817 -1.1519
 6209TIP3    H240043   0.379   4.309  10.525  0.2624 -0.5325  0.4169
 6210TIP3   OH240044   5.009   1.299  13.026  0.2892 -0.3712  0.0698
 6210TIP3    H140045   5.002   1.350  12.945  1.6840  1.3429  0.9945
 6210TIP3    H240046   4.945   1.228  13.015 -1.8533  1.6730 -1.1838
 6211TIP3   OH240047   0.232   0.790  13.603  0.1486  0.6210  0.0940
 6211TIP3    H140048   0.160   0.850  13.624 -0.4144 -0.3513  1.0021
 6211TIP3    H240049   0.282   0.783  13.684  2.4701  2.8326 -1.0622
 6212TIP3   OH240050   0.770   6.610  11.708  0.1168  0.0341  0.6497
 6212TIP3    H140051   0.828   6.560  11.652 -1.1643  0.7162 -1.3250
 6212TIP3    H240052   0.683   6.571  11.696 -0.2683  0.4850  1.7943
 6213TIP3   OH240053   6.945   4.250   1.101  0.7238  0.0291  0.0353
 6213TIP3    H140054   7.014   4.297   1.148  1.6000 -0.0312 -1.1667
 6213TIP3    H240055   6.989   4.214   1.024 -0.5171 -0.5516 -0.4115
 6214TIP3   OH240056   3.761   6.214  12.458  0.4372  0.5773  0.0501
 6214TIP3    H140057   3.684   6.217  12.515  0.3913  0.5922 -0.0123
 6214TIP3    H240058   3.746   6.283  12.394  1.3006  1.6894  1.0336
 6215TIP3   OH240059   6.342   6.562  10.841  0.0922 -0.3073 -0.1021
 6215TIP3    H140060   6.401   6.551  10.767 -0.4851 -2.5364 -0.2647
 6215TIP3    H240061   6.264   6.512  10.817 -1.8181  2.4394  0.1889
 6216TIP3   OH240062   4.647   2.129  11.599 -0.2066  0.0142 -0.5417
 6216TIP3    H140063   4.741   2.146  11.592 -0.3989  0.5848 -1.8844
 6216TIP3    H240064   4.631   2.057  11.539 -0.6406 -0.0312 -0.3746
 6217TIP3   OH240065   4.063   6.413  11.518  0.0753 -0.2173 -0.0100
 6217TIP3    H140066   4.149   6.374  11.502 -0.0528  0.0000 -1.2744
 6217TIP3    H240067   4.081   6.485  11.579  1.0065  0.6693 -1.3030
 6218TIP3   OH240068   3.434   4.577  13.891  0.4016 -0.2089  0.0951
 6218TIP3    H140069   3.471   4.547  13.974 -1.7245 -1.3508  0.6606
 6218TIP3    H240070   3.499   4.553  13.825  1.5813 -0.3433  1.2983
 6219TIP3   OH240071   5.234   2.897  10.003  0.0953  0.0462 -0.1942
 6219TIP3    H140072   5.248   2.934  10.090  0.7372 -0.1200 -0.2210
 6219TIP3    H240073   5.320   2.864   9.977 -0.4093 -1.1863 -0.3062
 6220TIP3   OH240074   5.128   1.944  14.478 -0.2570 -0.8262 -0.2182
 6220TIP3    H140075   5.086   1.980  14.400 -1.4444 -2.2252 -0.2406
 6220TIP3    H240076   5.063   1.953  14.547  0.3840 -0.6114  0.3639
 6221TIP3   OH240077   5.964   0.169  13.875 -0.3824 -0.3350  0.3841
 6221TIP3    H140078   5.912   0.227  13.819  0.8065  0.8853  0.5184
 6221TIP3    H240079   5.990   0.096  13.818 -0.5732  0.0609 -0.2067
 6222TIP3   OH240080   5.502   5.389  12.261  0.6870 -0.2656  0.3645
 6222TIP3    H140081   5.448   5.341  12.198  0.3751 -1.0928  1.2375
 6222TIP3    H240082   5.580   5.334  12.272  0.3859 -0.5241  1.2719
 6223TIP3   OH240083   5.462   1.317  14.259  0.2571 -0.0277 -0.5947
 6223TIP3    H140084   5.531   1.253  14.276  1.5581  1.6290  0.4841
 6223TIP3    H240085   5.390   1.289  14.317  0.7701 -0.5857 -0.2174
 6224TIP3   OH240086   5.653   4.019  14.656 -0.4876 -0.0929  0.6914
 6224TIP3    H140087   5.580   4.067  14.694 -1.0337 -0.0341 -0.4456
 6224TIP3    H240088   5.703   4.084  14.608  0.2293 -0.1640  1.3333
 6225TIP3   OH240089   2.926   3.917  10.556 -0.6493  0.0163 -0.5238
 6225TIP3    H140090   2.971   3.951  10.478 -1.4141  1.5409 -0.3230
 6225TIP3    H240091   2.837   3.952  10.548 -0.8325 -0.1403  0.8395
 6226TIP3   OH240092   3.458   3.941  13.626  0.4991 -0.6976  0.1131
 6226TIP3    H140093   3.486   3.855  13.658 -1.9741 -1.3192  0.7325
 6226TIP3    H240094   3.372   3.955  13.666  1.2520  2.5182  0.8170
 6227TIP3   OH240095   4.730   6.706  10.388 -0.1060 -0.0820 -0.1158
 6227TIP3    H140096   4.741   6.759  10.309  0.4109  0.7171  0.4821
 6227TIP3    H240097   4.688   6.626  10.357  2.2527 -0.8208 -1.5849
 6228TIP3   OH240098   1.794   4.739  12.350  0.1376 -0.2798  0.8326
 6228TIP3    H140099   1.865   4.787  12.308  0.4349  0.4636  2.1434
 6228TIP3    H240100   1.832   4.708  12.433 -0.6808 -0.9905  0.9518
 6229TIP3   OH240101   6.605   0.935  11.103  0.7252 -0.2898 -0.0791
 6229TIP3    H140102   6.655   0.897  11.031  1.5545  2.1780 -0.8566
 6229TIP3    H240103   6.671   0.971  11.162 -0.0464  1.2683 -0.1294
 6230TIP3   OH240104   3.981   3.799  14.355 -0.5014 -0.1018  0.0319
 6230TIP3    H140105   4.032   3.748  14.293  0.5046  0.5278  0.3345
 6230TIP3    H240106   3.898   3.752  14.362  0.5897 -1.9850  0.6850
 6231TIP3   OH240107   4.371   6.591  13.460  0.1402  0.2074  0.3755
 6231TIP3    H140108   4.404   6.603  13.549 -0.6030 -2.2884  1.0321
 6231TIP3    H240109   4.450   6.572  13.408  0.5351  1.3282  0.5605
 6232TIP3   OH240110   5.428   4.118  10.214 -0.0113 -0.3366 -0.0141
 6232TIP3    H140111   5.448   4.130  10.307 -0.6611 -1.1162  0.2244
 6232TIP3    H240112   5.344   4.161  10.201  0.3301  0.2320 -0.3591
 6233TIP3   OH240113   0.414   4.776  10.478 -0.7807  0.0495 -0.3295
 6233TIP3    H140114   0.338   4.717  10.482 -1.1050  0.3775 -1.5572
 6233TIP3    H240115   0.488   4.719  10.463 -0.9462 -0.1503 -0.3897
 6234TIP3   OH240116   0.733   6.684  13.060  0.6141  0.7410  0.2760
 6234TIP3    H140117   0.775   6.737  13.127 -1.4217  1.5406  0.9770
 6234TIP3    H240118   0.721   6.598  13.101  1.0424  0.6815  0.2732
 6235TIP3   OH240119   2.007   2.931   9.488 -0.0593  0.6358  0.7141
 6235TIP3    H140120   1.993   2.848   9.534 -1.5198  0.6792  0.3924
 6235TIP3    H240121   2.020   2.906   9.397 -0.5605  0.7565  0.6081
 6236TIP3   OH240122   4.613   5.609  11.858  0.7700  0.1169 -0.2166
 6236TIP3    H140123   4.596   5.548  11.930 -0.3582 -1.8582 -2.0839
 6236TIP3    H240124   4.586   5.694  11.892  0.6707 -0.7081  1.8337
 6237TIP3   OH240125   2.355   5.350   1.666 -0.0540 -0.1622  0.7443
 6237TIP3    H140126   2.448   5.357   1.686 -0.1305  0.9893  0.6890
 6237TIP3    H240127   2.346   5.390   1.579 -0.4542 -1.1035  0.3383
 6238TIP3   OH240128   0.272   3.736   0.123  0.0170 -0.3196  0.2200
 6238TIP3    H140129   0.213   3.805   0.094 -1.5001 -2.0493 -0.9617
 6238TIP3    H240130   0.304   3.696   0.042  2.5533  0.3483  0.8508
 6239TIP3   OH240131   2.075   5.720  12.235  0.1890 -0.8806  0.0502
 6239TIP3    H140132   2.161   5.755  12.258  0.2450 -1.0517  0.0955
 6239TIP3    H240133   2.054   5.660  12.306 -0.6413  0.3141  0.8412
 6240TIP3   OH240134   2.125   1.828  15.144 -0.1828  0.1364  0.3825
 6240TIP3    H140135   2.048   1.846  15.090  0.7948  0.1498 -1.0506
 6240TIP3    H240136   2.199   1.852  15.088  0.9613 -2.8272  0.5330
 6241TIP3   OH240137   5.710   3.273  11.315 -0.0164 -0.3111 -0.4459
 6241TIP3    H140138   5.648   3.208  11.279 -0.9020  0.7596 -0.9071
 6241TIP3    H240139   5.749   3.313  11.237 -0.3932  0.5637 -0.1877
 6242TIP3   OH240140   1.895   0.542  14.514 -0.6256 -0.1362 -0.2378
 6242TIP3    H140141   1.877   0.497  14.597  0.8027  0.6034  0.4938
 6242TIP3    H240142   1.986   0.570  14.521 -1.5425  3.1092 -0.5742
 6243TIP3   OH240143   5.514   0.114   9.795  0.4692  0.4068  0.2190
 6243TIP3    H140144   5.472   0.136   9.878 -1.9961 -0.5899 -0.7130
 6243TIP3    H240145   5.596   0.164   9.795 -1.2059  3.2513  1.6298
 6244TIP3   OH240146   6.642   0.976  10.571  0.3603 -0.2059 -0.0585
 6244TIP3    H140147   6.611   0.921  10.499  1.5429  0.1101 -0.8058
 6244TIP3    H240148   6.573   1.041  10.582 -0.3398 -0.9151 -0.1692
 6245TIP3   OH240149   2.152   5.325  11.981  0.0785 -0.2251  0.0380
 6245TIP3    H140150   2.099   5.403  12.000 -0.2652 -0.8506  1.7086
 6245TIP3    H240151   2.103   5.279  11.914 -0.3974  0.3157  0.0096
 6246TIP3   OH240152   1.381   0.563  14.694  0.3005 -0.2557  0.0859
 6246TIP3    H140153   1.294   0.530  14.671  0.1824  0.9366 -1.3157
 6246TIP3    H240154   1.441   0.494  14.665 -0.0936 -0.4415 -0.3011
 6247TIP3   OH240155   5.981   7.088   1.308 -0.9332  0.0772  0.1608
 6247TIP3    H140156   6.039   7.152   1.349 -0.5899  0.2494 -0.5757
 6247TIP3    H240157   5.894   7.106   1.344 -0.6327  0.2070  0.8179
 6248TIP3   OH240158   1.789   6.818   0.379 -0.0588 -0.1419  0.0109
 6248TIP3    H140159   1.747   6.873   0.446  0.5781  0.9534 -0.4700
 6248TIP3    H240160   1.883   6.823   0.399  0.1280  0.1610 -0.9440
 6249TIP3   OH240161   4.023   2.971  14.805  0.6291  0.6184  0.1694
 6249TIP3    H140162   4.099   2.965  14.748 -0.0820 -0.6585 -0.6416
 6249TIP3    H240163   3.949   2.982  14.746  0.3118  3.6426  1.0019
 6250TIP3   OH240164   5.172   0.519  13.455 -0.2528 -0.3663  0.3994
 6250TIP3    H140165   5.207   0.491  13.539  2.0439 -0.8496 -0.6880
 6250TIP3    H240166   5.185   0.614  13.453  1.5331 -0.6047 -0.2076
 6251TIP3   OH240167   2.581   4.474  13.608 -0.6872  0.0544  0.4713
 6251TIP3    H140168   2.560   4.443  13.696  0.4094  0.5447  0.9188
 6251TIP3    H240169   2.532   4.555  13.599 -1.0111 -0.1352  0.5277
 6252TIP3   OH240170   0.831   5.912  13.792  0.0287 -0.0518  0.1015
 6252TIP3    H140171   0.867   5.862  13.718 -0.1937  1.2373 -0.9034
 6252TIP3    H240172   0.863   5.866  13.870  2.4910  0.0921 -0.7865
 6253TIP3   OH240173   2.178   6.656  11.253  0.3362 -0.3534  0.0631
 6253TIP3    H140174   2.175   6.746  11.284  1.3774 -0.7387  1.3256
 6253TIP3    H240175   2.118   6.654  11.179  1.1364  1.6385 -0.6760
 6254TIP3   OH240176   6.504   2.463  12.545  0.0177 -0.6695  0.6325
 6254TIP3    H140177   6.411   2.456  12.566 -0.9843  1.6002 -2.5952
 6254TIP3    H240178   6.530   2.375  12.520 -2.1717 -0.7485 -1.5805
 6255TIP3   OH240179   2.824   1.504  11.068  0.0978  0.1873  0.1582
 6255TIP3    H140180   2.806   1.427  11.121  1.6757 -0.1418  0.2393
 6255TIP3    H240181   2.824   1.472  10.978  3.6309 -0.5608  0.3309
 6256TIP3   OH240182   3.007   2.643  13.871  0.3952 -0.4022 -0.1875
 6256TIP3    H140183   2.953   2.658  13.794  1.7508  2.1754 -0.6660
 6256TIP3    H240184   3.096   2.638  13.838  0.8439 -0.8344  1.0384
 6257TIP3   OH240185   4.191   2.366  11.531  0.0414 -0.0769 -0.2102
 6257TIP3    H140186   4.265   2.340  11.477  0.1626  2.1870 -1.2000
 6257TIP3    H240187   4.188   2.301  11.601  0.4605 -2.5182 -2.3722
 6258TIP3   OH240188   2.446   1.236  13.428 -0.4976  0.5981  0.1010
 6258TIP3    H140189   2.384   1.170  13.459 -0.5106  0.7736  0.4471
 6258TIP3    H240190   2.494   1.192  13.357 -1.2979  0.5956 -0.4458
 6259TIP3   OH240191   5.419   5.267  11.501  0.1038 -0.1748  0.2861
 6259TIP3    H140192   5.331   5.304  11.507 -0.4434 -1.5782  1.2829
 6259TIP3    H240193   5.454   5.274  11.590  2.4450  3.7158 -0.8211
 6260TIP3   OH240194   1.121   1.131  13.903 -0.1966  0.1192 -0.0152
 6260TIP3    H140195   1.199   1.120  13.847 -0.7836 -0.3476 -0.7476
 6260TIP3    H240196   1.152   1.107  13.990  0.0495 -1.7817 -0.5963
 6261TIP3   OH240197   5.656   3.985  13.398  0.1604 -0.4387  0.1411
 6261TIP3    H140198   5.686   4.002  13.309  0.7524  1.9218  0.7711
 6261TIP3    H240199   5.571   3.942  13.387  0.5138 -0.7335 -1.5496
 6262TIP3   OH240200   2.335   4.134   0.023 -0.1641  0.3240  0.2952
 6262TIP3    H140201   2.281   4.088   0.087 -0.0150  0.9524  0.8839
 6262TIP3    H240202   2.361   4.067  -0.040 -0.1714 -0.3342  0.9877
 6263TIP3   OH240203   3.713   5.015   2.109  0.2015 -0.5555 -0.0824
 6263TIP3    H140204   3.722   5.039   2.201 -0.0132 -0.5078 -0.0734
 6263TIP3    H240205   3.635   4.960   2.106  0.2461 -0.6104 -0.2253
 6264TIP3   OH240206   6.911   5.332  12.717  0.7139  0.0521 -0.0433
 6264TIP3    H140207   6.974   5.403  12.714  2.5991 -1.6573 -2.7735
 6264TIP3    H240208   6.949   5.263  12.663 -3.0266 -1.4321 -0.9764
 6265TIP3   OH240209   4.564   5.732  12.317 -0.0141  0.2860  0.2136
 6265TIP3    H140210   4.598   5.804  12.372  0.4397  1.3854 -1.4790
 6265TIP3    H240211   4.469   5.738  12.326  0.0751 -0.1424  1.6168
 6266TIP3   OH240212   5.507   4.179  11.423 -0.1643  0.8162 -0.2613
 6266TIP3    H140213   5.556   4.112  11.376  0.1601 -0.4203  1.7564
 6266TIP3    H240214   5.416   4.149  11.420 -0.4512  1.7929 -1.8145
 6267TIP3   OH240215   6.429   5.384  13.996  0.0738 -0.3689  0.0090
 6267TIP3    H140216   6.461   5.409  14.083  2.0691 -0.3580 -0.7037
 6267TIP3    H240217   6.412   5.467  13.952  0.6129 -0.3524 -0.1690
 6268TIP3   OH240218   7.109   5.540  12.728  0.8748 -0.0774 -0.0416
 6268TIP3    H140219   7.157   5.595  12.667 -0.9982  1.5069 -0.1103
 6268TIP3    H240220   7.153   5.555  12.812  1.1430  0.5809 -0.2915
 6269TIP3   OH240221   6.242   4.117  10.619  0.0043 -0.4116  0.1141
 6269TIP3    H140222   6.300   4.069  10.559  0.3485 -1.0849  0.9824
 6269TIP3    H240223   6.301   4.168  10.674 -0.1471 -1.9169  1.7146
 6270TIP3   OH240224   4.737   4.106  10.917  0.2292  0.6527 -0.0246
 6270TIP3    H140225   4.790   4.143  10.846 -1.4938  2.0403 -0.6199
 6270TIP3    H240226   4.773   4.146  10.996  2.3991 -1.1776 -0.0517
 6271TIP3   OH240227   6.141   6.893  13.244  0.4725 -0.5939  0.0726
 6271TIP3    H140228   6.177   6.861  13.327  1.1207  0.9069  0.3968
 6271TIP3    H240229   6.202   6.962  13.217  0.0541 -0.8127 -1.4597
 6272TIP3   OH240230   6.283   4.672  10.490 -0.8046  0.1492  0.2611
 6272TIP3    H140231   6.330   4.734  10.435 -1.5196  0.5002  0.0312
 6272TIP3    H240232   6.351   4.626  10.539 -0.3812  2.9146  2.3753
 6273TIP3   OH240233   5.972   5.587  13.614 -0.0818  0.4791  0.2888
 6273TIP3    H140234   5.895   5.554  13.568  0.6098 -2.4139  1.1087
 6273TIP3    H240235   6.038   5.597  13.545 -0.8132  1.9510 -0.2391
 6274TIP3   OH240236   5.432   3.191  12.256  0.3324  0.0287 -0.4891
 6274TIP3    H140237   5.427   3.110  12.307  0.7500 -0.6031 -1.4381
 6274TIP3    H240238   5.525   3.200  12.235  0.0084 -0.2788 -2.0388
 6275TIP3   OH240239   5.479   4.450  11.377  0.0390  0.2158 -0.6118
 6275TIP3    H140240   5.509   4.362  11.400  0.6867  0.4344 -0.6082
 6275TIP3    H240241   5.559   4.498  11.356 -0.5173  0.0959 -3.1255
 6276TIP3   OH240242   4.012   2.872  10.401 -0.2425  0.3999 -0.4598
 6276TIP3    H140243   4.049   2.784  10.409 -0.9515  0.1105 -0.4053
 6276TIP3    H240244   4.089   2.928  10.391  0.2797 -0.1125  0.5142
 6277TIP3   OH240245   5.990   1.780  13.833 -0.1097 -0.0627  0.0180
 6277TIP3    H140246   5.999   1.866  13.873 -0.7854 -0.3542  0.8178
 6277TIP3    H240247   5.923   1.792  13.765 -0.0848  0.0849  0.0199
 6278TIP3   OH240248   0.332   6.653  10.412  0.0540  0.0371  0.2634
 6278TIP3    H140249   0.312   6.566  10.378 -1.0118  0.3406  0.0747
 6278TIP3    H240250   0.272   6.711  10.365  1.0738  0.9379  0.0425
 6279TIP3   OH240251   6.706   5.072  10.051  0.2795 -0.1458 -0.4281
 6279TIP3    H140252   6.726   5.087   9.959 -1.3997 -2.4783 -1.2072
 6279TIP3    H240253   6.718   4.978  10.063 -2.4950 -0.3644  0.9616
 6280TIP3   OH240254   5.961   6.138  10.315  0.4805  0.2708  0.2049
 6280TIP3    H140255   5.900   6.178  10.254  0.6974  0.7878  0.3296
 6280TIP3    H240256   6.046   6.143  10.272  0.5345  0.0814  0.2852
 6281TIP3   OH240257   1.702   4.569  11.803 -0.8133  0.0947  0.2020
 6281TIP3    H140258   1.642   4.557  11.876  1.5359 -0.8957  2.0422
 6281TIP3    H240259   1.786   4.534  11.834  0.7805  1.5443 -2.2161
 6282TIP3   OH240260   1.580   1.457  11.460 -0.1979  0.2109  0.0225
 6282TIP3    H140261   1.618   1.529  11.411  2.2273 -0.2796  1.1027
 6282TIP3    H240262   1.651   1.394  11.469 -1.2131 -0.6815  2.2401
 6283TIP3   OH240263   3.389   6.943  12.083 -0.6301 -0.2670 -0.1123
 6283TIP3    H140264   3.385   6.894  12.164 -2.6776 -0.5206 -0.3410
 6283TIP3    H240265   3.334   6.894  12.022  0.1079  0.4361 -1.3765
 6284TIP3   OH240266   4.185   0.792  13.448  0.3097  0.0602 -0.2613
 6284TIP3    H140267   4.125   0.854  13.489  1.8715  1.4645 -0.0442
 6284TIP3    H240268   4.225   0.746  13.522  0.0035 -0.3974 -0.3801
 6285TIP3   OH240269   4.328   6.114  10.241  0.7884  0.1275 -0.1671
 6285TIP3    H140270   4.313   6.020  10.244 -0.3276  0.3338  1.9644
 6285TIP3    H240271   4.300   6.140  10.153 -1.1433 -1.1699  0.0384
 6286TIP3   OH240272   7.020   5.581  11.443  0.2759  0.2530 -0.2633
 6286TIP3    H140273   6.969   5.553  11.367  1.8524 -1.5710 -0.7207
 6286TIP3    H240274   7.094   5.628  11.406 -0.1211  1.3135  0.2824
 6287TIP3   OH240275   5.733   1.330  12.517 -0.2245 -0.7895 -0.3100
 6287TIP3    H140276   5.817   1.324  12.562 -0.1045 -0.4363 -0.4857
 6287TIP3    H240277   5.731   1.419  12.482 -2.0484  0.2953  2.3808
 6288TIP3   OH240278   5.582   3.271  13.327  0.1371 -0.5388 -0.4234
 6288TIP3    H140279   5.640   3.338  13.293  0.3473  0.1903  1.2942
 6288TIP3    H240280   5.523   3.318  13.386 -0.7264 -1.6224 -0.4067
 6289TIP3   OH240281   1.904   4.813  14.162  0.2335  0.0907  0.1746
 6289TIP3    H140282   1.843   4.756  14.114 -1.9113  0.9474  1.7743
 6289TIP3    H240283   1.968   4.841  14.096  0.4953 -2.9924 -0.9512
 6290TIP3   OH240284   1.923   7.117   0.583  0.5481 -0.5098  0.1823
 6290TIP3    H140285   1.947   7.187   0.523  2.8895 -0.6450  0.9022
 6290TIP3    H240286   1.907   7.161   0.667  1.5144 -0.7583  0.5058
 6291TIP3   OH240287   3.002   2.879  15.323  0.6736 -0.3652 -0.0859
 6291TIP3    H140288   3.020   2.970  15.346 -1.8552 -0.0978  0.9230
 6291TIP3    H240289   3.056   2.863  15.245  0.1901  2.3545 -1.0144
 6292TIP3   OH240290   3.849   4.953  10.468 -0.1037 -0.0357  0.0621
 6292TIP3    H140291   3.835   4.999  10.385  0.9766 -1.1420 -0.7519
 6292TIP3    H240292   3.790   4.877  10.463 -1.9449  1.2513  1.4367
 6293TIP3   OH240293   0.222   6.819  11.096  0.1497 -0.0713 -0.4115
 6293TIP3    H140294   0.310   6.814  11.058 -0.1377  0.5180 -1.1628
 6293TIP3    H240295   0.178   6.740  11.064  0.8207 -1.0480  1.0434
 6294TIP3   OH240296   5.875   5.485   2.846  0.5893 -0.0355  0.1359
 6294TIP3    H140297   5.935   5.448   2.781  2.2209  0.2099  1.4521
 6294TIP3    H240298   5.899   5.440   2.928 -1.7536 -0.6962  0.4821
 6295TIP3   OH240299   4.673   2.769  13.305 -0.5806  0.1356  0.3483
 6295TIP3    H140300   4.758   2.791  13.342 -0.1795 -2.6674  1.2326
 6295TIP3    H240301   4.626   2.725  13.376 -2.3730  0.6678 -0.4637
 6296TIP3   OH240302   6.585   2.123  11.536 -0.0948  0.1204 -0.1234
 6296TIP3    H140303   6.529   2.145  11.611 -0.6513 -2.7077  0.3616
 6296TIP3    H240304   6.632   2.045  11.565  1.8976  0.7300 -1.6537
 6297TIP3   OH240305   5.630   4.913  13.442 -0.5965  0.0620 -0.5307
 6297TIP3    H140306   5.690   4.869  13.503 -0.3477  1.8799  0.5671
 6297TIP3    H240307   5.677   4.914  13.359  0.1157 -0.1896 -0.1402
 6298TIP3   OH240308   0.891   1.363  11.187  0.1189  0.1507  0.3027
 6298TIP3    H140309   0.843   1.389  11.108  1.0761 -0.8201 -0.6125
 6298TIP3    H240310   0.958   1.430  11.199  2.8648 -2.0034 -2.3005
 6299TIP3   OH240311   5.291   0.991  11.238  0.4395  0.2814  0.2828
 6299TIP3    H140312   5.270   1.082  11.219  0.2043 -0.1547 -1.5592
 6299TIP3    H240313   5.229   0.940  11.187  0.3875 -0.9298  1.5175
 6300TIP3   OH240314   0.640   6.802   0.349 -0.1166  0.0743  0.1450
 6300TIP3    H140315   0.722   6.795   0.301 -0.0818 -1.1855  0.3802
 6300TIP3    H240316   0.589   6.726   0.321 -1.7055  1.4665 -0.9201
 6301TIP3   OH240317   0.693   3.046   9.563  0.0191  0.1042 -0.2896
 6301TIP3    H140318   0.640   2.966   9.565  0.3422 -0.1670 -1.7997
 6301TIP3    H240319   0.711   3.065   9.655  1.0010 -2.2868  0.0528
 6302TIP3   OH240320   3.919   3.865  13.157 -0.1207  0.0993  0.1616
 6302TIP3    H140321   3.904   3.772  13.173  1.4098 -0.0895  0.6025
 6302TIP3    H240322   3.996   3.867  13.099  0.0273  1.0932  0.3822
 6303TIP3   OH240323   3.337   6.901  12.372  0.6801  0.4278 -0.0966
 6303TIP3    H140324   3.274   6.829  12.378  2.0669 -0.8080  0.1590
 6303TIP3    H240325   3.285   6.980  12.386 -0.1896 -0.7856  4.2053
 6304TIP3   OH240326   5.677   0.305  11.149 -0.0043 -0.0820 -0.2057
 6304TIP3    H140327   5.748   0.338  11.095 -0.2137 -0.8038 -0.9412
 6304TIP3    H240328   5.619   0.380  11.161  0.1035  0.1214 -0.8921
 6305TIP3   OH240329   7.016   0.039  12.334  0.2438  0.1430 -0.0727
 6305TIP3    H140330   6.998   0.014  12.244  0.1500  0.0734 -0.0358
 6305TIP3    H240331   6.930   0.058  12.372  0.3137  0.5176 -0.1002
 6306TIP3   OH240332   1.063   4.146  11.266 -0.3457 -0.0821  0.2841
 6306TIP3    H140333   1.016   4.211  11.317 -1.1185 -1.7076  1.7301
 6306TIP3    H240334   1.050   4.171  11.175 -0.6862  1.7046  0.8143
 6307TIP3   OH240335   4.637   5.441  12.402  0.0846  0.4355 -0.1672
 6307TIP3    H140336   4.679   5.358  12.423 -0.9482  0.4800  2.3580
 6307TIP3    H240337   4.703   5.507  12.422 -0.0574  0.3503  0.5958
 6308TIP3   OH240338   5.102   0.978  10.339 -0.1967 -0.2255 -0.0430
 6308TIP3    H140339   5.033   0.912  10.331 -0.6520  0.3844 -1.2330
 6308TIP3    H240340   5.156   0.947  10.412  0.2414 -2.4985 -1.2730
 6309TIP3   OH240341   6.615   7.142  11.313 -0.2733 -0.7050  0.3024
 6309TIP3    H140342   6.711   7.148  11.315 -0.2647 -0.4996 -0.5750
 6309TIP3    H240343   6.598   7.053  11.281 -0.3811 -0.9892  1.1310
 6310TIP3   OH240344   1.427   2.031  10.322 -0.6576 -0.0485  0.3655
 6310TIP3    H140345   1.494   2.094  10.347 -0.3373 -0.0875 -0.3558
 6310TIP3    H240346   1.345   2.079  10.327 -0.8235 -0.5774  3.2605
 6311TIP3   OH240347   4.407   6.572  10.275  0.0165 -0.1475  0.4237
 6311TIP3    H140348   4.488   6.525  10.296 -0.6657 -1.2357  0.6389
 6311TIP3    H240349   4.433   6.633  10.206  1.3553  0.5986  1.5494
 6312TIP3   OH240350   5.007   1.916  12.498  0.6866 -0.8701  0.0796
 6312TIP3    H140351   5.015   1.926  12.593 -0.1851 -0.2359  0.0976
 6312TIP3    H240352   5.072   1.977  12.462  0.1535 -0.1897  0.2607
 6313TIP3   OH240353   4.295   5.212  14.207 -0.3658 -0.1707 -0.2485
 6313TIP3    H140354   4.276   5.297  14.247 -4.4748  0.5492 -3.3201
 6313TIP3    H240355   4.230   5.153  14.244 -0.4546 -0.8638 -1.4590
 6314TIP3   OH240356   5.295   3.903  14.887 -0.0148  0.8139  0.6615
 6314TIP3    H140357   5.306   3.826  14.830  0.3638  0.1620  1.6021
 6314TIP3    H240358   5.230   3.957  14.842  0.6464  0.5376 -0.6351
 6315TIP3   OH240359   6.359   0.117  13.322 -0.4664  0.3227 -1.0396
 6315TIP3    H140360   6.442   0.165  13.326  0.1474 -0.7249 -1.0421
 6315TIP3    H240361   6.292   0.182  13.343  0.4674  0.8827  0.2313
 6316TIP3   OH240362   0.212   1.794  12.809 -0.1926 -0.0175 -0.2049
 6316TIP3    H140363   0.210   1.762  12.719  1.9749  0.7109 -0.5536
 6316TIP3    H240364   0.290   1.754  12.847 -0.5075  0.5036  1.0216
 6317TIP3   OH240365   2.856   0.162  10.581 -0.4071  0.5116  0.8039
 6317TIP3    H140366   2.832   0.245  10.538  0.7153 -0.3016 -1.4657
 6317TIP3    H240367   2.796   0.156  10.655 -3.4247  1.2546 -1.4764
 6318TIP3   OH240368   5.912   4.603  14.596  0.2945  0.6201  0.0509
 6318TIP3    H140369   5.821   4.626  14.576  0.4060  0.8238 -0.2140
 6318TIP3    H240370   5.938   4.664  14.664 -0.2918 -0.4844  1.2949
 6319TIP3   OH240371   5.438   5.340   9.838 -0.4779  0.1843  0.0457
 6319TIP3    H140372   5.365   5.295   9.795 -0.4409 -0.2877  0.4673
 6319TIP3    H240373   5.407   5.429   9.852 -1.8076 -0.6091  2.2395
 6320TIP3   OH240374   6.996   5.630  13.908 -0.5590 -0.3045  0.0071
 6320TIP3    H140375   7.069   5.587  13.864 -0.2413 -0.2135  0.4442
 6320TIP3    H240376   7.037   5.691  13.969 -1.0033  1.1729 -1.1356
 6321TIP3   OH240377   1.094   1.312  10.140 -0.1049  0.9427  0.9025
 6321TIP3    H140378   1.048   1.279  10.217 -0.6428  1.6210  0.8814
 6321TIP3    H240379   1.027   1.358  10.090  0.7356  2.5522  1.2160
 6322TIP3   OH240380   3.965   2.472   1.462  0.3192 -0.1503 -0.3829
 6322TIP3    H140381   3.960   2.567   1.465 -0.0554 -0.2165  1.0509
 6322TIP3    H240382   3.971   2.452   1.368 -2.4451  1.1267 -0.8738
 6323TIP3   OH240383   4.655   6.608  13.046  0.0763 -0.3798  0.0675
 6323TIP3    H140384   4.679   6.686  12.996  1.2019 -1.0207 -0.4031
 6323TIP3    H240385   4.726   6.546  13.031 -0.0272 -0.9375  1.7028
 6324TIP3   OH240386   5.959   4.116  10.075  0.0086 -0.0331 -0.5407
 6324TIP3    H140387   5.922   4.152  10.155 -1.2520 -1.4670 -0.4439
 6324TIP3    H240388   5.960   4.021  10.090 -0.2931 -0.3195 -2.2195
 6325TIP3   OH240389   5.891   6.369  14.510  0.3780 -0.2160  0.2092
 6325TIP3    H140390   5.917   6.408  14.594  1.3436 -1.9390  0.7203
 6325TIP3    H240391   5.862   6.444  14.458  0.6991  1.0056  1.7259
 6326TIP3   OH240392   4.119   6.121  15.308 -0.0547 -0.1784  0.3352
 6326TIP3    H140393   4.144   6.208  15.341 -1.3471 -1.0669  3.8350
 6326TIP3    H240394   4.157   6.060  15.370 -0.3688 -2.1049 -1.3208
 6327TIP3   OH240395   5.139   2.135  14.267  0.2150  0.4276  0.4739
 6327TIP3    H140396   5.178   2.080  14.199  0.7598  0.8133  0.4696
 6327TIP3    H240397   5.202   2.207  14.279 -0.6237  1.2045  0.2799
 6328TIP3   OH240398   5.879   4.016  13.757  0.0874  0.2159  0.8052
 6328TIP3    H140399   5.910   4.060  13.837 -0.0262  1.2382  0.2929
 6328TIP3    H240400   5.958   3.984  13.715  0.3871  1.9174  0.0295
 6329TIP3   OH240401   4.196   1.457  13.569 -0.1931 -0.1765  0.4842
 6329TIP3    H140402   4.110   1.495  13.554  0.2405  0.4992 -0.3169
 6329TIP3    H240403   4.184   1.363  13.552 -0.6592 -0.0094 -0.1472
 6330TIP3   OH240404   6.742   5.138  13.158 -0.0687  0.1640 -0.0237
 6330TIP3    H140405   6.785   5.156  13.075  0.7959 -1.4826  0.0460
 6330TIP3    H240406   6.812   5.140  13.223 -0.2736 -1.2276  0.2733
 6331TIP3   OH240407   6.018   2.259   3.865  0.1526  0.3263  0.6006
 6331TIP3    H140408   6.020   2.263   3.769 -1.7451 -2.8942  0.3664
 6331TIP3    H240409   5.942   2.312   3.889  0.5507  1.0270  0.3364
 6332TIP3   OH240410   6.068   4.807  15.523  0.1204 -0.1726 -0.4621
 6332TIP3    H140411   6.020   4.779  15.601 -0.0519  0.8988 -0.1796
 6332TIP3    H240412   6.124   4.732  15.502  1.3365  0.0961  1.6097
 6333TIP3   OH240413   5.989   1.024  13.745  0.1005 -0.3570 -0.0932
 6333TIP3    H140414   5.934   1.084  13.796  0.4762  0.9029 -1.1461
 6333TIP3    H240415   6.063   1.004  13.802 -0.5129 -0.6078  0.6282
 6334TIP3   OH240416   0.280   1.629  10.782  0.2085  0.7052 -0.3703
 6334TIP3    H140417   0.206   1.568  10.783 -0.3710  1.3654 -1.9552
 6334TIP3    H240418   0.254   1.699  10.842 -0.6928  1.2058 -1.3288
 6335TIP3   OH240419   1.506   0.762  13.559  0.0962 -0.4645  0.0642
 6335TIP3    H140420   1.508   0.734  13.468 -0.6373 -2.0423  0.5137
 6335TIP3    H240421   1.483   0.855  13.556 -0.6591 -0.7010 -1.3092
 6336TIP3   OH240422   6.376   0.855   0.678  0.2404  0.0242 -0.5867
 6336TIP3    H140423   6.421   0.783   0.722 -1.2201 -0.8952 -0.5376
 6336TIP3    H240424   6.311   0.811   0.623 -2.8957  1.3509  1.8873
 6337TIP3   OH240425   4.207   2.155   0.032 -0.1244  0.3422 -0.3853
 6337TIP3    H140426   4.202   2.147   0.127 -1.7423 -0.5012 -0.5354
 6337TIP3    H240427   4.214   2.066  -0.001 -1.3267  0.5042 -1.1398
 6338TIP3   OH240428   6.679   3.370  12.717  0.4425 -0.1204  0.1657
 6338TIP3    H140429   6.698   3.422  12.795 -0.9184  0.7463 -0.0522
 6338TIP3    H240430   6.583   3.368  12.713  0.4945 -0.8734 -1.0184
 6339TIP3   OH240431   6.404   6.457  12.661 -0.1021  0.1123  0.2718
 6339TIP3    H140432   6.356   6.540  12.661  0.9088  0.7425 -3.1104
 6339TIP3    H240433   6.476   6.472  12.722  0.0100  1.6970 -0.2198
 6340TIP3   OH240434   6.451   5.375   0.812 -0.4690 -0.2539 -0.0724
 6340TIP3    H140435   6.452   5.355   0.906  1.5938 -0.4431 -0.1089
 6340TIP3    H240436   6.541   5.403   0.793 -1.4201  1.9748 -1.5256
 6341TIP3   OH240437   6.581   6.815   9.527  0.0913 -0.6605 -0.1181
 6341TIP3    H140438   6.554   6.906   9.521 -0.1914 -0.8261 -1.5824
 6341TIP3    H240439   6.675   6.818   9.543 -0.3841 -0.1046  2.9296
 6342TIP3   OH240440   4.573   5.002  14.248 -0.2097  0.2008 -0.5040
 6342TIP3    H140441   4.552   5.049  14.328 -1.5885  0.0655 -0.7759
 6342TIP3    H240442   4.501   4.939  14.237  2.0987 -2.7573  0.4447
 6343TIP3   OH240443   5.467   0.463  14.152  1.0441 -0.2362  0.5262
 6343TIP3    H140444   5.546   0.517  14.156  0.4904  0.5286  1.0544
 6343TIP3    H240445   5.486   0.398  14.084  1.3180  1.2393 -0.8164
 6344TIP3   OH240446   1.782   4.248  11.811 -0.4957  0.4636  0.3852
 6344TIP3    H140447   1.836   4.319  11.776 -0.4968  0.8875  1.2302
 6344TIP3    H240448   1.826   4.222  11.892  0.7625 -2.0695 -1.0779
 6345TIP3   OH240449   5.741   4.149  11.089 -0.1247 -0.0707  0.0923
 6345TIP3    H140450   5.717   4.098  11.166 -0.9117  1.0837  0.6366
 6345TIP3    H240451   5.824   4.191  11.113  0.7115 -1.3795 -0.4979
 6346TIP3   OH240452   1.118   3.727  10.527  0.3151  0.5503 -0.0579
 6346TIP3    H140453   1.197   3.752  10.575  0.0013  0.3491  0.5668
 6346TIP3    H240454   1.102   3.801  10.468  0.8448  0.6906 -0.0321
 6347TIP3   OH240455   5.967   4.323  13.459 -0.1857  0.5262  0.2058
 6347TIP3    H140456   5.949   4.328  13.366  1.2288  0.3480 -0.0850
 6347TIP3    H240457   5.883   4.299  13.499 -0.4428 -0.8311 -1.1452
 6348TIP3   OH240458   4.973   5.316  14.160 -0.0266 -0.1272 -0.5710
 6348TIP3    H140459   4.938   5.227  14.149 -0.2493 -0.2705  1.0982
 6348TIP3    H240460   4.928   5.350  14.237  2.0566  0.4040  0.4577
 6349TIP3   OH240461   2.892   4.973  11.770  0.7284  0.0017 -0.5056
 6349TIP3    H140462   2.963   4.968  11.706  2.5697 -2.1165  1.6271
 6349TIP3    H240463   2.821   4.922  11.730  1.6603 -0.8496 -1.1029
 6350TIP3   OH240464   6.815   5.979  11.818  0.0916 -0.1957 -0.3965
 6350TIP3    H140465   6.794   5.996  11.910 -0.6604  1.6013 -0.8770
 6350TIP3    H240466   6.734   5.945  11.780 -0.2863  1.1795 -0.8823
 6351TIP3   OH240467   0.687   6.331  11.688 -0.0484  0.4544  0.1879
 6351TIP3    H140468   0.750   6.284  11.633  0.5279  0.6068  0.7099
 6351TIP3    H240469   0.615   6.353  11.629  0.3174  0.1396 -0.3796
 6352TIP3   OH240470   1.044   6.408  14.025 -0.3072 -0.1792 -0.4600
 6352TIP3    H140471   1.074   6.485  14.072  0.5442  1.2458 -3.2326
 6352TIP3    H240472   1.005   6.442  13.945  1.3322 -2.6550 -2.4065
 6353TIP3   OH240473   4.496   7.054  10.777  0.1521  0.0641 -0.0745
 6353TIP3    H140474   4.537   6.968  10.779 -0.0298 -0.0551 -1.0539
 6353TIP3    H240475   4.548   7.103  10.712 -1.2653 -0.1040 -1.3599
 6354TIP3   OH240476   7.024   6.762  11.248  0.4833 -0.3271  0.0402
 6354TIP3    H140477   7.061   6.706  11.180  1.1071  2.1269 -1.7159
 6354TIP3    H240478   6.929   6.746  11.244  0.5400 -0.3773 -1.2460
 6355TIP3   OH240479   2.780   0.608  12.387  0.5258 -0.1737  0.3815
 6355TIP3    H140480   2.823   0.611  12.301  1.4700  0.7980  0.8684
 6355TIP3    H240481   2.687   0.617  12.368  0.8270  1.2095 -0.4681
 6356TIP3   OH240482   4.069   0.821  11.678 -0.4364  0.2632 -0.3632
 6356TIP3    H140483   4.164   0.820  11.674 -0.3654  1.8919  0.4468
 6356TIP3    H240484   4.042   0.745  11.627  1.2335  0.9589 -2.3519
 6357TIP3   OH240485   5.557   3.609  14.146  0.0643  1.1869  0.6048
 6357TIP3    H140486   5.589   3.597  14.056 -0.5861  0.2017  0.5015
 6357TIP3    H240487   5.462   3.617  14.137 -0.1504 -0.4023  1.3363
 6358TIP3   OH240488   0.834   1.930  12.987 -0.0203  0.4740 -0.5947
 6358TIP3    H140489   0.843   1.838  13.013  1.6408  1.4596  2.6081
 6358TIP3    H240490   0.924   1.964  12.990 -0.7901  2.5361 -0.3183
 6359TIP3   OH240491   6.882   5.479  14.358  0.6934  0.1574 -0.7004
 6359TIP3    H140492   6.799   5.440  14.331  0.9421 -1.2080  0.4665
 6359TIP3    H240493   6.937   5.475  14.279 -0.0499  0.2959 -1.2315
 6360TIP3   OH240494   1.074   4.206  12.621  0.1638  0.1845  0.2592
 6360TIP3    H140495   1.020   4.282  12.599  2.3154  1.6450 -0.0809
 6360TIP3    H240496   1.093   4.164  12.537  0.8834  0.5950  0.2132
 6361TIP3   OH240497   0.158   2.571  11.067  0.2954  0.1870 -0.0123
 6361TIP3    H140498   0.066   2.554  11.088  0.3471  0.3726  0.3685
 6361TIP3    H240499   0.157   2.593  10.974 -0.3584  2.3814  0.4855
 6362TIP3   OH240500   5.636   7.008  11.738 -0.5217  0.2408 -0.0701
 6362TIP3    H140501   5.560   7.055  11.703  0.5385 -0.4231 -3.4300
 6362TIP3    H240502   5.618   6.916  11.719  0.5188 -0.0507  0.3093
 6363TIP3   OH240503   1.350   6.238  10.287  0.3017  0.3026 -0.5087
 6363TIP3    H140504   1.414   6.281  10.344  0.0988  1.0729 -0.8474
 6363TIP3    H240505   1.270   6.234  10.339  1.5266 -3.9224  1.2598
 6364TIP3   OH240506   1.514   6.186  11.719 -0.3035 -0.6242  0.0931
 6364TIP3    H140507   1.529   6.135  11.799  2.0146  0.5307  0.4306
 6364TIP3    H240508   1.546   6.130  11.648  0.8853 -0.2617  0.3289
 6365TIP3   OH240509   2.933   2.263  11.643 -0.0320 -0.8483 -0.1245
 6365TIP3    H140510   2.887   2.202  11.701 -0.8862 -0.9442 -0.8799
 6365TIP3    H240511   2.971   2.208  11.575  2.3392 -0.9083  1.1825
 6366TIP3   OH240512   0.342   6.561  15.187  0.7047 -0.2709 -0.3271
 6366TIP3    H140513   0.248   6.574  15.196  0.7132 -0.6796  0.3467
 6366TIP3    H240514   0.364   6.604  15.104 -0.1194 -0.4334 -0.6332
 6367TIP3   OH240515   3.764   5.354   1.518  0.0209 -0.3390 -0.0019
 6367TIP3    H140516   3.855   5.347   1.548  0.6826  1.3039 -1.5026
 6367TIP3    H240517   3.771   5.356   1.423 -1.5945 -0.1781 -0.1247
 6368TIP3   OH240518   6.299   0.697  10.891 -0.1743  0.2512 -0.2929
 6368TIP3    H140519   6.342   0.782  10.881 -0.0096  0.1740 -0.2360
 6368TIP3    H240520   6.368   0.638  10.920 -0.3270  0.1359 -0.1618
 6369TIP3   OH240521   2.591   4.655   0.478  0.2073 -0.0769 -0.0560
 6369TIP3    H140522   2.612   4.635   0.569 -1.4293  1.7907  0.7697
 6369TIP3    H240523   2.551   4.742   0.481 -0.1222 -0.1067 -2.5276
 6370TIP3   OH240524   6.267   5.323  13.634  0.2148 -0.1226 -0.2518
 6370TIP3    H140525   6.248   5.320  13.728  1.0026  0.8255 -0.0570
 6370TIP3    H240526   6.337   5.258  13.623  0.3559  0.0084 -0.1300
 6371TIP3   OH240527   0.856   2.273  13.183 -0.0756 -0.3344  0.3980
 6371TIP3    H140528   0.828   2.182  13.173  0.9616 -0.7038  0.7883
 6371TIP3    H240529   0.777   2.325  13.165 -0.4125 -1.2647 -0.8515
 6372TIP3   OH240530   1.838   6.451   1.904 -0.1713  0.3326 -0.0660
 6372TIP3    H140531   1.817   6.491   1.820 -1.5496  0.4216  0.3098
 6372TIP3    H240532   1.807   6.361   1.896 -0.3728  0.3631  0.3731
 6373TIP3   OH240533   5.211   7.054   0.128  0.0787  0.4917  0.3110
 6373TIP3    H140534   5.211   6.959   0.119  0.8847  0.2910  2.3728
 6373TIP3    H240535   5.302   7.080   0.119  0.2589  0.7639  2.7787
 6374TIP3   OH240536   1.341   2.766  13.060  0.5364  0.3315 -0.4705
 6374TIP3    H140537   1.247   2.749  13.052 -0.3641  3.4100  2.4595
 6374TIP3    H240538   1.380   2.679  13.062 -2.4259 -1.0677  0.2634
 6375TIP3   OH240539   6.091   1.053   0.007 -0.6832  0.1355 -0.2153
 6375TIP3    H140540   6.039   0.982   0.044  0.0055  0.3975  1.3045
 6375TIP3    H240541   6.160   1.009  -0.043 -0.0297 -0.3086  1.0366
 6376TIP3   OH240542   3.198   1.519  14.268  0.5446  0.3949  0.2850
 6376TIP3    H140543   3.236   1.433  14.253 -1.0548 -0.2407 -0.2741
 6376TIP3    H240544   3.229   1.572  14.195 -1.0675 -0.6131 -1.1720
 6377TIP3   OH240545   4.504   1.679  14.204  0.1576 -0.5123  0.2909
 6377TIP3    H140546   4.408   1.677  14.196  0.1537  0.2306  0.1796
 6377TIP3    H240547   4.531   1.590  14.182 -0.6279 -1.1332  1.8110
 6378TIP3   OH240548   2.723   4.930  13.809 -0.4227  0.7964  0.7252
 6378TIP3    H140549   2.744   5.021  13.786 -2.2847  1.4906  1.6213
 6378TIP3    H240550   2.758   4.919  13.898  0.4119  0.4094  0.3520
 6379TIP3   OH240551   5.051   1.385   3.122 -0.1722 -0.0194 -0.3060
 6379TIP3    H140552   5.014   1.305   3.159  1.7397 -0.8731 -0.1975
 6379TIP3    H240553   5.045   1.373   3.028 -0.1014 -0.1837 -0.2890
 6380TIP3   OH240554   4.009   6.923  12.855  0.4092  0.4697  0.0153
 6380TIP3    H140555   3.974   6.835  12.840  0.9194  0.0033  1.5584
 6380TIP3    H240556   4.008   6.963  12.768  1.8954 -1.6913 -1.0433
 6381TIP3   OH240557   6.694   3.449   0.580 -0.0768  0.5545 -0.0417
 6381TIP3    H140558   6.758   3.433   0.649 -1.3140  0.1637  1.0327
 6381TIP3    H240559   6.637   3.517   0.616 -0.9224  0.1203 -0.5563
 6382TIP3   OH240560   1.421   2.603  10.683  0.1490  0.3894 -1.0460
 6382TIP3    H140561   1.437   2.522  10.732  1.5455  1.4475  0.2730
 6382TIP3    H240562   1.350   2.646  10.731  0.6586  0.8168 -0.6648
 6383TIP3   OH240563   0.063   3.162  11.975  0.3790  0.3150  0.0052
 6383TIP3    H140564   0.044   3.137  12.065  0.3798  0.5430  0.0690
 6383TIP3    H240565  -0.012   3.215  11.948  0.2280 -0.0246 -0.2366
 6384TIP3   OH240566   4.799   2.703  10.515 -0.2506 -0.4967  0.8139
 6384TIP3    H140567   4.764   2.695  10.426  0.4945  1.1574  0.3542
 6384TIP3    H240568   4.884   2.660  10.512  0.8844  1.6846  0.0345
 6385TIP3   OH240569   0.251   0.282   3.562  0.1442  0.0588  0.0087
 6385TIP3    H140570   0.303   0.282   3.482 -1.7648 -1.4826 -1.2779
 6385TIP3    H240571   0.240   0.374   3.584  0.8003  0.4892 -1.4428
 6386TIP3   OH240572   5.210   1.138  15.104 -0.0640 -0.7630  0.0865
 6386TIP3    H140573   5.296   1.141  15.147  0.7130  0.9572 -1.5386
 6386TIP3    H240574   5.158   1.080  15.160  1.6766 -0.5964  1.9520
 6387TIP3   OH240575   3.186   2.565  10.101  0.3994  0.1468 -0.2975
 6387TIP3    H140576   3.230   2.645  10.128 -0.9042 -0.1806  3.0066
 6387TIP3    H240577   3.094   2.581  10.121 -0.2394 -1.2600 -1.9654
 6388TIP3   OH240578   4.609   2.731  15.471  0.2509  0.9549  0.3654
 6388TIP3    H140579   4.630   2.813  15.426  3.7322 -1.3491 -2.4318
 6388TIP3    H240580   4.690   2.705  15.514 -1.6247  0.4272  3.8304
 6389TIP3   OH240581   1.357   2.827   0.337 -0.2609 -0.2799 -0.1174
 6389TIP3    H140582   1.422   2.897   0.339 -0.1092 -0.4209 -0.0174
 6389TIP3    H240583   1.342   2.805   0.429 -1.6997  0.8913 -0.0514
 6390TIP3   OH240584   2.044   0.975   2.316  0.2422  0.4268  0.0833
 6390TIP3    H140585   1.952   0.947   2.311 -0.0711  1.6030 -1.0282
 6390TIP3    H240586   2.094   0.896   2.295 -0.5870  0.2562 -1.3860
 6391TIP3   OH240587   1.356   3.048  12.354 -0.3786  0.0394  0.6664
 6391TIP3    H140588   1.389   3.125  12.307 -0.8976  1.3806  2.4122
 6391TIP3    H240589   1.396   2.974  12.311 -0.1018  1.2820 -1.2773
 6392TIP3   OH240590   6.082   2.235  12.776  0.3573 -0.4164  0.2018
 6392TIP3    H140591   6.028   2.164  12.811  0.3023  0.6150  2.2345
 6392TIP3    H240592   6.066   2.309  12.833  0.9665  1.0644 -1.4889
 6393TIP3   OH240593   2.587   3.817   2.575 -0.0801 -0.2650 -0.0562
 6393TIP3    H140594   2.557   3.873   2.647 -0.8648 -1.9464  0.9505
 6393TIP3    H240595   2.662   3.864   2.538  0.3219  0.6564  1.8411
 6394TIP3   OH240596   4.992   4.181  12.697 -0.5227  0.6603  0.0637
 6394TIP3    H140597   5.086   4.174  12.712 -0.6451 -1.2975  0.1225
 6394TIP3    H240598   4.955   4.107  12.745 -2.1355  1.6044  0.3223
 6395TIP3   OH240599   1.321   0.660   3.027  0.9971  0.5771 -0.4007
 6395TIP3    H140600   1.308   0.584   2.971 -0.1381  1.4283 -1.3045
 6395TIP3    H240601   1.377   0.718   2.975  0.5360  1.0530 -0.3688
 6396TIP3   OH240602   2.037   2.654   1.674 -0.8252  0.3941 -0.1276
 6396TIP3    H140603   2.042   2.625   1.765 -2.4148  0.6664  0.0692
 6396TIP3    H240604   2.030   2.750   1.680 -2.8504  0.2908 -0.4239
 6397TIP3   OH240605   3.259   2.669  13.785  0.2274  0.3385 -0.0942
 6397TIP3    H140606   3.270   2.750  13.835 -0.2980  0.5194 -0.2804
 6397TIP3    H240607   3.335   2.667  13.726  1.2320 -0.2252  1.1860
 6398TIP3   OH240608   2.628   1.720  14.647 -0.4556  0.0432 -0.4233
 6398TIP3    H140609   2.678   1.641  14.667 -0.8148  0.0250  0.4098
 6398TIP3    H240610   2.554   1.718  14.707 -1.2456  0.2832 -1.3777
 6399TIP3   OH240611   4.595   6.579  14.459 -0.0277  0.0228 -0.4462
 6399TIP3    H140612   4.589   6.586  14.554 -0.1637  0.8924 -0.5124
 6399TIP3    H240613   4.590   6.485  14.441 -0.5193 -0.1101  0.3716
 6400TIP3   OH240614   5.009   1.945   0.127  0.2015 -0.7825 -0.2833
 6400TIP3    H140615   5.009   1.849   0.117  2.3486 -0.7818 -0.4561
 6400TIP3    H240616   4.931   1.974   0.079  0.1923 -2.3513 -1.2588
 6401TIP3   OH240617   4.075   4.170  15.287 -0.5241 -0.5242  0.0139
 6401TIP3    H140618   4.005   4.220  15.245  0.5485  2.1758  1.3376
 6401TIP3    H240619   4.156   4.206  15.251  0.2817 -1.5078  0.7789
 6402TIP3   OH240620   5.449   5.481  15.047  0.1672 -0.7100 -0.0989
 6402TIP3    H140621   5.375   5.421  15.042  1.1099 -1.9887  0.8972
 6402TIP3    H240622   5.410   5.568  15.049 -1.2238 -1.2897 -1.4609
 6403TIP3   OH240623   2.568   3.193   0.732  0.0217 -0.3895  0.0749
 6403TIP3    H140624   2.607   3.241   0.805 -0.9533  0.7001 -0.1007
 6403TIP3    H240625   2.586   3.101   0.751  0.2531 -0.0773  1.4027
 6404TIP3   OH240626   0.059   2.042  14.462 -0.5294 -0.0596 -0.2437
 6404TIP3    H140627   0.065   1.947  14.475  0.7138  0.0500  0.0915
 6404TIP3    H240628   0.080   2.055  14.370 -1.7233 -0.1859 -0.5438
 6405TIP3   OH240629   4.096   2.161   0.310 -0.4310  0.3842 -0.3738
 6405TIP3    H140630   4.057   2.237   0.268 -0.7234  0.6477  0.3667
 6405TIP3    H240631   4.076   2.172   0.403  0.6644  0.0772 -0.0990
 6406TIP3   OH240632   0.938   1.076  14.309  0.3022 -0.0239  0.6338
 6406TIP3    H140633   0.882   1.141  14.267  0.7206  0.0405  0.1735
 6406TIP3    H240634   0.995   1.127  14.367  0.5687  0.0102  0.3419
 6407TIP3   OH240635   4.904   1.816  15.131 -0.1196 -0.0498 -0.4968
 6407TIP3    H140636   4.927   1.752  15.064  2.6381  1.1012 -0.7209
 6407TIP3    H240637   4.950   1.786  15.210  0.4011  1.1002 -0.3539
 6408TIP3   OH240638   2.203   6.762  14.102  0.1139  0.3881  0.0882
 6408TIP3    H140639   2.220   6.676  14.140 -0.7598  0.5261  0.8056
 6408TIP3    H240640   2.287   6.790  14.067  0.6889 -0.2193  0.9625
 6409TIP3   OH240641   1.967   2.374  14.270 -0.1078 -0.2041  0.4698
 6409TIP3    H140642   1.952   2.379  14.175 -1.8975 -0.4787  0.7162
 6409TIP3    H240643   2.056   2.406  14.282 -0.5973  1.8285 -1.0991
 6410TIP3   OH240644   6.117   2.867  13.208 -0.3126 -0.0544 -0.5157
 6410TIP3    H140645   6.160   2.874  13.123 -0.3855  0.7639 -0.4890
 6410TIP3    H240646   6.052   2.798  13.197  1.9998 -2.4061 -0.1301
 6411TIP3   OH240647   2.666   6.423  11.820  0.1897 -0.4979 -0.1029
 6411TIP3    H140648   2.652   6.518  11.825 -0.1058 -0.5728  0.5327
 6411TIP3    H240649   2.592   6.391  11.769  0.1376 -0.4201 -0.0757
 6412TIP3   OH240650   2.817   1.852   0.012  0.1618  0.3343 -0.2884
 6412TIP3    H140651   2.903   1.889  -0.008 -0.4575  1.7938 -0.3055
 6412TIP3    H240652   2.781   1.826  -0.073  0.8213 -0.8221 -0.2196
 6413TIP3   OH240653   4.480   3.624   2.100  0.3333  0.5871  0.0056
 6413TIP3    H140654   4.500   3.530   2.105 -1.1723  0.2982  1.2974
 6413TIP3    H240655   4.553   3.667   2.143  0.7722 -0.0407 -0.1105
 6414TIP3   OH240656   6.365   0.471  12.512  0.1928  0.2763 -0.6144
 6414TIP3    H140657   6.296   0.407  12.533 -0.4674  0.9190 -0.8029
 6414TIP3    H240658   6.409   0.435  12.435  0.0837 -0.1500 -0.4774
 6415TIP3   OH240659   0.518   1.952  15.123 -0.0437 -0.1257 -0.2880
 6415TIP3    H140660   0.536   2.034  15.077 -1.8955 -0.4951 -1.7246
 6415TIP3    H240661   0.574   1.955  15.200  1.0600  1.7781 -1.1406
 6416TIP3   OH240662   2.626   0.111  14.360 -0.6245  0.2067 -0.2660
 6416TIP3    H140663   2.714   0.143  14.378 -1.1665  0.8467  1.3889
 6416TIP3    H240664   2.623   0.100  14.265  0.5348  2.2672 -0.5704
 6417TIP3   OH240665   6.054   5.249  12.418  0.6722  0.1998 -0.3810
 6417TIP3    H140666   6.053   5.340  12.445 -2.0612 -0.1494  0.8721
 6417TIP3    H240667   6.135   5.213  12.455 -0.6612  0.9105  3.4557
 6418TIP3   OH240668   2.516   2.610  14.371 -0.1028 -0.1454 -0.0286
 6418TIP3    H140669   2.501   2.659  14.290 -0.1366  0.6802  0.4712
 6418TIP3    H240670   2.610   2.588  14.369  0.3089  1.4963  0.5934
 6419TIP3   OH240671   1.443   5.231  15.006  0.3310  0.1306 -0.6632
 6419TIP3    H140672   1.376   5.254  14.942 -0.5367  1.7751  0.7903
 6419TIP3    H240673   1.397   5.181  15.073  0.5917  1.0332  0.2033
 6420TIP3   OH240674   0.388   0.329   1.881 -0.2681  0.2532 -0.4973
 6420TIP3    H140675   0.406   0.379   1.960 -0.5821 -0.7034  0.1834
 6420TIP3    H240676   0.445   0.367   1.814  0.9194  0.2315  0.5001
 6421TIP3   OH240677   1.655   1.667  13.803  0.2405 -0.3303 -0.3104
 6421TIP3    H140678   1.587   1.620  13.755  1.1256 -3.3055  1.2416
 6421TIP3    H240679   1.668   1.616  13.883  2.8509  1.3235  0.3877
 6422TIP3   OH240680   2.207   1.924  12.095 -0.2975 -0.4595  0.2039
 6422TIP3    H140681   2.160   1.863  12.152 -0.6832 -1.5310 -1.2606
 6422TIP3    H240682   2.249   1.869  12.029  1.3684  0.6593  0.2910
 6423TIP3   OH240683   6.047   2.115  14.487 -0.1623 -0.5075 -0.1295
 6423TIP3    H140684   6.021   2.151  14.572 -0.1766 -0.3426 -0.2027
 6423TIP3    H240685   6.035   2.021  14.496 -2.3012 -0.3174 -0.6582
 6424TIP3   OH240686   2.721   0.723   0.610  0.7625  0.2777  0.3125
 6424TIP3    H140687   2.777   0.694   0.683 -1.4611 -1.3423  1.4304
 6424TIP3    H240688   2.665   0.790   0.648 -2.0821 -2.2885  0.8010
 6425TIP3   OH240689   2.965   0.605  13.783 -0.1873  0.1933 -0.1934
 6425TIP3    H140690   2.878   0.588  13.745 -0.2074  1.6795 -0.8511
 6425TIP3    H240691   2.948   0.668  13.853  0.5742  1.8838 -1.5000
 6426TIP3   OH240692   7.114   4.607   2.392  0.0321 -0.1030  0.6254
 6426TIP3    H140693   7.178   4.619   2.322  0.8806  0.3460  1.4582
 6426TIP3    H240694   7.145   4.663   2.463 -0.9753 -0.3221  1.2539
 6427TIP3   OH240695   6.483   0.113  15.067 -0.0275  0.3196  1.0193
 6427TIP3    H140696   6.493   0.018  15.070 -2.0895  0.0491 -0.1801
 6427TIP3    H240697   6.563   0.144  15.025  1.4017 -0.7168  2.8765
 6428TIP3   OH240698   1.110   0.040  14.395  0.4382 -0.1845  0.0430
 6428TIP3    H140699   1.109  -0.028  14.463 -1.3992 -0.2649 -0.0377
 6428TIP3    H240700   1.072  -0.002  14.318  1.6496  0.1899 -0.7780
 6429TIP3   OH240701   7.032   2.075   1.327 -0.2043 -0.5615 -0.1788
 6429TIP3    H140702   7.091   2.004   1.354 -0.9427 -0.9348  0.4616
 6429TIP3    H240703   6.946   2.049   1.360 -0.8955 -0.4248 -1.8506
 6430TIP3   OH240704   3.132   1.661  13.775 -0.2138  0.4815 -0.1390
 6430TIP3    H140705   3.184   1.581  13.765  1.2996  1.5945 -1.3497
 6430TIP3    H240706   3.052   1.632  13.820  0.6177 -1.5787  0.0617
 6431TIP3   OH240707   7.075   3.159  14.951 -0.7992  0.0845 -0.3000
 6431TIP3    H140708   7.120   3.145  15.034 -1.2041 -0.7427 -0.2162
 6431TIP3    H240709   6.992   3.199  14.975 -1.6271 -1.6864 -0.1663
 6432TIP3   OH240710   3.104   0.254  14.617 -0.4242  0.0084  0.1888
 6432TIP3    H140711   3.143   0.341  14.619  1.1527 -0.6622 -1.0623
 6432TIP3    H240712   3.049   0.255  14.539  0.0443 -0.3236 -0.1398
 6433TIP3   OH240713   1.412   0.619  14.353 -0.2256  0.5589 -0.5226
 6433TIP3    H140714   1.435   0.594  14.443  0.6400  1.8125 -0.3787
 6433TIP3    H240715   1.401   0.535  14.308 -2.5455 -0.1144  1.1822
 6434TIP3   OH240716   0.037   2.368  10.677  0.0489  0.5189 -0.4059
 6434TIP3    H140717   0.107   2.394  10.738 -0.6330  0.1271  0.5482
 6434TIP3    H240718  -0.031   2.331  10.733 -0.5544  0.0811 -1.4227
 6435TIP3   OH240719   1.495   3.668  12.928 -0.5339  0.1094  0.3448
 6435TIP3    H140720   1.447   3.636  12.852  2.4701  0.2370 -1.7147
 6435TIP3    H240721   1.565   3.603  12.941  0.5553  1.4370  1.3473
 6436TIP3   OH240722   4.270   0.602   2.116 -0.1000 -0.0276 -0.0368
 6436TIP3    H140723   4.304   0.601   2.026 -0.1074  0.7914 -0.0577
 6436TIP3    H240724   4.324   0.667   2.161 -1.3086  0.9379  0.0556
 6437TIP3   OH240725   5.842   2.670  12.466 -0.3531 -0.0994 -0.1750
 6437TIP3    H140726   5.920   2.693  12.417 -1.1778  0.9250 -1.0530
 6437TIP3    H240727   5.826   2.578  12.446  2.1378 -1.0964  2.1625
 6438TIP3   OH240728   0.235   1.370  11.138  0.5266  0.0431  1.0205
 6438TIP3    H140729   0.141   1.355  11.151 -0.1380  3.0490  0.2265
 6438TIP3    H240730   0.269   1.387  11.226 -0.7470  4.0222  0.8556
 6439TIP3   OH240731   4.629   0.887  12.102  0.1311  0.2654 -0.1209
 6439TIP3    H140732   4.589   0.974  12.106 -0.5179  0.0414 -1.4666
 6439TIP3    H240733   4.693   0.894  12.031 -1.2011 -0.8634 -1.4596
 6440TIP3   OH240734   6.574   4.123  14.159  0.1947 -0.2292 -0.3780
 6440TIP3    H140735   6.575   4.067  14.081 -1.0796 -2.2306  1.0042
 6440TIP3    H240736   6.487   4.162  14.160 -0.0662 -0.8206  0.4588
 6441TIP3   OH240737   0.928   6.853  12.080 -0.2048  0.2421 -0.1534
 6441TIP3    H140738   0.984   6.849  12.002  0.3195  1.1020  0.1757
 6441TIP3    H240739   0.923   6.763  12.111  1.3331  0.2252  0.0483
 6442TIP3   OH240740   6.645   4.570  12.774 -0.2555  0.3537  0.3284
 6442TIP3    H140741   6.646   4.650  12.721  0.5821  0.3764  0.3709
 6442TIP3    H240742   6.655   4.601  12.864  3.2587  0.0545  0.1164
 6443TIP3   OH240743   7.066   5.386  14.544  0.2124  0.4893 -0.7294
 6443TIP3    H140744   7.000   5.409  14.479 -3.9998 -1.3780  2.6379
 6443TIP3    H240745   7.078   5.291  14.532  0.2676  0.3472  0.4157
 6444TIP3   OH240746   2.448   2.410  13.394  0.3456 -0.6835 -0.7087
 6444TIP3    H140747   2.503   2.335  13.418  1.4070  0.1789 -0.4379
 6444TIP3    H240748   2.496   2.455  13.325  0.8501  1.0636  0.7334
 6445TIP3   OH240749   6.578   6.123  13.351  0.1498  0.2182 -0.3074
 6445TIP3    H140750   6.531   6.201  13.381 -0.3308  0.0231 -0.5406
 6445TIP3    H240751   6.644   6.107  13.418 -0.7174 -0.0412  0.4903
 6446TIP3   OH240752   5.575   0.477   0.159 -0.3775  0.2956  0.2693
 6446TIP3    H140753   5.480   0.478   0.172 -0.3563 -0.7042  0.4833
 6446TIP3    H240754   5.586   0.448   0.068 -0.2483 -0.1485  0.4303
 6447TIP3   OH240755   3.088   0.430  12.861 -0.6627  0.2057 -0.2326
 6447TIP3    H140756   3.146   0.356  12.879 -0.1710  0.7250  0.4045
 6447TIP3    H240757   3.148   0.503  12.845 -1.1430  0.6749  0.0954
 6448TIP3   OH240758   0.435   4.906  13.032 -0.4179 -0.3705  0.1510
 6448TIP3    H140759   0.375   4.851  12.983  0.9107 -1.2153 -0.5588
 6448TIP3    H240760   0.432   4.991  12.988 -3.1840  0.4574  1.8145
 6449TIP3   OH240761   1.027   3.637  14.393 -0.9231 -0.4754 -0.1752
 6449TIP3    H140762   1.055   3.716  14.348 -0.5446  0.1691  1.1666
 6449TIP3    H240763   1.099   3.617  14.454 -1.2570 -1.5321 -0.1089
 6450TIP3   OH240764   1.003   3.069  12.499  0.2379 -0.2284 -0.4868
 6450TIP3    H140765   0.957   3.149  12.474  0.8028  0.0647 -0.6086
 6450TIP3    H240766   0.949   3.030  12.567  0.2876  0.5954  0.0358
 6451TIP3   OH240767   5.566   4.381  15.418  0.2235 -0.0657  0.1772
 6451TIP3    H140768   5.519   4.301  15.393 -0.3038 -0.4479  2.3343
 6451TIP3    H240769   5.555   4.439  15.342 -0.4537 -1.5588 -0.9095
 6452TIP3   OH240770   0.031   3.631  11.946  0.0113 -0.4522  0.0181
 6452TIP3    H140771   0.111   3.585  11.967  0.9780  1.1036 -0.1342
 6452TIP3    H240772   0.022   3.622  11.851 -0.0510 -0.7354  0.0528
 6453TIP3   OH240773   0.931   3.270  12.052  0.1115  0.0636 -0.9549
 6453TIP3    H140774   0.995   3.286  12.121 -0.2992 -0.4722 -0.4438
 6453TIP3    H240775   0.967   3.315  11.975  2.0219 -1.7550 -1.1620
 6454TIP3   OH240776   1.048   3.174  14.524  0.0376  0.0993  0.0709
 6454TIP3    H140777   1.021   3.266  14.530 -2.1588 -0.4731 -0.8109
 6454TIP3    H240778   1.044   3.142  14.615 -1.6367  0.2071  0.0462
 6455TIP3   OH240779   3.350   1.404   2.387 -0.0088 -0.3221 -0.0201
 6455TIP3    H140780   3.310   1.462   2.452 -0.9962 -2.1857  1.1063
 6455TIP3    H240781   3.284   1.396   2.318  0.3495  0.2989 -0.4445
 6456TIP3   OH240782   4.249   2.313   2.926 -0.2234  0.7000 -0.0758
 6456TIP3    H140783   4.310   2.375   2.885  1.3264 -1.1743 -0.6356
 6456TIP3    H240784   4.172   2.316   2.869 -0.4923  2.6616  0.3298
 6457TIP3   OH240785   6.482   4.731  15.161 -0.3541 -0.2881  0.8142
 6457TIP3    H140786   6.460   4.824  15.165 -0.0117 -0.2270  1.5204
 6457TIP3    H240787   6.575   4.730  15.139 -0.9696 -0.5337 -1.8623
 6458TIP3   OH240788   1.095   6.059  11.524  0.2043  0.0713 -0.7156
 6458TIP3    H140789   1.064   6.106  11.602 -0.9244 -0.3460 -0.9012
 6458TIP3    H240790   1.184   6.091  11.511  0.6097 -0.2466  1.0541
 6459TIP3   OH240791   6.273   1.811  11.857  0.5454 -0.0368  0.3634
 6459TIP3    H140792   6.234   1.733  11.897  3.1357 -1.0778  0.9782
 6459TIP3    H240793   6.217   1.829  11.781 -0.8383 -1.7375  0.9360
 6460TIP3   OH240794   3.757   0.591   2.137 -0.0292  0.2960 -0.3324
 6460TIP3    H140795   3.728   0.502   2.116 -1.0730  0.5800 -0.1559
 6460TIP3    H240796   3.820   0.580   2.208 -0.9725 -0.2274  0.4349
 6461TIP3   OH240797   0.764   3.326  14.125  0.3211  0.3011  0.8102
 6461TIP3    H140798   0.801   3.271  14.194 -1.6883  0.0832  1.7597
 6461TIP3    H240799   0.764   3.414  14.161  0.0563  0.3208  0.7668
 6462TIP3   OH240800   3.175   6.264  13.283 -0.5278 -0.1966 -0.1373
 6462TIP3    H140801   3.208   6.315  13.209 -0.9236 -0.5456 -0.5561
 6462TIP3    H240802   3.109   6.206  13.245  0.3919 -1.5050  0.2123
 6463TIP3   OH240803   5.053   4.258  11.774  0.0647 -0.0273 -0.3949
 6463TIP3    H140804   5.015   4.297  11.695 -1.4022  1.9758  1.2381
 6463TIP3    H240805   5.032   4.320  11.843  0.1021 -2.4140  1.8232
 6464TIP3   OH240806   0.069   3.478  13.297 -0.0640 -0.0311 -0.2030
 6464TIP3    H140807   0.100   3.394  13.265 -2.1520 -0.7083 -0.5297
 6464TIP3    H240808   0.037   3.523  13.219  0.2598  0.7233  0.0948
 6465TIP3   OH240809   1.906   0.851  10.208 -0.0609  0.2216  0.0966
 6465TIP3    H140810   1.914   0.758  10.191  1.0528  0.3776 -0.2394
 6465TIP3    H240811   1.935   0.893  10.127 -0.6694  0.8548  0.2045
 6466TIP3   OH240812   6.146   3.249  14.096 -0.5565  0.3951  0.9541
 6466TIP3    H140813   6.131   3.252  14.002  0.5473 -1.4976  0.6916
 6466TIP3    H240814   6.136   3.339  14.125  0.7821  1.2738 -1.2310
 6467TIP3   OH240815   6.760   6.531   0.203 -0.1741 -0.1997  0.1991
 6467TIP3    H140816   6.719   6.521   0.289  1.4690 -1.6974  0.8572
 6467TIP3    H240817   6.839   6.477   0.208 -0.8274 -1.5478 -2.7855
 6468TIP3   OH240818   1.680   4.302   0.423  0.4483 -0.4189  0.0588
 6468TIP3    H140819   1.716   4.389   0.411  1.1071 -0.6548  0.2754
 6468TIP3    H240820   1.664   4.269   0.335  0.6298 -0.2550 -0.0335
 6469TIP3   OH240821   6.671   4.067  13.565  0.2872  0.0509 -0.0758
 6469TIP3    H140822   6.659   4.048  13.472 -0.0528 -0.0195 -0.0189
 6469TIP3    H240823   6.618   4.001  13.610 -2.0830  1.9835  0.0771
 6470TIP3   OH240824   2.491   0.605  12.300 -0.0269 -0.5094 -0.0833
 6470TIP3    H140825   2.481   0.690  12.257  1.1975  0.0674  0.7515
 6470TIP3    H240826   2.534   0.550  12.234  0.2862 -0.1199 -0.2093
 6471TIP3   OH240827   6.428   2.157  15.286 -0.5010  0.1319  0.4541
 6471TIP3    H140828   6.439   2.249  15.262 -1.4075  0.3596  0.8993
 6471TIP3    H240829   6.505   2.137  15.339  0.7411  0.0556 -1.3378
 6472TIP3   OH240830   6.987   5.269  12.968 -0.3111  0.0536  0.0610
 6472TIP3    H140831   6.990   5.362  12.989  2.0361  0.6071 -2.4058
 6472TIP3    H240832   6.945   5.264  12.883  1.0469 -0.9488 -0.5809
 6473TIP3   OH240833   0.163   2.663  14.416  0.3601 -0.8361 -0.1441
 6473TIP3    H140834   0.069   2.650  14.406  0.4940 -2.9469  1.2094
 6473TIP3    H240835   0.172   2.755  14.440 -1.3768 -0.7224  0.1211
 6474TIP3   OH240836   1.114   6.517  12.894  0.3762 -0.2474  0.4383
 6474TIP3    H140837   1.165   6.481  12.967  1.8206  1.9509  0.5764
 6474TIP3    H240838   1.127   6.454  12.823 -0.2479 -1.9098  1.7756
 6475TIP3   OH240839   2.866   6.230   1.470  0.5685  0.2300 -0.2650
 6475TIP3    H140840   2.935   6.166   1.483 -0.7028 -0.9568  0.7819
 6475TIP3    H240841   2.900   6.289   1.403  0.7309 -3.0416 -3.1672
 6476TIP3   OH240842   6.719   1.514  13.166 -0.3307  0.3409 -0.1657
 6476TIP3    H140843   6.637   1.525  13.215  0.2045  1.3949  0.5134
 6476TIP3    H240844   6.788   1.519  13.232  0.3067 -0.0441 -0.7915
 6477TIP3   OH240845   1.797   4.334  14.989 -0.0107 -0.0507 -0.8066
 6477TIP3    H140846   1.854   4.335  15.066  0.7266 -1.5322 -1.3047
 6477TIP3    H240847   1.824   4.410  14.939 -0.1940  0.6770  0.1844
 6478TIP3   OH240848   3.534   5.239  10.323 -0.2639  0.5472  0.5493
 6478TIP3    H140849   3.482   5.319  10.336 -1.6309  0.0059 -1.4242
 6478TIP3    H240850   3.538   5.200  10.411 -2.0504  1.3012  0.9988
 6479TIP3   OH240851   6.723   3.683  14.053 -0.3257 -0.0127 -0.4126
 6479TIP3    H140852   6.794   3.708  13.994  0.1188  0.1992  0.2072
 6479TIP3    H240853   6.767   3.638  14.126 -0.8704 -0.2927 -0.2573
 6480TIP3   OH240854   6.178   0.724   0.499  0.4485 -0.5241  0.3842
 6480TIP3    H140855   6.187   0.664   0.425  2.2361  0.3445 -0.1213
 6480TIP3    H240856   6.087   0.713   0.527 -0.0104 -1.4970 -1.3927
 6481TIP3   OH240857   6.248   0.092  10.835 -0.0715  0.2738  0.4727
 6481TIP3    H140858   6.172   0.086  10.777 -1.1994 -1.3758  2.0732
 6481TIP3    H240859   6.302   0.016  10.813 -0.0699  0.1286  0.9661
 6482TIP3   OH240860   6.903   0.138  10.596  0.2542  0.2315 -0.2146
 6482TIP3    H140861   6.860   0.163  10.514 -0.6300 -0.3552  0.0642
 6482TIP3    H240862   6.850   0.179  10.664  0.8592  0.5281  0.0832
 6483TIP3   OH240863   2.107   2.971  15.030  0.4015 -0.3732 -0.2714
 6483TIP3    H140864   2.142   2.890  15.068  1.5057 -0.5789 -1.6906
 6483TIP3    H240865   2.172   2.996  14.964  2.0560  3.7431  2.7151
 6484TIP3   OH240866   3.646   5.017  14.368 -0.3304 -0.1359 -0.0635
 6484TIP3    H140867   3.570   4.961  14.347 -0.4682  0.0573 -0.0824
 6484TIP3    H240868   3.646   5.084  14.300  0.3762 -0.6396 -0.5638
 6485TIP3   OH240869   1.952   3.726  15.062  0.0820 -0.3767  0.4895
 6485TIP3    H140870   1.979   3.793  15.000  1.6244  0.4222  1.9719
 6485TIP3    H240871   1.867   3.756  15.095 -0.5020 -0.5521 -0.8382
 6486TIP3   OH240872   1.385   4.170  13.132 -0.1090  0.4454 -0.3470
 6486TIP3    H140873   1.440   4.112  13.184 -0.3265 -0.4724 -1.1053
 6486TIP3    H240874   1.446   4.225  13.083  0.3090 -2.7857 -3.7000
 6487TIP3   OH240875   2.108   4.362  14.011  0.1802 -0.6194  0.6004
 6487TIP3    H140876   2.103   4.270  13.985  0.9552 -0.4588 -0.1259
 6487TIP3    H240877   2.054   4.367  14.090 -1.6807 -1.2411 -0.6004
 6488TIP3   OH240878   2.358   4.711  12.875 -0.4412 -0.1487 -0.2783
 6488TIP3    H140879   2.334   4.648  12.807 -2.3054 -0.1956  0.3842
 6488TIP3    H240880   2.324   4.795  12.842 -2.2576 -0.3415  1.0140
 6489TIP3   OH240881   6.989   4.855  12.177  0.1108 -0.0928 -0.1388
 6489TIP3    H140882   7.033   4.797  12.115  2.9845  0.7517  0.9850
 6489TIP3    H240883   7.002   4.943  12.141 -0.4107  0.1915  0.3570
 6490TIP3   OH240884   0.308   4.636  14.264 -0.5352 -0.1100 -0.4219
 6490TIP3    H140885   0.333   4.546  14.243 -0.1060  0.4611 -2.5111
 6490TIP3    H240886   0.234   4.653  14.205 -0.9235  0.7395  0.3186
 6491TIP3   OH240887   3.203   3.641  14.948  0.2960 -0.3470  0.2587
 6491TIP3    H140888   3.269   3.649  15.017  0.3657  2.0843 -0.0294
 6491TIP3    H240889   3.223   3.713  14.888 -3.1961  1.0766  0.6946
 6492TIP3   OH240890   6.843   1.286  13.499  0.0159 -1.0897 -0.0719
 6492TIP3    H140891   6.898   1.333  13.562 -2.9989  0.3701  1.6018
 6492TIP3    H240892   6.866   1.324  13.414 -0.1240  1.2124  0.8856
 6493TIP3   OH240893   0.107   3.477  15.153  0.1673 -0.0447  0.2504
 6493TIP3    H140894   0.175   3.542  15.136 -0.1324  0.0284 -0.7139
 6493TIP3    H240895   0.049   3.483  15.077  1.1167 -2.6759 -0.7723
 6494TIP3   OH240896   3.341   6.896  10.351 -0.0236  0.2852 -0.3957
 6494TIP3    H140897   3.246   6.888  10.342 -0.1032  0.2098  0.4893
 6494TIP3    H240898   3.356   6.990  10.363  0.1042  0.4150 -1.5413
 6495TIP3   OH240899   1.948   2.524   0.376 -0.4468 -0.3161 -1.2961
 6495TIP3    H140900   1.966   2.609   0.337 -1.4824  0.3667 -0.3045
 6495TIP3    H240901   1.853   2.515   0.371 -0.5556 -0.4380  0.5858
 6496TIP3   OH240902   6.759   0.310   0.632 -0.6871  0.5353  0.6199
 6496TIP3    H140903   6.779   0.328   0.540  1.4983 -1.8557  0.5697
 6496TIP3    H240904   6.678   0.259   0.629  0.0990 -0.6963 -0.0973
 6497TIP3   OH240905   2.479   5.465  13.643 -0.4024 -0.6608  0.2290
 6497TIP3    H140906   2.501   5.425  13.559  0.1289 -0.3881  0.2373
 6497TIP3    H240907   2.530   5.546  13.646  0.4412 -1.2025  1.2776
 6498TIP3   OH240908   6.941   0.695  12.513  0.6177  0.1201 -0.6072
 6498TIP3    H140909   6.903   0.697  12.601  1.8462  3.7685 -0.0500
 6498TIP3    H240910   7.015   0.634  12.520 -1.0203 -1.8435  0.0624
 6499TIP3   OH240911   0.665   0.919   0.985  0.7890  0.3722 -0.4354
 6499TIP3    H140912   0.752   0.899   1.019 -0.0361 -3.1898 -0.2370
 6499TIP3    H240913   0.607   0.917   1.061  0.3745  1.9330 -0.6836
 6500TIP3   OH240914   2.227   0.419  15.552  0.4724  0.2826 -0.0201
 6500TIP3    H140915   2.293   0.392  15.615  0.8125  1.2146  0.0329
 6500TIP3    H240916   2.232   0.515  15.551 -0.4942  0.3399 -0.4230
 6501TIP3   OH240917   5.860   2.665  14.743  0.1936 -0.3263  0.0454
 6501TIP3    H140918   5.779   2.643  14.789  1.4794  1.7856  3.4795
 6501TIP3    H240919   5.899   2.580  14.724 -2.4257 -1.3577 -0.9744
 6502TIP3   OH240920   6.924   2.727  11.945  0.1589  0.0704 -0.1059
 6502TIP3    H140921   6.987   2.694  11.881 -1.3025 -0.9486 -1.0489
 6502TIP3    H240922   6.849   2.668  11.937 -1.7255  2.4348 -0.4289
 6503TIP3   OH240923   3.073   2.809   0.254 -0.0285 -0.0782  0.3130
 6503TIP3    H140924   3.082   2.883   0.194  1.3654  0.3240  0.9966
 6503TIP3    H240925   3.096   2.732   0.201  0.1549  0.1649  0.0380
 6504TIP3   OH240926   3.530   4.806  13.981 -0.3360 -0.1462 -0.2109
 6504TIP3    H140927   3.475   4.830  14.055 -1.8078  0.3953 -1.4601
 6504TIP3    H240928   3.475   4.748  13.928  0.5226 -0.1309 -1.1341
 6505TIP3   OH240929   3.516   6.223   5.055 -0.0438 -0.0565 -0.2126
 6505TIP3    H140930   3.571   6.239   4.978 -0.4911  0.5738 -0.4070
 6505TIP3    H240931   3.570   6.252   5.129  0.1986 -0.2037 -0.3317
 6506TIP3   OH240932   5.895   6.830  10.029  0.5334 -0.3720  0.2311
 6506TIP3    H140933   5.900   6.748   9.979  0.1288 -0.3771  0.1948
 6506TIP3    H240934   5.884   6.898   9.962 -1.3646 -0.5058  0.3658
 6507TIP3   OH240935   2.934   4.183  15.211 -0.2804 -0.5301  1.2348
 6507TIP3    H140936   2.917   4.225  15.295  0.6031 -2.7923  2.5646
 6507TIP3    H240937   2.920   4.090  15.226 -1.0778 -0.8915 -1.3768
 6508TIP3   OH240938   3.147   2.492   0.654  0.0640 -0.2238  0.1046
 6508TIP3    H140939   3.105   2.577   0.670  1.0737  0.3527 -0.2175
 6508TIP3    H240940   3.076   2.429   0.657 -0.8166  0.7271 -0.3994
 6509TIP3   OH240941   6.957   0.040  14.851 -0.1149  0.1229 -0.3342
 6509TIP3    H140942   6.977   0.117  14.798  0.8156 -1.2328 -2.0387
 6509TIP3    H240943   6.992  -0.033  14.800  2.7049 -1.1013  3.1073
 6510TIP3   OH240944   2.377   5.230   3.183 -0.6969 -0.5091 -0.6600
 6510TIP3    H140945   2.350   5.182   3.105  0.2015 -1.3800 -0.4391
 6510TIP3    H240946   2.455   5.184   3.214 -1.5142 -0.6845  1.2288
 6511TIP3   OH240947   6.857   6.999  12.592 -0.0549 -0.3129 -0.6599
 6511TIP3    H140948   6.899   6.923  12.552 -0.2803  0.0864 -1.6745
 6511TIP3    H240949   6.779   7.015  12.538  0.8512  1.6105 -1.4546
 6512TIP3   OH240950   5.920   2.505   0.868  0.1366 -0.4064 -0.2408
 6512TIP3    H140951   5.989   2.496   0.803 -0.3705  0.1634 -0.8616
 6512TIP3    H240952   5.855   2.438   0.845 -0.5453  0.4930 -0.9643
 6513TIP3   OH240953   5.372   3.587  10.052  0.0392 -0.0396 -0.2229
 6513TIP3    H140954   5.343   3.672  10.085 -2.2812 -0.2158 -1.7459
 6513TIP3    H240955   5.392   3.536  10.131  0.9539  1.7039  0.7122
 6514TIP3   OH240956   6.918   1.220  13.907 -0.3726 -0.0880  0.1286
 6514TIP3    H140957   6.905   1.172  13.825 -1.4985  0.1019  0.1793
 6514TIP3    H240958   6.876   1.305  13.891  1.2798  0.7491  0.1645
 6515TIP3   OH240959   5.710   4.854  14.027 -0.1044  0.5692 -0.8985
 6515TIP3    H140960   5.683   4.926  14.084 -0.7507 -1.2061  1.1195
 6515TIP3    H240961   5.642   4.850  13.959 -0.4001  1.4692 -0.6603
 6516TIP3   OH240962   2.929   7.145  14.215  0.5523  0.0448  0.0870
 6516TIP3    H140963   2.884   7.071  14.174 -0.9098  0.6767  0.4881
 6516TIP3    H240964   3.008   7.158  14.163 -0.3184 -0.3631 -1.3750
 6517TIP3   OH240965   0.678   1.847  13.387  0.0621 -0.2418  0.3159
 6517TIP3    H140966   0.722   1.801  13.459 -0.9964  0.0883  1.1825
 6517TIP3    H240967   0.744   1.908  13.353  0.9016 -1.1450  0.3099
 6518TIP3   OH240968   5.671   3.916  15.042 -0.6994 -0.1597  0.3099
 6518TIP3    H140969   5.597   3.865  15.009 -0.4529  0.6957 -1.6236
 6518TIP3    H240970   5.733   3.919  14.969  1.3940 -1.1017  1.9900
 6519TIP3   OH240971   1.202   6.308   2.830  0.4686  0.5725  0.0757
 6519TIP3    H140972   1.190   6.397   2.798 -1.6755  0.1977 -0.1822
 6519TIP3    H240973   1.271   6.272   2.775  1.0385  1.9073 -0.1166
 6520TIP3   OH240974   1.018   3.768   2.527 -0.5996  0.6364  0.4264
 6520TIP3    H140975   1.100   3.804   2.492  0.4857 -0.7634  1.4973
 6520TIP3    H240976   1.013   3.802   2.617 -0.7526  0.0011  0.6598
 6521TIP3   OH240977   1.252   1.848   0.263 -0.5130  0.7787 -0.2098
 6521TIP3    H140978   1.160   1.834   0.283 -0.5583  0.0104 -0.9483
 6521TIP3    H240979   1.298   1.817   0.341 -0.8155 -0.0030 -0.3382
 6522TIP3   OH240980   5.568   6.765  15.164  0.3357  0.0928 -0.4676
 6522TIP3    H140981   5.480   6.799  15.181  0.1305  0.0433 -1.4479
 6522TIP3    H240982   5.587   6.711  15.241  0.3467  1.7572  0.7493
 6523TIP3   OH240983   5.294   1.709  14.660  0.0063 -0.0371 -0.4053
 6523TIP3    H140984   5.318   1.652  14.733  2.0005  0.7307 -0.4177
 6523TIP3    H240985   5.206   1.682  14.636 -0.2819 -0.9872  1.6292
 6524TIP3   OH240986   3.397   1.062  13.116 -0.5114  0.0902  0.7826
 6524TIP3    H140987   3.404   1.047  13.210  0.0335  0.0315  0.7325
 6524TIP3    H240988   3.472   1.015  13.079 -0.4689  0.4917  0.3589
 6525TIP3   OH240989   2.361   0.347   0.220 -0.0988  0.0320 -0.2293
 6525TIP3    H140990   2.452   0.370   0.203 -0.0561  0.6743  0.7796
 6525TIP3    H240991   2.363   0.305   0.306 -0.7217 -0.1795 -0.3176
 6526TIP3   OH240992   0.084   4.757   2.559  0.3871 -0.0226  0.5156
 6526TIP3    H140993   0.160   4.746   2.616  0.1292 -0.5800  0.7581
 6526TIP3    H240994   0.113   4.820   2.492  0.4464  1.2521  1.7018
 6527TIP3   OH240995   5.246   5.035  13.824  0.0522 -0.2567 -0.0284
 6527TIP3    H140996   5.170   5.075  13.781  0.5417  0.3526 -0.3347
 6527TIP3    H240997   5.228   5.043  13.918  0.9482  2.2467 -0.0598
 6528TIP3   OH240998   2.964   6.076  11.797  0.3273 -0.3295 -0.0932
 6528TIP3    H140999   2.888   6.025  11.823 -0.6229  0.7171 -0.7832
 6528TIP3    H241000   2.977   6.139  11.868  1.4436 -1.4493  0.7161
 6529TIP3   OH241001   0.994   3.036  13.948  0.0858 -0.1963 -0.0390
 6529TIP3    H141002   0.917   3.006  13.996 -0.4049  1.2871  0.1498
 6529TIP3    H241003   1.006   2.972  13.878  0.1038 -1.7270  1.3595
 6530TIP3   OH241004   2.093   5.085  13.163  0.0396  0.3105  0.0174
 6530TIP3    H141005   2.085   5.176  13.190 -1.1092 -0.3745  2.1590
 6530TIP3    H241006   2.166   5.084  13.101 -0.3011  2.7605 -0.4622
 6531TIP3   OH241007   5.836   1.983  14.905 -0.1932 -0.3233  0.2314
 6531TIP3    H141008   5.928   1.973  14.930  0.0862  0.7382 -0.3385
 6531TIP3    H241009   5.792   2.006  14.987 -0.2105 -2.2466  0.7958
 6532TIP3   OH241010   6.424   2.170  11.319 -0.4228 -0.8156 -0.1578
 6532TIP3    H141011   6.368   2.244  11.343  0.9007  0.4670 -1.0250
 6532TIP3    H241012   6.472   2.150  11.400  0.3227  0.2614 -0.3160
 6533TIP3   OH241013   2.019   1.659   0.669 -0.0416 -0.4141  0.4890
 6533TIP3    H141014   2.069   1.711   0.730 -0.1272 -0.0975  0.2909
 6533TIP3    H241015   1.949   1.621   0.721 -0.8140  0.8040  0.3598
 6534TIP3   OH241016   5.377   1.854  13.026 -0.1573  0.2132 -0.0663
 6534TIP3    H141017   5.345   1.807  13.104 -0.8433 -0.5296 -0.7884
 6534TIP3    H241018   5.466   1.879  13.049 -0.5720  0.5831  1.2193
 6535TIP3   OH241019   2.645   4.492  15.460  0.0711  0.6845  0.0045
 6535TIP3    H141020   2.561   4.505  15.416  0.0511  1.4093  0.2615
 6535TIP3    H241021   2.623   4.446  15.541  0.3303 -2.7062 -1.7707
 6536TIP3   OH241022   2.680   1.038  13.716 -0.0397  0.5695 -0.1568
 6536TIP3    H141023   2.665   1.094  13.640  0.7759 -0.8808 -1.4234
 6536TIP3    H241024   2.621   0.963  13.702  0.4692  0.0629  0.3830
 6537TIP3   OH241025   6.244   6.504  11.314 -0.2258 -0.4765  0.2746
 6537TIP3    H141026   6.292   6.421  11.305 -0.6117 -0.8102  1.1780
 6537TIP3    H241027   6.163   6.491  11.266  0.7927  0.2674 -1.6856
 6538TIP3   OH241028   3.198   7.042  14.116  0.1625  0.0514 -0.5149
 6538TIP3    H141029   3.172   7.120  14.067  0.7444 -0.6292 -1.9452
 6538TIP3    H241030   3.274   7.069  14.166  0.9567  0.1712 -1.7509
 6539TIP3   OH241031   6.406   2.614   0.039 -0.6010  0.5253  0.0801
 6539TIP3    H141032   6.374   2.547   0.099  0.1578  1.0420  1.0837
 6539TIP3    H241033   6.492   2.582   0.010  0.6720  1.9627  2.1170
 6540TIP3   OH241034   5.592   3.764  14.601  0.3229 -0.0943  0.0947
 6540TIP3    H141035   5.618   3.855  14.611  1.3793 -0.1487 -1.9554
 6540TIP3    H241036   5.607   3.744  14.509  0.2248 -2.3842  0.5330
 6541TIP3   OH241037   4.724   6.692  11.268 -0.1790  0.2454 -0.3698
 6541TIP3    H141038   4.692   6.681  11.179  0.7197  0.8104 -0.7661
 6541TIP3    H241039   4.810   6.733  11.258 -0.9055  2.1357  0.8303
 6542TIP3   OH241040   1.488   3.844  13.619  0.4392  0.3937 -0.1280
 6542TIP3    H141041   1.562   3.783  13.611  0.3511 -0.0793  2.2576
 6542TIP3    H241042   1.522   3.917  13.670 -1.0847 -0.5549  2.3861
 6543TIP3   OH241043   0.953   4.601  14.429 -0.4256 -0.0970 -0.7845
 6543TIP3    H141044   0.958   4.632  14.338  2.6241  0.4774 -0.4814
 6543TIP3    H241045   1.024   4.537  14.436 -0.1680  0.3871  1.3801
 6544TIP3   OH241046   6.680   3.916  14.952  0.0415 -0.2249  0.5682
 6544TIP3    H141047   6.697   3.980  15.021 -0.3752 -1.1681  1.5620
 6544TIP3    H241048   6.622   3.962  14.891 -0.9672  0.0790  1.7187
 6545TIP3   OH241049   2.917   0.794   1.615 -0.7878  0.6928 -0.4572
 6545TIP3    H141050   3.002   0.764   1.581  0.0998  2.0903  0.4588
 6545TIP3    H241051   2.887   0.859   1.552 -0.7274  0.8709 -0.3038
 6546TIP3   OH241052   5.933   5.988  14.386 -0.2684 -0.1003 -0.1674
 6546TIP3    H141053   5.895   5.923  14.326  1.0440 -0.2073 -0.9024
 6546TIP3    H241054   5.928   6.071  14.338 -2.3467  0.4444  0.9439
 6547TIP3   OH241055   1.057   6.691  14.452 -0.1843 -0.4070  0.1647
 6547TIP3    H141056   1.053   6.598  14.473  0.1601 -0.6394 -0.7767
 6547TIP3    H241057   1.043   6.695  14.357 -0.6035  0.5313  0.2591
 6548TIP3   OH241058   3.270   2.034  12.506  0.0755  0.2567 -0.9035
 6548TIP3    H141059   3.272   1.944  12.474  0.6981  0.6360 -1.9586
 6548TIP3    H241060   3.362   2.059  12.513 -0.0990  0.8730 -0.7922
 6549TIP3   OH241061   4.111   2.784  14.328  0.0295  0.1704 -0.4100
 6549TIP3    H141062   4.170   2.737  14.387 -2.2999 -3.1923 -0.5729
 6549TIP3    H241063   4.033   2.801  14.381 -0.3065  1.2278 -1.2370
 6550TIP3   OH241064   0.128   2.206   3.057  0.2387  0.0054 -0.2085
 6550TIP3    H141065   0.071   2.199   3.133 -1.1103 -1.5010 -1.3194
 6550TIP3    H241066   0.165   2.118   3.046  1.3857  0.5176 -0.5664
 6551TIP3   OH241067   3.086   3.201  15.285  0.6510 -0.5495  0.3841
 6551TIP3    H141068   3.086   3.241  15.372 -2.2252  0.3399  0.0102
 6551TIP3    H241069   3.129   3.266  15.229 -1.1828  0.6873  0.3833
 6552TIP3   OH241070   3.092   0.383  11.898  0.2152 -0.2754  0.1929
 6552TIP3    H141071   3.075   0.450  11.964 -0.1832  0.5873 -0.7737
 6552TIP3    H241072   3.154   0.424  11.838 -0.0509 -0.7610 -0.4189
 6553TIP3   OH241073   4.246   0.696   9.940  0.2581 -0.5590  0.4865
 6553TIP3    H141074   4.235   0.785   9.907 -0.0922 -0.7150  0.1802
 6553TIP3    H241075   4.183   0.644   9.890 -0.3072 -0.7846  1.4418
 6554TIP3   OH241076   4.388   5.637  13.536  0.0223  0.6196 -0.1010
 6554TIP3    H141077   4.454   5.569  13.524 -0.2510  0.3361  0.0155
 6554TIP3    H241078   4.400   5.695  13.460 -0.1668  0.0959 -0.5382
 6555TIP3   OH241079   1.271   2.906  15.125 -0.0213  0.2122  0.5407
 6555TIP3    H141080   1.206   2.972  15.147  2.6267  2.6933  1.2270
 6555TIP3    H241081   1.300   2.872  15.209 -1.4033 -1.9469  0.1920
 6556TIP3   OH241082   6.734   4.883   0.128 -0.3183  0.4000  0.7923
 6556TIP3    H141083   6.769   4.800   0.098 -1.7281  0.0024  0.2079
 6556TIP3    H241084   6.793   4.910   0.199  1.5223  0.0823 -0.5622
 6557TIP3   OH241085   6.232   0.882  13.542 -0.3175 -0.4985 -0.3327
 6557TIP3    H141086   6.327   0.882  13.529 -0.3677  3.1452 -1.2961
 6557TIP3    H241087   6.218   0.946  13.612 -2.0035 -2.0963  0.8443
 6558TIP3   OH241088   0.581   1.183   0.930 -0.2208  0.6038 -0.4997
 6558TIP3    H141089   0.487   1.167   0.943 -0.4932  1.8377 -0.8180
 6558TIP3    H241090   0.620   1.096   0.922 -1.8006  0.1306 -3.5792
 6559TIP3   OH241091   3.251   3.695  10.887  0.6819 -0.0837  1.2045
 6559TIP3    H141092   3.267   3.790  10.886  1.0073 -0.1402  1.2053
 6559TIP3    H241093   3.337   3.656  10.902  0.3958 -0.3336  2.2380
 6560TIP3   OH241094   4.211   1.710   2.315 -0.2536  0.0944 -0.0163
 6560TIP3    H141095   4.223   1.728   2.408 -0.3285 -1.0904  0.2321
 6560TIP3    H241096   4.299   1.717   2.278 -0.1921  0.3561  0.1739
 6561TIP3   OH241097   3.451   3.800   1.070 -0.6914  0.3079  0.1054
 6561TIP3    H141098   3.381   3.739   1.093 -1.3506  1.5316  1.3992
 6561TIP3    H241099   3.428   3.881   1.115  0.3240  1.4327 -1.3728
 6562TIP3   OH241100   3.564   1.426  14.739 -0.3093  0.6438 -0.0089
 6562TIP3    H141101   3.575   1.519  14.716  0.4436 -0.0137 -2.4652
 6562TIP3    H241102   3.548   1.427  14.834  0.0260  3.2513  0.0729
 6563TIP3   OH241103   0.565   2.685  12.911  0.6359 -0.3522 -0.0995
 6563TIP3    H141104   0.562   2.656  13.003 -0.2959 -1.9757 -0.6322
 6563TIP3    H241105   0.590   2.606  12.862  0.2762  0.2952 -1.3359
 6564TIP3   OH241106   6.534   1.240  14.636 -0.2876 -0.0724  0.5703
 6564TIP3    H141107   6.615   1.189  14.651 -0.2197  0.2176  1.2408
 6564TIP3    H241108   6.559   1.330  14.656 -0.6670  0.0800  0.3529
 6565TIP3   OH241109   6.853   2.614   0.051 -0.6116 -0.0615  0.2675
 6565TIP3    H141110   6.797   2.581   0.121  0.7392 -0.3339  1.2224
 6565TIP3    H241111   6.933   2.642   0.094 -0.1872  0.8005 -1.0311
 6566TIP3   OH241112   0.784   0.846  14.440  0.1532  0.0516  0.1431
 6566TIP3    H141113   0.815   0.936  14.433  0.5790 -0.1310 -0.3094
 6566TIP3    H241114   0.689   0.855  14.454 -0.0783  0.5476 -1.5549
 6567TIP3   OH241115   1.041   1.813  14.750  0.3512  0.0941  0.5560
 6567TIP3    H141116   0.999   1.812  14.836 -0.4707  3.1936  0.2575
 6567TIP3    H241117   0.979   1.859  14.694  1.4410 -0.7828 -1.4231
 6568TIP3   OH241118   7.077   2.475  12.810  0.1899  0.3710 -0.2625
 6568TIP3    H141119   7.023   2.448  12.735 -0.4334  1.8672 -0.3720
 6568TIP3    H241120   7.040   2.559  12.836  1.0792  0.3474  1.0759
 6569TIP3   OH241121   1.706   0.768  12.711 -0.4721  0.5527  0.1234
 6569TIP3    H141122   1.621   0.727  12.700 -0.3348  0.4472 -0.5606
 6569TIP3    H241123   1.756   0.705  12.763 -0.5446  0.2396 -0.1826
 6570TIP3   OH241124   5.032   7.022  14.579  0.0337  0.0043 -0.2102
 6570TIP3    H141125   5.050   7.027  14.485 -1.9397 -0.8031 -0.6475
 6570TIP3    H241126   4.940   7.045  14.588 -0.1071 -1.0665  1.4088
 6571TIP3   OH241127   3.191   5.788  14.108  0.4631  0.2993  0.2201
 6571TIP3    H141128   3.125   5.720  14.126  1.6632 -0.9712 -0.0747
 6571TIP3    H241129   3.222   5.813  14.195  0.1763  0.3137  0.3217
 6572TIP3   OH241130   6.873   6.960  15.028 -0.1682  0.1574 -0.4716
 6572TIP3    H141131   6.956   6.956  14.982 -0.1068  1.5923 -0.5045
 6572TIP3    H241132   6.875   6.885  15.088  2.0476  1.3632  1.0371
 6573TIP3   OH241133   5.255   4.710   2.736 -0.3139  0.0583  0.8462
 6573TIP3    H141134   5.287   4.623   2.760 -0.2722 -0.0672  0.3355
 6573TIP3    H241135   5.322   4.746   2.678 -0.9273 -0.0686  0.0522
 6574TIP3   OH241136   2.230   1.064  13.469 -0.2175  0.3424 -0.4090
 6574TIP3    H141137   2.215   1.014  13.389 -0.3167  0.6800 -0.6041
 6574TIP3    H241138   2.184   1.146  13.454  0.1045  0.5675 -0.1697
 6575TIP3   OH241139   1.908   5.278   4.307  0.3060  0.3514  0.0249
 6575TIP3    H141140   1.985   5.323   4.343 -0.6550  1.6170  0.5739
 6575TIP3    H241141   1.863   5.243   4.384 -0.9678  1.7789 -0.0377
 6576TIP3   OH241142   1.610   2.389  10.774  0.3144  0.3869  0.1719
 6576TIP3    H141143   1.614   2.299  10.744  0.3514 -0.4809  2.6672
 6576TIP3    H241144   1.700   2.409  10.802 -0.0675  0.6030  1.2557
 6577TIP3   OH241145   6.087   1.566  14.549 -0.1210  0.2046 -0.0138
 6577TIP3    H141146   6.011   1.513  14.570 -0.5332  0.7475 -0.1311
 6577TIP3    H241147   6.129   1.582  14.634 -1.0935  1.3486  0.2650
 6578TIP3   OH241148   3.185   4.396   2.773 -0.1256 -0.5400 -0.1102
 6578TIP3    H141149   3.157   4.405   2.864 -3.6397 -2.2822 -0.9363
 6578TIP3    H241150   3.173   4.483   2.735  1.7382  0.2930  1.1516
 6579TIP3   OH241151   2.293   5.663  15.269 -0.1731  0.0450  0.3113
 6579TIP3    H141152   2.373   5.629  15.227 -0.2376  1.0003 -0.6016
 6579TIP3    H241153   2.231   5.590  15.263 -0.0891  0.0605 -1.0206
 6580TIP3   OH241154   0.765   0.446  13.590 -0.5133  0.7100  0.1194
 6580TIP3    H141155   0.842   0.465  13.535 -2.5412  0.8503 -2.7499
 6580TIP3    H241156   0.711   0.524  13.584 -1.7060 -0.0527  0.7118
 6581TIP3   OH241157   1.341   2.081  13.941 -0.3313 -0.1332  0.2488
 6581TIP3    H141158   1.393   2.154  13.974 -0.2806  0.6545 -1.5292
 6581TIP3    H241159   1.398   2.005  13.952  0.8340  0.5726 -0.8099
 6582TIP3   OH241160   2.572   0.447   4.376 -0.2224  0.4064  0.5968
 6582TIP3    H141161   2.532   0.381   4.320 -0.8563 -1.1799  2.8896
 6582TIP3    H241162   2.663   0.419   4.384 -0.3650  0.1057  1.1469
 6583TIP3   OH241163   5.894   4.736  15.211  0.2057  0.5265  0.2804
 6583TIP3    H141164   5.840   4.677  15.263 -1.2188  0.9785 -0.6685
 6583TIP3    H241165   5.974   4.686  15.193 -1.7306 -1.8946 -2.1010
 6584TIP3   OH241166   6.728   0.954  11.915  0.0465  0.0094 -0.5358
 6584TIP3    H141167   6.657   1.018  11.910 -1.3740 -1.6243 -1.5833
 6584TIP3    H241168   6.687   0.876  11.953  1.8807 -0.1371  1.2142
 6585TIP3   OH241169   0.630   1.937  13.745 -0.0888 -0.3209 -0.3761
 6585TIP3    H141170   0.570   1.998  13.787 -0.4628 -1.1047  0.2341
 6585TIP3    H241171   0.579   1.858  13.731  0.3790 -0.4849 -1.2123
 6586TIP3   OH241172   4.298   2.117   1.657  0.0647 -0.2096 -0.4609
 6586TIP3    H141173   4.284   2.194   1.601 -0.4222  0.7217  0.9117
 6586TIP3    H241174   4.217   2.067   1.650 -0.2160  0.1960 -0.1569
 6587TIP3   OH241175   1.367   2.014   0.817 -0.1445 -0.6232 -0.7676
 6587TIP3    H141176   1.301   2.006   0.886  2.7494 -1.8185  1.9813
 6587TIP3    H241177   1.447   1.976   0.854  2.9780  3.4251 -2.8174
 6588TIP3   OH241178   2.442   6.314  12.537 -0.0743  1.3151 -0.1134
 6588TIP3    H141179   2.512   6.359  12.584  0.6592  1.1105 -0.9971
 6588TIP3    H241180   2.430   6.365  12.457  0.3357  0.3185 -0.8315
 6589TIP3   OH241181   6.785   0.865  13.055  0.4771 -0.5742 -0.4037
 6589TIP3    H141182   6.691   0.850  13.057 -0.0265  2.4121  1.0049
 6589TIP3    H241183   6.803   0.892  12.964  0.0687 -1.6760 -0.8141
 6590TIP3   OH241184   5.626   1.911  10.348 -0.3241 -0.2032  0.0158
 6590TIP3    H141185   5.683   1.844  10.311  0.5520  1.2610 -1.3406
 6590TIP3    H241186   5.563   1.930  10.279  1.7171  3.0111 -1.0997
 6591TIP3   OH241187   2.221   2.251  14.642  0.1579  0.3957 -0.1213
 6591TIP3    H141188   2.283   2.180  14.658  0.5204  0.2614 -1.9788
 6591TIP3    H241189   2.272   2.318  14.597 -0.9825  0.3201 -1.5915
 6592TIP3   OH241190   6.921   1.679  14.849  0.3701 -0.7574 -0.2018
 6592TIP3    H141191   6.951   1.605  14.797 -0.0084 -0.4366 -0.8799
 6592TIP3    H241192   6.949   1.756  14.800  0.2133 -0.4553  0.1828
 6593TIP3   OH241193   2.960   6.979  15.438 -0.1976 -0.2710 -0.4442
 6593TIP3    H141194   2.905   7.055  15.457  0.1582 -0.1203  0.0053
 6593TIP3    H241195   3.037   6.992  15.493 -0.4027 -1.2578  0.0989
 6594TIP3   OH241196   3.693   4.538  12.577 -0.0061  0.4165  0.9198
 6594TIP3    H141197   3.702   4.460  12.633 -2.7074 -0.4848  0.1815
 6594TIP3    H241198   3.681   4.610  12.639 -2.4292 -0.4985  1.5953
 6595TIP3   OH241199   2.269   1.628  14.042 -0.4440  0.0063  0.2360
 6595TIP3    H141200   2.321   1.548  14.054  0.0382 -0.2033 -2.8713
 6595TIP3    H241201   2.334   1.698  14.032 -0.8480  0.6161  1.7937
 6596TIP3   OH241202   1.934   2.767  14.231  0.3913 -0.4435 -0.2723
 6596TIP3    H141203   1.870   2.838  14.239 -1.1604 -1.7242 -0.8770
 6596TIP3    H241204   1.930   2.721  14.315  3.4195  1.7760  1.1661
 6597TIP3   OH241205   0.004   1.651   2.539 -0.4262  0.0467 -0.3992
 6597TIP3    H141206  -0.019   1.718   2.604 -0.2818 -1.2826  1.0414
 6597TIP3    H241207   0.089   1.679   2.506  1.0560 -0.9822  2.3792
 6598TIP3   OH241208   2.510   6.932  14.433  0.0396  0.9386  0.3563
 6598TIP3    H141209   2.562   6.959  14.358  0.7761  0.4980  0.7088
 6598TIP3    H241210   2.564   6.953  14.509  0.5712 -1.3373  0.6598
 6599TIP3   OH241211   5.016   6.352  12.252  0.8484  0.6737  0.5241
 6599TIP3    H141212   4.941   6.352  12.194  1.8189  0.3284 -0.7399
 6599TIP3    H241213   4.985   6.307  12.331 -0.3378  0.7811  0.1339
 6600TIP3   OH241214   3.109   2.241  15.466  0.4848 -0.0789  0.4162
 6600TIP3    H141215   3.150   2.294  15.535  0.5334 -0.4105  0.6423
 6600TIP3    H241216   3.070   2.167  15.513 -0.3180  0.2038  0.1899
 6601TIP3   OH241217   1.615   5.540   2.241 -0.7702  0.1411  0.3372
 6601TIP3    H141218   1.610   5.472   2.173  1.8685 -1.3100  1.4985
 6601TIP3    H241219   1.533   5.531   2.289  0.0562 -3.2825  1.3222
 6602TIP3   OH241220   4.370   5.220  13.736 -0.2514 -0.2675 -0.2659
 6602TIP3    H141221   4.342   5.129  13.725  1.0336 -0.6724 -0.1889
 6602TIP3    H241222   4.344   5.263  13.655  0.6045 -1.0767 -0.9790
 6603TIP3   OH241223   0.480   5.719  11.726 -0.3498 -0.4545 -0.9005
 6603TIP3    H141224   0.405   5.755  11.774 -0.0200 -1.1988  0.2012
 6603TIP3    H241225   0.497   5.783  11.657 -0.6702  0.8009  0.1518
 6604TIP3   OH241226   6.735   3.047  12.423  0.0010 -0.5853 -0.3801
 6604TIP3    H141227   6.767   3.023  12.336 -2.0832 -0.8674 -1.1002
 6604TIP3    H241228   6.703   3.137  12.412 -2.5420 -1.4936 -0.5432
 6605TIP3   OH241229   6.344   2.789  15.027 -0.4442  0.4271 -0.0013
 6605TIP3    H141230   6.372   2.712  14.978  0.5592  0.8370 -0.0821
 6605TIP3    H241231   6.386   2.780  15.113 -1.0067  0.4537  0.2773
 6606TIP3   OH241232   5.598   4.882   0.373  0.0033 -0.0565  0.7966
 6606TIP3    H141233   5.542   4.953   0.404  0.8000  0.3472  1.3244
 6606TIP3    H241234   5.686   4.919   0.370  0.1463 -0.4837 -0.7058
 6607TIP3   OH241235   1.601   1.840  14.469 -0.0908  0.3692 -0.5674
 6607TIP3    H141236   1.590   1.769  14.407 -2.8318 -1.0042  1.3863
 6607TIP3    H241237   1.600   1.798  14.555 -1.6930  2.6969  0.6384
 6608TIP3   OH241238   0.671   0.389  12.335  0.3574  0.2942  0.6764
 6608TIP3    H141239   0.636   0.457  12.278  1.4764  0.6199  0.3734
 6608TIP3    H241240   0.727   0.436  12.397 -1.2727  0.0235  2.4086
 6609TIP3   OH241241   4.133   0.785   1.035  0.6222 -0.6173  0.0379
 6609TIP3    H141242   4.202   0.721   1.053 -0.4766 -1.6426  0.6218
 6609TIP3    H241243   4.074   0.778   1.109  0.3526  0.9043 -0.0244
 6610TIP3   OH241244   4.562   2.308   2.030 -0.5139 -0.0101  0.2716
 6610TIP3    H141245   4.511   2.248   1.976 -2.3127  0.5144  1.3449
 6610TIP3    H241246   4.541   2.395   1.997 -2.3085  0.3742  2.3384
 6611TIP3   OH241247   4.625   4.558  12.725  0.4509 -0.1305  0.3199
 6611TIP3    H141248   4.587   4.483  12.679 -1.0137 -0.0027  1.2884
 6611TIP3    H241249   4.579   4.634  12.689 -0.0981  0.0424  1.3416
 6612TIP3   OH241250   0.138   4.744   0.694 -0.5740 -0.4337 -0.6766
 6612TIP3    H141251   0.083   4.694   0.633  0.8253 -1.4190 -1.1554
 6612TIP3    H241252   0.217   4.690   0.705 -1.0632 -0.5718  2.5271
 6613TIP3   OH241253   1.708   0.403  13.922 -0.3892 -0.2471  0.0673
 6613TIP3    H141254   1.654   0.333  13.885  0.1370  0.4989 -2.1656
 6613TIP3    H241255   1.737   0.454  13.847  1.8107  0.5546  1.4057
 6614TIP3   OH241256   4.899   1.952   1.806 -0.3440  0.2136  0.8433
 6614TIP3    H141257   4.933   2.039   1.784 -0.2295 -0.2670 -0.9742
 6614TIP3    H241258   4.804   1.959   1.797 -0.1172 -0.8540 -3.3072
 6615TIP3   OH241259   3.919   1.560  13.555 -0.2038 -0.0249  0.3759
 6615TIP3    H141260   3.877   1.475  13.543  2.2010 -1.5132  1.9795
 6615TIP3    H241261   3.862   1.607  13.615 -1.4530 -0.5675 -0.3608
 6616TIP3   OH241262   3.329   7.000   0.623  1.2246  0.4332 -0.0010
 6616TIP3    H141263   3.262   7.068   0.613  0.7670 -0.1048 -0.6365
 6616TIP3    H241264   3.283   6.926   0.660  1.3579 -0.0995 -0.8787
 6617TIP3   OH241265   3.270   5.088  11.274 -0.3386  0.2877 -0.1265
 6617TIP3    H141266   3.288   5.031  11.199 -2.7181 -0.7547  0.0392
 6617TIP3    H241267   3.255   5.028  11.347  0.2993  1.2461  0.8099
 6618TIP3   OH241268   4.820   4.233  13.966 -0.1783  0.2097 -0.6449
 6618TIP3    H141269   4.915   4.237  13.967 -0.1530 -0.3256 -0.9954
 6618TIP3    H241270   4.799   4.154  13.917 -0.7910 -0.1427  0.1619
 6619TIP3   OH241271   2.218   0.485   0.644  0.8154 -0.0839  0.1187
 6619TIP3    H141272   2.227   0.535   0.563 -0.0663  0.9167  0.6191
 6619TIP3    H241273   2.293   0.511   0.697  0.7983  0.0938  0.0557
 6620TIP3   OH241274   1.576   1.585   0.516  0.6345 -0.0633  0.2142
 6620TIP3    H141275   1.653   1.531   0.499  0.0803 -0.0357 -2.5946
 6620TIP3    H241276   1.534   1.595   0.431 -0.7493  2.5637  1.1406
 6621TIP3   OH241277   2.707   0.118  15.319  0.5010 -0.0813 -0.6024
 6621TIP3    H141278   2.743   0.050  15.262 -0.0039 -1.2369  0.4357
 6621TIP3    H241279   2.722   0.085  15.408 -0.7549  0.6426 -0.1130
 6622TIP3   OH241280   5.765   3.537  14.955 -0.0902 -0.1371  0.8925
 6622TIP3    H141281   5.722   3.464  14.912 -0.1323 -1.4194  3.0809
 6622TIP3    H241282   5.715   3.614  14.927  0.1350 -0.8639 -1.6518
 6623TIP3   OH241283   3.194   2.880  14.216  0.0783 -0.3169  0.0223
 6623TIP3    H141284   3.289   2.872  14.220  0.2206  1.1617 -0.3068
 6623TIP3    H241285   3.172   2.946  14.282 -0.6888 -0.4573 -0.0843
 6624TIP3   OH241286   5.335   6.024   1.995  0.1281 -0.0502  0.0564
 6624TIP3    H141287   5.287   6.004   1.914 -0.4564 -2.0820  0.8945
 6624TIP3    H241288   5.277   6.083   2.043  0.2244  0.6960 -0.7113
 6625TIP3   OH241289   7.104   0.853  13.828  0.0724 -0.6311  0.3317
 6625TIP3    H141290   7.039   0.888  13.889 -1.8735 -1.0688 -1.4218
 6625TIP3    H241291   7.135   0.929  13.779 -0.1330 -0.6081  0.2378
 6626TIP3   OH241292   4.788   1.016  11.492 -0.3232  0.7981 -0.1934
 6626TIP3    H141293   4.832   1.061  11.564 -1.6480  0.1234  1.0639
 6626TIP3    H241294   4.859   0.972  11.445  0.4819  0.6015  1.1677
 6627TIP3   OH241295   1.032   0.572  11.368 -0.1653 -0.2950  0.1629
 6627TIP3    H141296   0.983   0.616  11.437 -1.8614  0.5893 -1.5793
 6627TIP3    H241297   1.051   0.641  11.304  2.1426 -0.9168  0.1345
 6628TIP3   OH241298   2.128   3.208  15.370 -0.4068  0.1737  0.2216
 6628TIP3    H141299   2.173   3.215  15.454  1.0765  1.9186 -0.6898
 6628TIP3    H241300   2.178   3.142  15.322 -0.7085 -0.1541  0.3513
 6629TIP3   OH241301   2.005   5.092   0.122  0.0394  0.2104  0.1890
 6629TIP3    H141302   2.100   5.099   0.131  0.0433 -0.2510  0.5140
 6629TIP3    H241303   1.992   5.027   0.052 -0.0323  0.7735 -0.3275
 6630TIP3   OH241304   3.877   5.554  10.806 -0.0047 -0.7189 -0.4267
 6630TIP3    H141305   3.851   5.499  10.879  0.9293  0.1440  0.5724
 6630TIP3    H241306   3.799   5.561  10.752 -0.8794 -0.8642  0.8052
 6631TIP3   OH241307   5.055   6.065  11.912  0.0427  0.4657  0.4675
 6631TIP3    H141308   5.096   6.112  11.985  2.1401  1.3506 -1.2086
 6631TIP3    H241309   5.111   5.989  11.898 -0.3243  0.3174 -0.2178
 6632TIP3   OH241310   3.369   0.040  10.870 -0.1710 -0.5636  0.0707
 6632TIP3    H141311   3.324  -0.041  10.844 -0.6629 -1.2969  3.0546
 6632TIP3    H241312   3.416   0.067  10.791 -2.2541 -2.2150 -1.8158
 6633TIP3   OH241313   5.386   5.509   0.264 -0.2665 -0.1259 -0.3979
 6633TIP3    H141314   5.323   5.494   0.335 -0.3971  1.1000 -0.2295
 6633TIP3    H241315   5.332   5.537   0.190 -0.2121 -2.2530 -1.2634
 6634TIP3   OH241316   6.689   1.634  12.669  0.0390  0.1633 -0.3916
 6634TIP3    H141317   6.763   1.604  12.616  1.6748  0.7291  1.5336
 6634TIP3    H241318   6.656   1.555  12.711  1.7093  0.3801  1.3936
 6635TIP3   OH241319   7.004   3.269   0.189 -0.3039 -0.0430 -0.3801
 6635TIP3    H141320   7.011   3.363   0.172  0.4652 -0.1455 -0.6111
 6635TIP3    H241321   6.996   3.230   0.102 -1.2500 -0.1437 -0.2565
 6636TIP3   OH241322   7.045   4.171  13.191 -0.4285 -0.2913 -0.0734
 6636TIP3    H141323   6.988   4.229  13.241 -0.0950 -0.0808  0.0682
 6636TIP3    H241324   6.995   4.149  13.113  0.8174  3.0709 -1.9010
 6637TIP3   OH241325   0.612   4.016   0.288 -0.3293  0.1309 -0.2140
 6637TIP3    H141326   0.665   3.942   0.260 -0.3394  0.7561 -1.9211
 6637TIP3    H241327   0.561   4.040   0.211 -0.3715  1.8637  0.3368
 6638TIP3   OH241328   1.966   4.302  11.362  0.1561 -0.1004 -0.0442
 6638TIP3    H141329   2.009   4.220  11.338 -1.0622 -1.2128  1.4619
 6638TIP3    H241330   2.012   4.331  11.441 -0.0543  0.1353 -0.0065
 6639TIP3   OH241331   6.301   0.419  11.223 -0.6416 -0.8025  0.7045
 6639TIP3    H141332   6.306   0.438  11.316  1.0646  4.7546 -0.2927
 6639TIP3    H241333   6.392   0.406  11.196 -0.7494  0.9350 -0.6588
 6640TIP3   OH241334   2.872   1.900  14.742  0.1428  0.1954 -0.4331
 6640TIP3    H141335   2.919   1.953  14.677  0.4603  1.2378  0.6140
 6640TIP3    H241336   2.780   1.918  14.726  0.2307  0.6550 -0.4337
 6641TIP3   OH241337   4.948   4.275   1.593 -0.3006 -0.2235 -0.1018
 6641TIP3    H141338   4.912   4.210   1.653 -1.4266 -0.2752 -0.8165
 6641TIP3    H241339   4.894   4.353   1.607 -0.6244 -0.2659 -1.1173
 6642TIP3   OH241340   4.394   4.901  13.343 -0.7483  1.1364 -0.4283
 6642TIP3    H141341   4.302   4.913  13.319 -0.3769  2.5004 -1.1745
 6642TIP3    H241342   4.419   4.820  13.298 -1.8239  0.2563  0.5090
 6643TIP3   OH241343   5.759   4.046  15.281 -0.3014  0.2015  0.0721
 6643TIP3    H141344   5.742   4.112  15.214 -0.5847  0.4214  0.3569
 6643TIP3    H241345   5.709   3.970  15.253 -2.9114  1.2792  1.6037
 6644TIP3   OH241346   4.312   5.718  12.696  0.1423  0.3163 -0.6409
 6644TIP3    H141347   4.251   5.791  12.679  0.8795  1.2773  0.6674
 6644TIP3    H241348   4.397   5.760  12.704  0.4911 -0.6047  0.7080
 6645TIP3   OH241349   4.075   2.779  11.908  0.3968 -0.3976 -0.3092
 6645TIP3    H141350   4.113   2.758  11.994  1.0799  1.0933 -0.2274
 6645TIP3    H241351   4.120   2.721  11.847 -1.0618 -2.4234  0.5122
 6646TIP3   OH241352   4.823   4.734  11.066  0.7916  0.0583 -0.3300
 6646TIP3    H141353   4.763   4.795  11.109  2.2619  1.6509 -0.5064
 6646TIP3    H241354   4.811   4.749  10.973  0.9315 -0.1563 -0.3851
 6647TIP3   OH241355   3.334   3.445  11.758  0.3352  0.4281  0.2457
 6647TIP3    H141356   3.252   3.474  11.717 -0.2128 -0.5317  0.6423
 6647TIP3    H241357   3.384   3.526  11.772 -0.5879  1.0301  0.1059
 6648TIP3   OH241358   2.720   1.553   2.894  0.2959  0.6011  0.0596
 6648TIP3    H141359   2.716   1.577   2.801 -0.6742  0.7866  0.1396
 6648TIP3    H241360   2.770   1.472   2.896 -0.8838 -0.1712 -0.7963
 6649TIP3   OH241361   0.432   3.470  14.633  0.4528  0.7009 -0.1715
 6649TIP3    H141362   0.389   3.485  14.717  1.8195  0.7713  0.5304
 6649TIP3    H241363   0.515   3.518  14.640  1.1839 -0.4111 -1.0410
 6650TIP3   OH241364   4.853   1.582  14.029  0.3259 -0.0877  0.0192
 6650TIP3    H141365   4.764   1.557  14.053  0.9323 -2.4682 -0.0091
 6650TIP3    H241366   4.873   1.658  14.084 -1.5066  0.1052  0.4416
 6651TIP3   OH241367   1.910   2.850   0.930 -0.2207  0.0690  0.1512
 6651TIP3    H141368   1.950   2.834   1.016 -0.8433 -3.1764 -0.0957
 6651TIP3    H241369   1.817   2.834   0.945 -0.2185 -1.4116 -1.3191
 6652TIP3   OH241370   7.081   0.709  15.029  0.1813  0.0575  0.3825
 6652TIP3    H141371   7.062   0.630  14.978  0.6884 -0.7920  1.4978
 6652TIP3    H241372   7.026   0.700  15.107 -1.1897  1.7312 -0.3638
 6653TIP3   OH241373   5.525   0.037  11.922  0.3797 -0.0065 -0.0426
 6653TIP3    H141374   5.565  -0.003  11.845  0.9748 -0.1817  0.3573
 6653TIP3    H241375   5.463  -0.029  11.953 -0.6740  0.5099 -1.0194
 6654TIP3   OH241376   6.465   0.208   0.425 -0.0456 -0.3138  0.2634
 6654TIP3    H141377   6.549   0.189   0.382 -0.2468  0.3401 -0.4187
 6654TIP3    H241378   6.399   0.175   0.365 -0.3207  0.3474  0.2007
 6655TIP3   OH241379   2.185   5.350  13.672  0.4145  0.6627  0.2167
 6655TIP3    H141380   2.157   5.427  13.721  0.3388 -1.6177  3.9333
 6655TIP3    H241381   2.192   5.381  13.581 -1.0647  4.6182  1.3338
 6656TIP3   OH241382   5.486   2.990  14.024 -0.5470 -0.0494  0.4205
 6656TIP3    H141383   5.423   2.918  14.033 -1.0605 -0.0074 -2.3685
 6656TIP3    H241384   5.569   2.948  14.003  0.0629 -0.0164  2.6428
 6657TIP3   OH241385   2.199   2.450   0.456  0.4288  0.0077  0.1414
 6657TIP3    H141386   2.108   2.478   0.447  0.9261  1.4671 -0.3743
 6657TIP3    H241387   2.231   2.441   0.366  1.0967  0.4692  0.3298
 6658TIP3   OH241388   5.805   6.806  14.725  0.3073  1.0106  0.3374
 6658TIP3    H141389   5.868   6.849  14.783 -0.1122  0.8336  0.9344
 6658TIP3    H241390   5.728   6.863  14.728 -0.2091  0.2889  1.0364
 6659TIP3   OH241391   3.671   3.337  15.546  0.2486  0.6506 -0.0319
 6659TIP3    H141392   3.676   3.359  15.639  0.7941  0.8368 -0.1070
 6659TIP3    H241393   3.589   3.378  15.517 -0.2241  0.0999  0.4945
 6660TIP3   OH241394   4.842   1.009  10.858 -0.0880  0.0433 -0.0215
 6660TIP3    H141395   4.891   1.061  10.921  1.1978  0.1121 -1.0553
 6660TIP3    H241396   4.802   0.940  10.910  0.6922  0.2887  0.9187
 6661TIP3   OH241397   5.093   0.155  13.261 -1.0936 -0.4871  0.0061
 6661TIP3    H141398   5.078   0.179  13.352 -1.5406 -3.5393  0.8146
 6661TIP3    H241399   5.029   0.085  13.245 -0.9635 -0.0325 -2.6239
 6662TIP3   OH241400   5.170   6.996  15.278 -0.2977  0.1843  0.0796
 6662TIP3    H141401   5.089   7.011  15.327 -1.9676 -1.0533 -2.2090
 6662TIP3    H241402   5.225   7.072  15.299 -2.1225  1.1415  1.5232
 6663TIP3   OH241403   5.302   6.239  13.353 -0.0684  0.1228 -0.3350
 6663TIP3    H141404   5.322   6.297  13.427 -0.4964  0.1295 -0.2255
 6663TIP3    H241405   5.345   6.156  13.375  1.0063  0.5622 -0.7461
 6664TIP3   OH241406   0.030   1.455   0.673 -0.2156 -0.0306  0.6416
 6664TIP3    H141407   0.047   1.363   0.691  0.4063  0.2141  1.3575
 6664TIP3    H241408   0.109   1.500   0.705  0.2912  0.5609 -1.4061
 6665TIP3   OH241409   2.029   6.380  12.625 -0.4759 -0.2282 -0.3831
 6665TIP3    H141410   2.085   6.396  12.549  0.5476 -0.4263  0.3304
 6665TIP3    H241411   2.028   6.463  12.672  0.0260 -0.5243  0.1441
 6666TIP3   OH241412   1.027   3.298  15.387 -0.0133  0.1804  0.2853
 6666TIP3    H141413   1.062   3.322  15.473 -1.3850  0.9779  0.6308
 6666TIP3    H241414   1.047   3.205  15.378 -0.2089  0.0028  1.6276
 6667TIP3   OH241415   1.394   2.622  13.436 -0.1593 -0.5028  0.1603
 6667TIP3    H141416   1.309   2.623  13.480  0.3578 -0.3254  1.1852
 6667TIP3    H241417   1.379   2.573  13.355 -1.2816 -0.2956  0.2329
 6668TIP3   OH241418   1.985   0.098  12.969 -0.2244 -0.4880 -0.7160
 6668TIP3    H141419   2.027   0.109  13.054 -1.2677  0.6737 -0.3461
 6668TIP3    H241420   1.896   0.068  12.989 -0.6098  0.1834 -1.3823
 6669TIP3   OH241421   6.671   5.687   1.188 -0.5441 -0.4715  0.0060
 6669TIP3    H141422   6.666   5.772   1.144  0.8258  0.0223  0.7782
 6669TIP3    H241423   6.744   5.642   1.145 -2.6850 -2.2014 -1.9687
 6670TIP3   OH241424   1.076   1.566  11.235 -0.0044  0.2599  0.0884
 6670TIP3    H141425   1.130   1.487  11.243  1.8479  1.4752 -0.1429
 6670TIP3    H241426   1.130   1.627  11.185 -0.9923  2.0434  1.1340
 6671TIP3   OH241427   3.145   1.050  12.982 -0.4374  0.0988 -0.3798
 6671TIP3    H141428   3.228   1.064  13.028  0.2901 -1.3826 -1.1900
 6671TIP3    H241429   3.084   1.024  13.050  0.1845 -0.3506  0.0214
 6672TIP3   OH241430   1.495   1.309  11.687 -0.1388 -0.0853 -0.1957
 6672TIP3    H141431   1.477   1.215  11.683 -0.2624 -0.2674  3.1381
 6672TIP3    H241432   1.411   1.351  11.670 -0.9066 -0.6846  1.9558
 6673TIP3   OH241433   0.487   3.034  11.899  0.2049  0.0096  0.4229
 6673TIP3    H141434   0.487   3.089  11.978  0.9561  0.2079  0.2897
 6673TIP3    H241435   0.575   3.045  11.862  0.3380 -1.2190  0.3434
 6674TIP3   OH241436   2.374   3.312  13.319 -0.0512 -0.1764 -0.4587
 6674TIP3    H141437   2.371   3.227  13.362  2.1256 -1.0790 -2.0668
 6674TIP3    H241438   2.326   3.300  13.238 -2.8193  1.1283  0.9006
 6675TIP3   OH241439   1.516   2.286  14.027  0.2801 -0.3102 -0.0392
 6675TIP3    H141440   1.549   2.349  13.963  0.9722 -0.9361 -0.3057
 6675TIP3    H241441   1.525   2.331  14.111  0.7888 -0.0563 -0.2252
 6676TIP3   OH241442   2.689   6.742   0.923 -0.1121 -0.0669  0.2147
 6676TIP3    H141443   2.671   6.688   0.846  0.4991  0.0618 -0.0254
 6676TIP3    H241444   2.686   6.832   0.891 -1.1253  0.0517  0.6142
 6677TIP3   OH241445   2.197   4.070  13.575  0.1883  0.1143  0.5282
 6677TIP3    H141446   2.190   4.134  13.646 -0.8892  1.6144 -0.8763
 6677TIP3    H241447   2.290   4.068  13.553  0.3281  0.6593  1.0650
 6678TIP3   OH241448   2.467   6.316  13.289  0.5126 -0.0798  0.4044
 6678TIP3    H141449   2.396   6.266  13.330 -0.7024  0.5451 -0.8671
 6678TIP3    H241450   2.508   6.253  13.229 -0.6593  0.2434 -0.7793
 6679TIP3   OH241451   2.294   3.145   0.099  0.6056 -0.0147  0.6672
 6679TIP3    H141452   2.269   3.222   0.149  0.7230  0.5021 -0.0699
 6679TIP3    H241453   2.388   3.153   0.086  0.3470  0.5928 -0.8833
 6680TIP3   OH241454   2.208   7.144  13.196  0.4013 -0.4304 -0.2375
 6680TIP3    H141455   2.240   7.199  13.125  0.3084 -1.2636 -0.9443
 6680TIP3    H241456   2.280   7.084  13.215  0.7347  0.3411  0.9569
 6681TIP3   OH241457   2.759   5.407  13.657 -0.3775  0.1442 -0.2731
 6681TIP3    H141458   2.693   5.339  13.645  0.0771 -0.2068 -0.8084
 6681TIP3    H241459   2.723   5.465  13.724 -0.6546 -0.7689  0.3705
 6682TIP3   OH241460   5.011   4.364  15.000 -0.6334 -0.0445  0.1869
 6682TIP3    H141461   5.012   4.373  14.905 -1.1468 -1.5033  0.0373
 6682TIP3    H241462   5.042   4.275  15.017  0.0680  0.4194  1.4212
 6683TIP3   OH241463   3.323   1.611   9.907  0.3719  0.2617  0.1461
 6683TIP3    H141464   3.262   1.665   9.858  0.1400 -2.3293 -2.5524
 6683TIP3    H241465   3.273   1.579   9.982 -0.6716  0.5764 -0.4188
 6684TIP3   OH241466   1.936   6.296   9.784  0.1549 -0.5521  0.0952
 6684TIP3    H141467   1.913   6.345   9.705 -0.6242  0.0769  0.7028
 6684TIP3    H241468   1.885   6.215   9.777 -2.3730  0.8584  1.4607
 6685TIP3   OH241469   1.239   1.799  12.748 -0.2697 -0.2963  0.7174
 6685TIP3    H141470   1.173   1.862  12.720  1.6822  0.1664 -3.2096
 6685TIP3    H241471   1.204   1.714  12.721 -0.1779 -0.2509  0.4507
 6686TIP3   OH241472   3.845   4.293  10.969  0.5426  0.2716 -0.2016
 6686TIP3    H141473   3.916   4.348  10.935 -0.4389  1.2459 -0.7033
 6686TIP3    H241474   3.836   4.320  11.060  1.9375 -1.0421  0.3395
 6687TIP3   OH241475   5.631   2.381  14.601  0.1660  0.1445 -0.0071
 6687TIP3    H141476   5.722   2.384  14.631  0.3101  0.6260 -0.4610
 6687TIP3    H241477   5.634   2.418  14.512 -0.0975 -2.1248 -0.9888
 6688TIP3   OH241478   0.858   5.677  12.150 -0.4631 -0.0912 -0.0727
 6688TIP3    H141479   0.872   5.667  12.244 -0.2265 -0.5489 -0.1562
 6688TIP3    H241480   0.768   5.649  12.136 -0.0900 -1.2467 -0.1734
 6689TIP3   OH241481   2.805   6.798  14.840  0.5851 -0.2428  0.3741
 6689TIP3    H141482   2.729   6.749  14.808 -0.4530  0.2878  1.9422
 6689TIP3    H241483   2.814   6.770  14.931  2.3191 -0.3381  0.1739
 6690TIP3   OH241484   0.578   2.775  14.230  0.0491  0.3274 -0.2069
 6690TIP3    H141485   0.505   2.825  14.194  0.9471  1.2622 -0.7726
 6690TIP3    H241486   0.539   2.692  14.258 -1.2797  0.9436 -0.1835
 6691TIP3   OH241487   7.072   6.341   1.326 -0.2455 -0.1343  0.2521
 6691TIP3    H141488   6.998   6.283   1.345  0.2099 -1.5105 -2.0264
 6691TIP3    H241489   7.039   6.398   1.256  0.7569 -0.6176 -0.6250
 6692TIP3   OH241490   3.540   5.055  10.787 -0.3039  0.3756  0.2440
 6692TIP3    H141491   3.508   5.039  10.876  0.8142 -0.2439  0.5420
 6692TIP3    H241492   3.634   5.038  10.792 -0.3051 -0.0907 -1.1554
 6693TIP3   OH241493   2.378   4.514  15.364 -0.4125 -0.4238 -0.0529
 6693TIP3    H141494   2.358   4.536  15.273  0.5402 -2.7797 -0.8840
 6693TIP3    H241495   2.336   4.429  15.378  0.2251 -0.5230  1.4177
 6694TIP3   OH241496   4.630   2.429  13.886  0.1580 -0.1436 -0.6094
 6694TIP3    H141497   4.569   2.470  13.825  1.0943  1.3913 -0.5435
 6694TIP3    H241498   4.714   2.429  13.839  1.0481  1.6925  0.8979
 6695TIP3   OH241499   1.670   1.096  13.977 -0.4940 -0.4405  0.2467
 6695TIP3    H141500   1.764   1.075  13.971 -0.1146  1.4644 -0.9958
 6695TIP3    H241501   1.662   1.180  13.932 -3.2495 -1.8480 -1.9754
 6696TIP3   OH241502   0.682   1.291  13.714  0.9564 -0.2098  1.1941
 6696TIP3    H141503   0.695   1.230  13.641  2.2707 -0.6689  1.7760
 6696TIP3    H241504   0.763   1.343  13.716 -0.2034  1.6479  0.6364
 6697TIP3   OH241505   3.626   6.529  13.687 -0.0522  0.0368  0.0731
 6697TIP3    H141506   3.655   6.578  13.763  0.8605  0.1502 -0.3385
 6697TIP3    H241507   3.678   6.564  13.614  0.9621 -1.8665 -0.1417
 6698TIP3   OH241508   6.085   2.549  13.851 -0.0537 -0.0665  0.0965
 6698TIP3    H141509   6.168   2.581  13.816 -0.9650  1.2182 -0.9218
 6698TIP3    H241510   6.071   2.465  13.807  0.3701  0.0453 -0.2522
 6699TIP3   OH241511   5.089   4.474  13.958  0.3011  0.3490  0.1948
 6699TIP3    H141512   5.166   4.525  13.935  1.1589 -1.2386 -0.5532
 6699TIP3    H241513   5.062   4.433  13.876 -0.7811  0.1395  0.6411
 6700TIP3   OH241514   0.620   0.908  13.398  0.0789  0.3595  0.0806
 6700TIP3    H141515   0.539   0.959  13.392  0.2545  0.6738  0.3186
 6700TIP3    H241516   0.688   0.973  13.418  0.5814  0.2546 -1.2297
 6701TIP3   OH241517   3.277   2.293   0.822  0.3617  0.3184  0.4801
 6701TIP3    H141518   3.254   2.237   0.896  0.8430  0.4004  0.6961
 6701TIP3    H241519   3.227   2.373   0.836 -0.8095 -0.2882 -0.1623
 6702TIP3   OH241520   2.572   5.676  11.871 -0.6633  0.6009  0.1423
 6702TIP3    H141521   2.620   5.643  11.948 -0.7543 -0.2726 -0.1645
 6702TIP3    H241522   2.554   5.597  11.820 -0.2976  1.2265 -0.9537
 6703TIP3   OH241523   0.624   5.045  12.689 -0.2124 -0.2991 -0.5234
 6703TIP3    H141524   0.700   4.998  12.724  0.7783  1.5346 -0.1726
 6703TIP3    H241525   0.658   5.093  12.614 -0.7941  1.3629  0.2715
 6704TIP3   OH241526   0.620   1.294  12.706  0.4334 -0.0657  0.7299
 6704TIP3    H141527   0.643   1.205  12.730 -1.1732 -1.5914 -2.9591
 6704TIP3    H241528   0.533   1.308  12.744  0.9875  0.1835  1.9032
 6705TIP3   OH241529   5.211   4.346  12.236 -0.0585 -0.2902  0.1576
 6705TIP3    H141530   5.209   4.288  12.160  0.4324  1.5275 -1.2803
 6705TIP3    H241531   5.148   4.415  12.214 -0.3000 -0.0297  1.6417
 6706TIP3   OH241532   3.461   4.795  12.407 -0.1681 -0.0278  0.5523
 6706TIP3    H141533   3.519   4.722  12.428  0.0494  0.6296  2.2836
 6706TIP3    H241534   3.428   4.775  12.319 -1.7272 -3.2831  1.7912
 6707TIP3   OH241535   3.346   4.236  14.339 -0.2358 -0.1034  0.2584
 6707TIP3    H141536   3.289   4.168  14.301 -1.4790  0.4999  0.9971
 6707TIP3    H241537   3.425   4.189  14.364 -0.6492 -1.0859 -0.2253
 6708TIP3   OH241538   4.207   0.769  12.546  0.0594 -0.0828 -0.6394
 6708TIP3    H141539   4.215   0.695  12.607  0.3711  0.0516 -0.5147
 6708TIP3    H241540   4.114   0.794  12.551  0.3883  0.9046  0.9479
 6709TIP3   OH241541   2.459   4.092   9.733 -0.2921  0.4620  0.2241
 6709TIP3    H141542   2.533   4.146   9.705  1.3415 -2.1881 -0.8035
 6709TIP3    H241543   2.399   4.094   9.659  0.5621 -0.4751 -0.5161
 6710TIP3   OH241544   1.142   6.607   0.016  1.1094  0.0674 -0.5911
 6710TIP3    H141545   1.058   6.633   0.052  0.4719 -2.3812 -0.1987
 6710TIP3    H241546   1.141   6.640  -0.074  0.0078  0.5975 -0.3875
 6711TIP3   OH241547   6.726   0.585  12.846  0.8268  0.2010  0.4515
 6711TIP3    H141548   6.656   0.647  12.866 -1.1214 -1.0096 -2.2892
 6711TIP3    H241549   6.785   0.589  12.922 -0.8491  3.1214  1.6541
 6712TIP3   OH241550   3.083   4.776   1.848  0.0898  0.0595  0.6460
 6712TIP3    H141551   3.098   4.849   1.788  1.6328 -0.3106  0.5627
 6712TIP3    H241552   3.064   4.818   1.932  0.4865  0.5601  0.4896
 6713TIP3   OH241553   4.716   3.719  14.410  0.0146 -0.0402 -0.8944
 6713TIP3    H141554   4.770   3.644  14.383 -0.6801 -1.0410  0.4322
 6713TIP3    H241555   4.716   3.715  14.506 -2.1441  0.1490 -0.8745
 6714TIP3   OH241556   5.893   0.361  14.081  0.1674 -0.0757  0.4487
 6714TIP3    H141557   5.914   0.454  14.090 -0.1737  0.2721 -2.0180
 6714TIP3    H241558   5.836   0.356  14.004  0.4111 -2.3503  0.3651
 6715TIP3   OH241559   2.305   0.827   3.105  0.3355  0.1636 -0.0185
 6715TIP3    H141560   2.250   0.793   3.035 -0.1416 -1.4567  1.1274
 6715TIP3    H241561   2.395   0.813   3.074  0.1293 -0.5820 -0.2829
 6716TIP3   OH241562   3.994   4.618   2.340  0.6005 -0.1304  0.1877
 6716TIP3    H141563   4.085   4.587   2.335  0.4299 -0.6931  0.5325
 6716TIP3    H241564   3.973   4.616   2.434  0.4480  0.6299  0.1732
 6717TIP3   OH241565   3.409   6.438  11.464 -0.3239 -0.1482 -0.8471
 6717TIP3    H141566   3.482   6.389  11.502  0.9495  1.1170 -1.6085
 6717TIP3    H241567   3.332   6.406  11.510  0.9276 -0.1466  1.3326
 6718TIP3   OH241568   6.413   1.787  12.262 -0.3474 -0.3839  0.3214
 6718TIP3    H141569   6.320   1.799  12.246 -0.7319 -0.6112  2.3442
 6718TIP3    H241570   6.421   1.699  12.298  1.1836 -2.0671 -3.7550
 6719TIP3   OH241571   5.922   0.673  12.895 -0.0086  0.0606 -0.1035
 6719TIP3    H141572   5.981   0.650  12.823  2.4099  1.2889  1.4304
 6719TIP3    H241573   5.917   0.769  12.892 -1.0398  0.0293  0.4786
 6720TIP3   OH241574   4.364   5.040   0.297  0.5508  0.1735 -0.0512
 6720TIP3    H141575   4.342   5.080   0.212 -1.3848 -0.2974  0.1995
 6720TIP3    H241576   4.440   4.985   0.278  1.0729  1.2330 -1.1521
 6721TIP3   OH241577   1.323   1.621  11.992  0.3508  0.6981  0.7173
 6721TIP3    H141578   1.373   1.570  12.055 -0.5701 -0.2804  0.6810
 6721TIP3    H241579   1.312   1.563  11.917  0.6319  1.5157  0.0320
 6722TIP3   OH241580   1.650   3.487  13.658 -0.5278  0.0744 -0.7569
 6722TIP3    H141581   1.591   3.504  13.732 -2.2567  1.4044 -2.3962
 6722TIP3    H241582   1.681   3.573  13.632  0.9049 -0.4844 -0.9349
 6723TIP3   OH241583   6.227   7.159  12.559 -0.0918 -0.2312  0.3034
 6723TIP3    H141584   6.289   7.086  12.564  0.7247  0.4743  0.6055
 6723TIP3    H241585   6.179   7.144  12.477  0.6625 -0.6488 -0.0675
 6724TIP3   OH241586   3.274   1.446   1.374  0.0358  0.0663 -0.0262
 6724TIP3    H141587   3.308   1.492   1.298  0.2852  0.9758  0.6292
 6724TIP3    H241588   3.351   1.431   1.429  0.1604 -2.1723 -0.7640
 6725TIP3   OH241589   5.907   4.784  10.929  0.2544  0.0656 -0.2720
 6725TIP3    H141590   5.815   4.756  10.929 -0.4785  2.2217 -2.3525
 6725TIP3    H241591   5.946   4.737  10.855  0.5245 -0.0093 -0.0796
 6726TIP3   OH241592   1.048   5.310   1.352  0.5979 -0.1411 -0.0311
 6726TIP3    H141593   1.017   5.355   1.430  0.8274  1.0133 -0.6045
 6726TIP3    H241594   1.072   5.380   1.291  1.5717 -1.0306 -0.6825
 6727TIP3   OH241595   5.337   6.623   0.312  0.5625 -0.6172 -0.8366
 6727TIP3    H141596   5.391   6.635   0.390  0.5527  0.5585 -0.9998
 6727TIP3    H241597   5.376   6.548   0.267  0.5942 -1.2725  0.2748
 6728TIP3   OH241598   2.866   5.413  13.908  0.5805  0.6841 -0.2072
 6728TIP3    H141599   2.822   5.329  13.892  3.2421 -0.6876 -0.6969
 6728TIP3    H241600   2.892   5.442  13.820  1.7722  0.8174  0.1891
 6729TIP3   OH241601   4.115   6.538  14.081 -0.1676 -1.0935  0.0311
 6729TIP3    H141602   4.035   6.501  14.043  0.8631 -1.4741 -1.8454
 6729TIP3    H241603   4.133   6.615  14.029  1.2575 -1.5916 -0.2268
 6730TIP3   OH241604   2.198   0.731  15.261 -0.1528 -0.2588 -0.6531
 6730TIP3    H141605   2.112   0.691  15.269 -0.6170  0.7264 -0.7156
 6730TIP3    H241606   2.249   0.668  15.209 -0.9592 -0.6309 -0.9970
 6731TIP3   OH241607   4.738   7.098  14.783  0.2790  0.2485 -0.6556
 6731TIP3    H141608   4.778   7.184  14.793  0.7293  0.0276 -0.5546
 6731TIP3    H241609   4.754   7.074  14.692  0.5494  0.0694 -0.5584
 6732TIP3   OH241610   5.566   0.653  13.050 -0.0919 -0.2701  0.3193
 6732TIP3    H141611   5.531   0.565  13.039  0.9472 -0.6578 -0.0058
 6732TIP3    H241612   5.569   0.689  12.961 -0.4410  0.0655  0.4411
 6733TIP3   OH241613   4.549   0.191   1.229 -0.0469  0.1949 -0.3603
 6733TIP3    H141614   4.583   0.224   1.312 -1.4371  0.4841  0.1095
 6733TIP3    H241615   4.572   0.098   1.230  0.4769  0.3242  0.0719
 6734TIP3   OH241616   0.662   2.542  13.792  0.0436  0.0627  0.0250
 6734TIP3    H141617   0.629   2.515  13.706  0.8322  0.8856 -0.5505
 6734TIP3    H241618   0.663   2.638  13.788  0.3951  0.0948  0.8380
 6735TIP3   OH241619   2.873   4.413   1.931 -0.1290  0.0458 -0.3846
 6735TIP3    H141620   2.833   4.346   1.875  0.8333 -0.9899  0.1335
 6735TIP3    H241621   2.957   4.375   1.957 -0.7068  0.3573  2.0423
 6736TIP3   OH241622   6.233   5.037  12.006 -0.1644 -0.4015 -0.3101
 6736TIP3    H141623   6.210   5.130  12.005 -0.5976 -0.5073 -0.0844
 6736TIP3    H241624   6.238   5.014  12.099  0.2083 -0.5398 -0.3604
 6737TIP3   OH241625   3.393   2.014   1.543 -0.3420  0.3603 -0.6846
 6737TIP3    H141626   3.441   1.973   1.615  1.6549  0.2093 -2.0646
 6737TIP3    H241627   3.452   2.007   1.468 -1.3924  2.6762 -1.7789
 6738TIP3   OH241628   3.153   0.511  14.016 -0.5522  0.3623 -0.5447
 6738TIP3    H141629   3.083   0.555  13.968 -0.6635  1.2911  0.4393
 6738TIP3    H241630   3.137   0.534  14.108 -0.1053 -1.0447 -0.1060
 6739TIP3   OH241631   0.855   7.161  13.331  0.0039  0.2407 -0.2153
 6739TIP3    H141632   0.932   7.127  13.376 -0.6710 -0.0486  0.7459
 6739TIP3    H241633   0.812   7.218  13.396  1.3931  3.3968 -1.9475
 6740TIP3   OH241634   1.930   5.468   0.493 -0.1552  0.2575  0.0467
 6740TIP3    H141635   1.926   5.379   0.458 -1.9160  0.5097 -0.4389
 6740TIP3    H241636   1.961   5.522   0.420  1.3320  0.0052  0.4651
 6741TIP3   OH241637   0.874   6.742   1.511  0.2398  0.1311 -0.7743
 6741TIP3    H141638   0.881   6.835   1.534  0.3446  0.0062 -0.2853
 6741TIP3    H241639   0.937   6.699   1.569  0.4673 -0.2024 -1.2630
 6742TIP3   OH241640   1.324   1.914  13.081 -0.1498  0.5827  0.7391
 6742TIP3    H141641   1.392   1.908  13.148  0.6048  1.5820  0.0775
 6742TIP3    H241642   1.363   1.873  13.004 -0.3354  1.0715  0.3845
 6743TIP3   OH241643   1.767   6.950  12.533 -0.0808 -0.2629  0.4280
 6743TIP3    H141644   1.723   6.990  12.458 -0.4107 -1.7552 -0.2068
 6743TIP3    H241645   1.718   6.869  12.549  0.0157  0.0248  2.2404
 6744TIP3   OH241646   2.732   7.124   0.001 -0.4197  0.5437 -0.4166
 6744TIP3    H141647   2.710   7.186   0.070 -0.4431  1.3474 -1.1493
 6744TIP3    H241648   2.647   7.093  -0.031 -0.4703  1.7569 -1.5164
 6745TIP3   OH241649   2.965   0.631  11.502 -0.3377  0.1994 -0.2516
 6745TIP3    H141650   3.011   0.660  11.581 -0.8398  0.0108  0.1046
 6745TIP3    H241651   3.032   0.636  11.433  0.0912  0.3897  0.1745
 6746TIP3   OH241652   3.171   5.501   1.095  0.1407  0.6200 -0.4126
 6746TIP3    H141653   3.181   5.461   1.008  0.4747  1.9162 -0.9797
 6746TIP3    H241654   3.250   5.473   1.143 -0.9277 -1.6192  0.1101
 6747TIP3   OH241655   2.822   0.725  15.109 -0.3608  0.2462  0.0423
 6747TIP3    H141656   2.910   0.718  15.147 -0.6545 -0.7003  0.5610
 6747TIP3    H241657   2.763   0.700  15.180 -0.9340 -1.0899 -0.8702
 6748TIP3   OH241658   2.257   1.939   1.999  0.2260  0.3574 -0.2496
 6748TIP3    H141659   2.183   1.920   2.057  1.5521  0.5213  1.5373
 6748TIP3    H241660   2.333   1.938   2.057  1.3470  2.5963 -1.6188
 6749TIP3   OH241661   6.788   0.194  12.875 -0.4018  0.1654  0.1511
 6749TIP3    H141662   6.773   0.271  12.819 -1.7610  0.0033  0.2677
 6749TIP3    H241663   6.704   0.181  12.920  0.0042 -1.0325  0.5691
 6750TIP3   OH241664   2.398   6.308  10.231  0.0924 -0.2555 -0.6062
 6750TIP3    H141665   2.312   6.350  10.229 -0.4667 -1.3904 -1.0955
 6750TIP3    H241666   2.450   6.357  10.167 -0.2161  0.3679 -0.3866
 6751TIP3   OH241667   1.640   2.786  15.048 -0.0924  0.2986  0.3041
 6751TIP3    H141668   1.720   2.766  15.001 -0.2226 -0.7780  0.5173
 6751TIP3    H241669   1.642   2.881  15.060  1.2706  0.2514  0.5368
 6752TIP3   OH241670   1.078   6.916   3.009 -0.7292 -0.1636 -0.3292
 6752TIP3    H141671   1.082   6.958   2.923 -1.2052 -1.0788 -0.7938
 6752TIP3    H241672   1.061   6.989   3.070 -2.0037  0.2737 -1.1820
 6753TIP3   OH241673   3.845   4.728  11.339  0.1655 -0.0730  0.2032
 6753TIP3    H141674   3.754   4.742  11.364  0.2322  1.4190 -0.3699
 6753TIP3    H241675   3.868   4.803  11.285  0.5088 -2.4448 -3.1241
 6754TIP3   OH241676   0.525   3.301  15.157  0.7703  0.3384 -0.0622
 6754TIP3    H141677   0.465   3.255  15.098  0.2001  1.7745 -0.6071
 6754TIP3    H241678   0.485   3.292  15.244  0.7843 -0.3923 -0.1263
 6755TIP3   OH241679   0.169   6.110  13.100 -0.1659 -0.5681 -0.1952
 6755TIP3    H141680   0.102   6.169  13.064  0.0575 -0.2342 -0.0633
 6755TIP3    H241681   0.186   6.048  13.030 -0.8611 -0.8616 -0.1141
 6756TIP3   OH241682   3.419   5.478   0.516  0.3444  0.0102  0.2619
 6756TIP3    H141683   3.439   5.444   0.604 -0.3797 -0.8174  0.1068
 6756TIP3    H241684   3.411   5.400   0.461 -1.7985  0.4041 -0.0017
 6757TIP3   OH241685   5.598   6.862  13.363  0.0635  0.3793 -0.5622
 6757TIP3    H141686   5.566   6.864  13.273  0.8638  1.3849 -0.8276
 6757TIP3    H241687   5.594   6.953  13.392  0.6362  0.1881  0.1262
 6758TIP3   OH241688   1.156   2.284  14.232  0.5310 -0.3137  0.3013
 6758TIP3    H141689   1.086   2.220  14.219  1.4628 -1.3994  0.6418
 6758TIP3    H241690   1.217   2.242  14.292  0.7936  1.1760  1.1047
 6759TIP3   OH241691   2.959   1.725  14.114  0.1045  0.1210  0.8227
 6759TIP3    H141692   2.955   1.686  14.202 -1.6681  0.0600  0.7390
 6759TIP3    H241693   3.041   1.693  14.078  0.4273 -0.5945  2.1325
 6760TIP3   OH241694   3.631   6.649   2.070 -0.3391 -0.7967 -0.2926
 6760TIP3    H141695   3.726   6.662   2.069 -0.5660  1.0669 -1.4763
 6760TIP3    H241696   3.611   6.617   2.158  1.4222 -1.5566 -0.1561
 6761TIP3   OH241697   0.802   4.681  11.975 -0.3620 -0.5167  0.9092
 6761TIP3    H141698   0.802   4.612  11.908  0.0768  0.1766  0.1822
 6761TIP3    H241699   0.767   4.638  12.053 -2.6244 -0.8709 -0.2493
 6762TIP3   OH241700   4.787   3.220   0.751 -0.3282  0.1662 -0.2802
 6762TIP3    H141701   4.735   3.211   0.831 -1.9513  0.2468 -1.2994
 6762TIP3    H241702   4.877   3.202   0.779 -1.0544 -1.2440  1.2846
 6763TIP3   OH241703   1.643   0.533  14.210  0.1634 -0.2335 -0.1574
 6763TIP3    H141704   1.625   0.561  14.120  1.6929  1.0028 -0.0845
 6763TIP3    H241705   1.596   0.596  14.265 -0.9440 -1.1122 -0.0736
 6764TIP3   OH241706   7.122   2.974  13.093  0.2714  0.0120 -0.5512
 6764TIP3    H141707   7.159   2.991  13.007 -0.2771 -0.1349 -0.8153
 6764TIP3    H241708   7.196   2.985  13.153  0.9304 -1.0606 -1.1497
 6765TIP3   OH241709   6.176   5.164  14.472 -0.2436 -0.0848  0.4119
 6765TIP3    H141710   6.254   5.141  14.521  0.5415  1.9035  0.1433
 6765TIP3    H241711   6.108   5.175  14.538  0.3525  0.7825  0.8757
 6766TIP3   OH241712   4.823   1.718   1.351  0.1109 -0.7187 -0.6899
 6766TIP3    H141713   4.852   1.630   1.373 -0.7059 -0.9841 -0.6601
 6766TIP3    H241714   4.892   1.775   1.385  0.0200 -1.2705  0.4353
 6767TIP3   OH241715   4.914   1.322  10.475 -0.0100  0.0470  0.5709
 6767TIP3    H141716   4.854   1.255  10.510  0.3873 -0.7939 -0.3249
 6767TIP3    H241717   4.987   1.272  10.440  0.0516  0.9232 -0.5774
 6768TIP3   OH241718   2.465   0.532  11.283  0.0687  0.3670 -0.6779
 6768TIP3    H141719   2.467   0.458  11.343 -2.3839  2.1376  1.7122
 6768TIP3    H241720   2.554   0.568  11.286  0.7559 -1.3289 -0.4085
 6769TIP3   OH241721   1.259   5.986  13.615  0.3496  0.1648  0.1202
 6769TIP3    H141722   1.278   6.080  13.623  0.6631  0.0440  0.9334
 6769TIP3    H241723   1.268   5.953  13.705  2.7511 -1.1137 -0.5517
 6770TIP3   OH241724   5.003   3.936  14.861 -0.3171  0.3876 -0.0375
 6770TIP3    H141725   5.010   3.840  14.867 -2.5573  0.1953 -0.3064
 6770TIP3    H241726   4.913   3.955  14.885  0.0748  2.4428 -0.1434
 6771TIP3   OH241727   1.782   0.553  15.112 -0.4849  0.7651 -0.0721
 6771TIP3    H141728   1.834   0.478  15.083 -0.3436  0.5772  0.6541
 6771TIP3    H241729   1.834   0.593  15.181 -0.1908  2.0146 -0.9898
 6772TIP3   OH241730   3.301   1.546   0.185 -0.6024  0.0615  0.3951
 6772TIP3    H141731   3.345   1.518   0.265 -0.4277  0.1507  0.3308
 6772TIP3    H241732   3.218   1.498   0.185 -0.8000  0.4040  0.8551
 6773TIP3   OH241733   4.177   0.913   1.991 -0.2002 -0.0554  0.6603
 6773TIP3    H141734   4.175   0.851   1.919 -1.6924 -1.5116  1.9198
 6773TIP3    H241735   4.088   0.912   2.027 -0.4310  3.2209  0.3984
 6774TIP3   OH241736   3.728   1.200   0.076  0.5309  0.0630  0.4272
 6774TIP3    H141737   3.818   1.231   0.085  0.4524  0.0698  1.2602
 6774TIP3    H241738   3.683   1.269   0.028  0.5314  0.9155  1.6274
 6775TIP3   OH241739   4.683   0.585  11.620 -0.1410  0.4945  0.4057
 6775TIP3    H141740   4.641   0.652  11.566 -0.8012  0.1979  0.5447
 6775TIP3    H241741   4.765   0.624  11.648  0.3307  0.5446 -1.0485
 6776TIP3   OH241742   6.483   6.450   2.394 -0.2741 -0.4163  0.0604
 6776TIP3    H141743   6.513   6.519   2.452 -0.4100  0.5789 -1.0422
 6776TIP3    H241744   6.459   6.378   2.453 -0.3515  0.5519  1.2274
 6777TIP3   OH241745   2.552   1.770   1.886  0.5414 -0.4474  0.0918
 6777TIP3    H141746   2.519   1.804   1.969 -0.0821  2.9331 -1.4421
 6777TIP3    H241747   2.475   1.766   1.829  1.5254  0.5454 -1.3347
 6778TIP3   OH241748   3.243   5.898  14.341 -0.2914  0.9452  0.1523
 6778TIP3    H141749   3.216   5.825  14.397 -2.5066  0.6305 -1.2556
 6778TIP3    H241750   3.324   5.929  14.380 -0.9937 -0.2169  2.6562
 6779TIP3   OH241751   3.722   1.213  12.628 -0.3627  0.0810 -0.0867
 6779TIP3    H141752   3.785   1.162  12.680  0.0488  0.6503 -0.0199
 6779TIP3    H241753   3.661   1.247  12.693 -1.0604 -0.9213 -0.2120
 6780TIP3   OH241754   3.183   0.078  15.332 -0.0214  0.4643 -0.3782
 6780TIP3    H141755   3.165  -0.014  15.346  2.1020 -0.2768 -2.2346
 6780TIP3    H241756   3.168   0.119  15.417  0.5691 -1.8523  0.8779
 6781TIP3   OH241757   3.008   2.573  12.500  0.5671 -0.6782  0.4532
 6781TIP3    H141758   3.042   2.623  12.574 -0.0401 -0.7261  0.7654
 6781TIP3    H241759   3.086   2.552  12.447  0.9380 -0.2334  0.8217
 6782TIP3   OH241760   2.600   5.386   1.791  0.1377  0.0373 -0.1603
 6782TIP3    H141761   2.663   5.458   1.786  0.5925 -0.4785 -1.8933
 6782TIP3    H241762   2.534   5.418   1.853  1.8966  0.7190  1.4383
 6783TIP3   OH241763   0.596   3.879  13.154 -0.0353 -0.5028  0.4568
 6783TIP3    H141764   0.612   3.964  13.195 -0.5774  0.1864 -0.7262
 6783TIP3    H241765   0.633   3.815  13.215  0.9857  0.6240  1.0348
 6784TIP3   OH241766   3.562   2.472  12.321  0.0466 -0.8171  0.2396
 6784TIP3    H141767   3.602   2.513  12.244 -0.8007 -1.5550 -0.6161
 6784TIP3    H241768   3.591   2.381  12.317  1.3230 -0.5055  1.7212
 6785TIP3   OH241769   3.199   4.945  12.869  0.8295 -0.5673 -0.1214
 6785TIP3    H141770   3.177   4.996  12.947  1.2758 -0.8495  0.1894
 6785TIP3    H241771   3.121   4.893  12.851 -0.1387  1.2379 -1.2512
 6786TIP3   OH241772   3.736   3.428   0.278  0.5024 -0.0015 -0.0215
 6786TIP3    H141773   3.719   3.517   0.309  1.8130  0.7814 -1.4928
 6786TIP3    H241774   3.826   3.430   0.248  0.1886 -1.5330 -1.0985
 6787TIP3   OH241775   3.815   5.203  11.749  0.4322 -0.0998 -0.2914
 6787TIP3    H141776   3.801   5.108  11.751  1.4577 -0.2480  0.9287
 6787TIP3    H241777   3.767   5.233  11.672 -0.0699 -1.5830 -0.5792
 6788TIP3   OH241778   2.552   1.476  13.540  0.6748  0.2039  0.3317
 6788TIP3    H141779   2.503   1.406  13.496 -1.4155  1.7427  0.1566
 6788TIP3    H241780   2.555   1.547  13.477  3.2502  0.1325  0.3235
 6789TIP3   OH241781   5.497   6.887  14.081  0.3357  0.1457 -0.3597
 6789TIP3    H141782   5.474   6.957  14.142 -0.4168  1.5449 -2.2049
 6789TIP3    H241783   5.444   6.813  14.109  0.0145  0.7529  0.6981
 6790TIP3   OH241784   1.151   5.629   1.354 -0.0723  0.1874  0.5427
 6790TIP3    H141785   1.228   5.603   1.405 -0.1408 -1.1527 -0.0347
 6790TIP3    H241786   1.081   5.637   1.419 -0.1686 -1.5585  0.6659
 6791TIP3   OH241787   2.927   0.314  10.329 -0.9154 -0.8651  0.5075
 6791TIP3    H141788   2.879   0.237  10.298 -1.3033  0.0119 -1.1382
 6791TIP3    H241789   3.011   0.278  10.359 -1.7496 -2.1321  1.4027
 6792TIP3   OH241790   4.720   6.986  13.181  0.3617  0.1093 -0.1726
 6792TIP3    H141791   4.655   7.051  13.207  1.3112  0.3198  1.8078
 6792TIP3    H241792   4.696   6.962  13.092 -1.7307  1.0363  0.1047
 6793TIP3   OH241793   2.244   1.635  10.307  0.4114 -0.1063  0.2656
 6793TIP3    H141794   2.331   1.640  10.268  0.4679 -0.7907  0.3017
 6793TIP3    H241795   2.217   1.544  10.293 -1.5337  0.8239 -2.4329
 6794TIP3   OH241796   1.576   4.040   0.928  0.0848  0.1550 -0.3813
 6794TIP3    H141797   1.615   3.961   0.964 -1.6156 -0.7033 -0.3904
 6794TIP3    H241798   1.492   4.050   0.974  1.5124  3.5638  1.7367
 6795TIP3   OH241799   0.714   3.241  13.877 -0.2473 -0.3069  0.7978
 6795TIP3    H141800   0.706   3.277  13.965 -1.5507 -1.6310  1.2258
 6795TIP3    H241801   0.756   3.311  13.826  0.4383  0.4889  2.4374
 6796TIP3   OH241802   3.079   4.492  13.583 -0.9552 -0.0009 -0.0039
 6796TIP3    H141803   3.122   4.533  13.508 -1.0055 -0.3900 -0.2489
 6796TIP3    H241804   2.993   4.533  13.586 -1.2921 -0.6232 -0.7210
 6797TIP3   OH241805   4.332   0.443   0.812  0.4671  0.0826  0.0568
 6797TIP3    H141806   4.321   0.457   0.907 -1.7026 -0.1815 -0.1322
 6797TIP3    H241807   4.390   0.514   0.784  4.4258 -2.1010  2.2165
 6798TIP3   OH241808   1.492   0.410   1.927 -0.2906  0.0910 -0.0025
 6798TIP3    H141809   1.401   0.428   1.903  0.0966  1.3659 -0.6158
 6798TIP3    H241810   1.488   0.335   1.986 -1.7570  0.2875  0.1593
 6799TIP3   OH241811   3.803   2.377   2.382 -0.0045 -0.6885 -0.4091
 6799TIP3    H141812   3.871   2.442   2.403 -0.4332 -0.0360 -1.0610
 6799TIP3    H241813   3.784   2.335   2.466  2.3713 -2.0061 -0.4772
 6800TIP3   OH241814   0.037   0.154  11.421  0.2679 -0.2533  0.4545
 6800TIP3    H141815   0.041   0.059  11.419 -1.3479 -0.3362  0.1401
 6800TIP3    H241816   0.120   0.183  11.383  0.1610 -1.5437 -0.8089
 6801TIP3   OH241817   2.176   6.570   1.349  0.5163 -0.0543  0.3652
 6801TIP3    H141818   2.188   6.621   1.269  2.6684  0.2453  0.8324
 6801TIP3    H241819   2.216   6.624   1.417  0.1544 -1.0351  1.3740
 6802TIP3   OH241820   6.764   4.591  13.475 -0.1965 -0.3309  0.0942
 6802TIP3    H141821   6.749   4.507  13.432  0.8163 -0.0433 -0.8359
 6802TIP3    H241822   6.858   4.606  13.466  0.3510 -1.0671  3.8960
 6803TIP3   OH241823   5.480   3.775  10.664 -0.3990 -0.0070 -0.5678
 6803TIP3    H141824   5.450   3.686  10.642 -1.1232  0.2444 -0.6019
 6803TIP3    H241825   5.516   3.767  10.752  2.4786 -1.0221 -1.7547
 6804TIP3   OH241826   6.619   3.214  13.554 -0.1022  0.4347 -0.3261
 6804TIP3    H141827   6.604   3.197  13.461  0.0629 -1.5599 -0.0120
 6804TIP3    H241828   6.531   3.221  13.591 -0.1693  0.7814 -0.5430
 6805TIP3   OH241829   0.056   6.611  15.213  0.2816  0.3069  0.6862
 6805TIP3    H141830   0.082   6.703  15.210  1.0519  0.1198  1.4122
 6805TIP3    H241831  -0.011   6.607  15.282 -0.3905  0.4750  0.0470
 6806TIP3   OH241832   4.744   2.059  14.031  0.1840 -0.2152 -0.1109
 6806TIP3    H141833   4.684   1.986  14.015  1.4630 -1.0649 -1.1261
 6806TIP3    H241834   4.725   2.121  13.960  0.2324 -0.3126 -0.2094
 6807TIP3   OH241835   5.618   1.687  13.291 -0.2564 -0.5902  0.8481
 6807TIP3    H141836   5.530   1.650  13.290 -0.9470  0.9615  2.2114
 6807TIP3    H241837   5.615   1.754  13.359  2.0971 -0.7981  1.1953
 6808TIP3   OH241838   2.769   3.028  12.030  0.8023 -0.2426  0.2692
 6808TIP3    H141839   2.755   3.117  12.063 -0.8775 -0.9466  1.5379
 6808TIP3    H241840   2.720   3.025  11.948 -1.4214 -0.7954  1.5843
 6809TIP3   OH241841   6.973   2.292  10.824  0.4418  0.0284 -0.8993
 6809TIP3    H141842   6.893   2.336  10.795 -0.6758 -1.0124  0.5388
 6809TIP3    H241843   6.949   2.250  10.907  1.9621 -1.8407 -1.3660
 6810TIP3   OH241844   1.059   1.075   9.802  0.5726  0.0122  0.3162
 6810TIP3    H141845   1.116   1.004   9.775  1.3143 -0.3678  2.7183
 6810TIP3    H241846   0.982   1.032   9.840 -1.3062  0.5218 -2.7409
 6811TIP3   OH241847   3.707   1.577   1.311  0.3226 -0.6656  0.4628
 6811TIP3    H141848   3.648   1.612   1.377 -0.2468 -3.5397  1.5354
 6811TIP3    H241849   3.789   1.625   1.324 -1.3575  2.5760 -0.3180
 6812TIP3   OH241850   4.359   0.752  14.878  0.1782  0.0874  0.6968
 6812TIP3    H141851   4.324   0.775  14.964  1.4305 -1.3902  1.6420
 6812TIP3    H241852   4.444   0.712  14.897  0.0750 -1.0750 -1.1618
 6813TIP3   OH241853   4.351   2.507   0.170 -0.4864 -0.6840  0.4224
 6813TIP3    H141854   4.353   2.536   0.079 -1.2250 -0.5244  0.4568
 6813TIP3    H241855   4.259   2.513   0.196 -0.2304 -0.3648  1.2964
 6814TIP3   OH241856   6.262   0.757  14.455 -0.4666 -0.7521  0.2633
 6814TIP3    H141857   6.349   0.796  14.461  0.0018 -1.6053 -0.7749
 6814TIP3    H241858   6.207   0.827  14.419 -1.1661  1.1398  4.6460
 6815TIP3   OH241859   0.434   3.006  14.102 -0.5223  0.3197 -0.3108
 6815TIP3    H141860   0.406   3.076  14.161 -0.4765  0.5782 -0.5959
 6815TIP3    H241861   0.413   3.038  14.014  0.5006  0.4455 -0.5172
 6816TIP3   OH241862   4.360   2.796   0.553  0.0406  0.7107  0.2691
 6816TIP3    H141863   4.312   2.864   0.601 -1.0512  0.6271 -0.6815
 6816TIP3    H241864   4.294   2.754   0.499  1.3542  1.2307 -1.7925
 6817TIP3   OH241865   3.336   2.248  14.148 -0.3896  0.6481 -0.3606
 6817TIP3    H141866   3.257   2.293  14.118 -0.5427 -0.0952 -1.0992
 6817TIP3    H241867   3.406   2.312  14.136 -0.8926  1.3394  0.3830
 6818TIP3   OH241868   4.419   1.816   1.103 -0.1931  0.0103 -0.5340
 6818TIP3    H141869   4.484   1.809   1.172 -2.3332  1.2223  1.6821
 6818TIP3    H241870   4.434   1.902   1.063 -2.7222  1.9462  2.4709
 6819TIP3   OH241871   0.490   3.349  13.626  0.1925 -0.2553  0.5930
 6819TIP3    H141872   0.455   3.436  13.604 -0.4242 -1.1620 -2.2051
 6819TIP3    H241873   0.414   3.301  13.658  0.7977  0.6112  3.4177
 6820TIP3   OH241874   3.926   5.088  14.762 -0.4191  0.0051  0.8111
 6820TIP3    H141875   3.847   5.107  14.712  0.2075  1.4991  0.3602
 6820TIP3    H241876   3.931   5.158  14.827  1.4538  0.9460 -0.2906
 6821TIP3   OH241877   3.476   6.250  14.405 -0.3058  0.4870  0.0490
 6821TIP3    H141878   3.450   6.201  14.484 -2.1865  0.5450 -0.5052
 6821TIP3    H241879   3.427   6.332  14.411  2.3233  2.0784  0.6371
 6822TIP3   OH241880   3.515   5.609  12.782 -0.2142  0.3746 -0.1370
 6822TIP3    H141881   3.585   5.546  12.764  0.9187  1.5056  0.1841
 6822TIP3    H241882   3.519   5.622  12.877  0.4293  1.8895 -0.3512
 6823TIP3   OH241883   1.001   0.651  15.143 -0.0612  0.0217  0.5595
 6823TIP3    H141884   0.972   0.670  15.054 -0.7996 -1.2313  0.5115
 6823TIP3    H241885   1.072   0.712  15.159 -0.8986  1.2569 -0.3532
 6824TIP3   OH241886   5.790   6.873  12.099 -0.2153  0.1916  0.1447
 6824TIP3    H141887   5.753   6.953  12.061  1.1169  0.8112  0.1256
 6824TIP3    H241888   5.828   6.901  12.182  2.0989  0.0208 -0.8053
 6825TIP3   OH241889   5.684   3.589  10.285 -0.7534  0.1405  0.0291
 6825TIP3    H141890   5.600   3.560  10.250 -1.3562  0.1130  1.4355
 6825TIP3    H241891   5.677   3.685  10.287 -1.0472  0.1134  0.7946
 6826TIP3   OH241892   3.154   0.119   0.894  0.3334  0.6695 -0.5002
 6826TIP3    H141893   3.156   0.112   0.798 -1.6114 -1.2381 -0.4375
 6826TIP3    H241894   3.206   0.044   0.924 -0.7352  0.0858 -0.0667
 6827TIP3   OH241895   3.421   3.778   0.398 -0.0022 -0.4257 -0.3122
 6827TIP3    H141896   3.450   3.859   0.356  0.6910 -0.4477  0.1140
 6827TIP3    H241897   3.383   3.727   0.326  0.4050 -0.1114 -0.7592
 6828TIP3   OH241898   2.939   3.824  13.599  0.0398 -0.3625 -0.0001
 6828TIP3    H141899   2.898   3.825  13.512 -0.2334 -1.0127  0.1221
 6828TIP3    H241900   2.895   3.753  13.646  0.7588 -0.5435  0.3998
 6829TIP3   OH241901   5.608   1.608  13.675  0.2779  0.2615  0.4803
 6829TIP3    H141902   5.677   1.674  13.675  1.1427 -0.6196  1.3467
 6829TIP3    H241903   5.646   1.534  13.628 -0.5736  0.2626 -0.2165
 6830TIP3   OH241904   3.493   1.002  12.512  0.0743  0.9979 -0.3786
 6830TIP3    H141905   3.526   0.947  12.584  1.5107  0.8310 -1.1483
 6830TIP3    H241906   3.464   1.082  12.555  1.5507  1.1770  0.3464
 6831TIP3   OH241907   1.853   3.021   1.523  0.2543  0.3757 -0.1393
 6831TIP3    H141908   1.804   3.092   1.563  0.6820  0.2963  0.5387
 6831TIP3    H241909   1.787   2.954   1.504 -0.1059  0.8422 -0.5348
 6832TIP3   OH241910   1.535   3.131   1.372 -0.1382  0.8180  0.4828
 6832TIP3    H141911   1.477   3.058   1.350 -0.5422  1.4065 -0.4266
 6832TIP3    H241912   1.497   3.206   1.328  1.1157  1.2886  0.1777
 6833TIP3   OH241913   5.349   2.749  14.015 -0.0474 -0.5325  0.1457
 6833TIP3    H141914   5.270   2.779  13.971 -0.4707 -1.1764  0.4476
 6833TIP3    H241915   5.320   2.674  14.067  0.7972 -0.8774  0.1282
 6834TIP3   OH241916   0.324   0.077   2.933  0.2452 -0.1778  0.2209
 6834TIP3    H141917   0.257   0.133   2.973  0.3121 -0.6639  1.0220
 6834TIP3    H241918   0.281   0.040   2.856  0.1076  0.7498 -0.1611
 6835TIP3   OH241919   2.083   0.370  14.715  0.3816 -0.2411 -0.0358
 6835TIP3    H141920   2.065   0.306  14.646 -1.3029 -0.3364  0.4690
 6835TIP3    H241921   2.054   0.328  14.795 -0.5326  1.0581  0.3254
 6836TIP3   OH241922   0.003   5.389  14.798  0.2257 -0.1426  0.2500
 6836TIP3    H141923  -0.041   5.412  14.717  0.9129 -1.0438 -0.3884
 6836TIP3    H241924   0.089   5.431  14.791  0.0998  0.2099  0.7502
 6837TIP3   OH241925   5.459   1.290  13.149  0.0245  0.2558  0.3694
 6837TIP3    H141926   5.396   1.309  13.080  0.1508 -1.6302 -0.2770
 6837TIP3    H241927   5.531   1.351  13.133 -0.0733  0.0268 -0.9842
 6838TIP3   OH241928   4.227   6.773   0.119  0.1800  0.1391 -0.0675
 6838TIP3    H141929   4.279   6.751   0.196 -1.2702 -1.1602  0.5570
 6838TIP3    H241930   4.226   6.869   0.118  0.9155  0.1706  1.0386
 6839TIP3   OH241931   1.789   0.194  15.375  0.4563 -0.2048 -0.5010
 6839TIP3    H141932   1.792   0.115  15.320 -2.2083  0.0711 -1.0717
 6839TIP3    H241933   1.713   0.182  15.431  0.3307  1.7293 -0.2300
 6840TIP3   OH241934   6.500   2.067   1.175 -0.0412  0.5782 -0.1661
 6840TIP3    H141935   6.493   2.133   1.107 -0.0958 -0.0384 -0.7691
 6840TIP3    H241936   6.519   2.116   1.255 -0.3700  1.3393 -0.5513
 6841TIP3   OH241937   3.810   1.306  13.515  0.2733  0.0248 -0.8018
 6841TIP3    H141938   3.798   1.255  13.595 -1.4410  2.1909  0.3837
 6841TIP3    H241939   3.725   1.301  13.471  0.9839 -0.5357 -2.1549
 6842TIP3   OH241940   4.034   4.612  11.518 -0.6817  0.3550 -0.0105
 6842TIP3    H141941   3.979   4.633  11.443 -1.1447  1.8476  0.7355
 6842TIP3    H241942   4.123   4.607  11.483 -1.2176 -1.7177 -1.1531
 6843TIP3   OH241943   3.657   6.219   0.977  0.6031  0.3236  0.0520
 6843TIP3    H141944   3.607   6.246   0.900  1.1899  0.0719 -0.4275
 6843TIP3    H241945   3.748   6.219   0.947  0.9204  1.0472  0.9822
 6844TIP3   OH241946   6.998   3.426  14.040  0.1094  0.5893  0.3669
 6844TIP3    H141947   7.093   3.418  14.043  0.2085  1.4715 -0.3930
 6844TIP3    H241948   6.977   3.441  13.948 -0.7010  1.1001  0.6243
 6845TIP3   OH241949   3.500   1.073  14.194  0.3467  0.3799 -0.4671
 6845TIP3    H141950   3.557   0.996  14.194 -0.7679 -0.5134  2.5362
 6845TIP3    H241951   3.561   1.147  14.200  1.3086 -0.4274  0.0079
 6846TIP3   OH241952   6.280   2.691  12.583 -0.3806  0.1768  0.0032
 6846TIP3    H141953   6.244   2.609  12.616 -1.0237 -0.7032 -2.7422
 6846TIP3    H241954   6.317   2.668  12.497 -1.5300  2.9387 -1.2934
 6847TIP3   OH241955   3.634   1.967  13.331 -0.3434 -0.1748  0.1031
 6847TIP3    H141956   3.724   2.002  13.329  0.2086 -1.5583 -0.0296
 6847TIP3    H241957   3.607   1.976  13.422  1.0468 -2.4207  0.8020
 6848TIP3   OH241958   4.085   7.087  13.071  0.0795  0.0367  0.0644
 6848TIP3    H141959   4.081   7.009  13.014  1.8289  0.8877 -1.2740
 6848TIP3    H241960   3.994   7.112  13.083 -0.4098 -1.1578 -0.9801
 6849TIP3   OH241961   3.729   0.892   1.834 -0.0288 -0.6954  0.2500
 6849TIP3    H141962   3.719   0.848   1.750 -0.8730  0.1831 -0.1138
 6849TIP3    H241963   3.802   0.952   1.821 -1.0176  0.4246 -0.2937
 6850TIP3   OH241964   6.680   3.516  14.458 -0.5761 -0.2548 -0.5159
 6850TIP3    H141965   6.760   3.519  14.407  0.3559 -0.0531  0.9284
 6850TIP3    H241966   6.675   3.427  14.492  0.3158  0.3822  1.3615
 6851TIP3   OH241967   6.011   5.699  14.519 -0.0329 -0.0203  0.1019
 6851TIP3    H141968   5.961   5.777  14.544 -1.6042 -1.5595  1.9261
 6851TIP3    H241969   6.087   5.701  14.576  0.6607  0.9063 -0.8329
 6852TIP3   OH241970   0.849   1.803  13.661 -0.7107  0.3833 -0.5923
 6852TIP3    H141971   0.793   1.879  13.676  0.0792  0.9348 -0.4177
 6852TIP3    H241972   0.933   1.840  13.635 -0.6730 -0.4632 -1.6905
 6853TIP3   OH241973   5.533   6.756  11.768  0.3126 -0.4357  0.4166
 6853TIP3    H141974   5.453   6.711  11.739  0.6832 -0.6131 -0.3292
 6853TIP3    H241975   5.567   6.701  11.838  0.7045 -1.2567 -0.4192
 6854TIP3   OH241976   0.500   3.307  12.725  0.9100 -0.0318 -0.5161
 6854TIP3    H141977   0.507   3.321  12.631 -1.1661  0.3520 -0.6407
 6854TIP3    H241978   0.560   3.371  12.763  0.9610  0.5459 -1.5477
 6855TIP3   OH241979   1.468   3.640  15.351  0.3340 -0.5779 -0.1170
 6855TIP3    H141980   1.508   3.566  15.306  2.7894 -0.3000  1.4836
 6855TIP3    H241981   1.381   3.610  15.375  0.1666 -1.8383 -2.1942
 6856TIP3   OH241982   5.678   0.855   2.260  0.1052 -0.1987 -0.2796
 6856TIP3    H141983   5.763   0.828   2.295  0.7391 -0.8731 -2.2737
 6856TIP3    H241984   5.699   0.910   2.185 -1.2277  0.4695 -0.1828
 6857TIP3   OH241985   7.148   0.315  15.178 -0.0554  0.1314  0.3654
 6857TIP3    H141986   7.239   0.298  15.151 -0.1757 -0.3846  0.2848
 6857TIP3    H241987   7.105   0.230  15.170 -0.1374 -0.0046  2.0363
 6858TIP3   OH241988   4.467   3.907  13.804  0.4046 -0.0207  0.6970
 6858TIP3    H141989   4.513   3.836  13.761  0.6014 -0.7639  2.0868
 6858TIP3    H241990   4.388   3.920  13.752  0.2073 -1.4763  0.6125
 6859TIP3   OH241991   0.266   4.606  10.953  0.0681 -0.2469 -0.1051
 6859TIP3    H141992   0.227   4.538  10.898  1.3216 -1.0913  0.0387
 6859TIP3    H241993   0.337   4.561  10.999  0.1474  0.8815  0.8746
 6860TIP3   OH241994   3.615   1.016  11.777  0.0383 -0.0783 -0.2257
 6860TIP3    H141995   3.710   1.005  11.765  0.2200  0.8399  0.2911
 6860TIP3    H241996   3.597   1.104  11.744 -0.0850  0.9904  2.5107
 6861TIP3   OH241997   1.861   4.049   1.542  0.0410 -0.4195  0.3462
 6861TIP3    H141998   1.866   4.068   1.448 -0.9447  0.0396  0.3866
 6861TIP3    H241999   1.949   4.018   1.564 -0.0995 -1.8968 -1.0250
 6862TIP3   OH242000   0.413   4.248  13.295  0.0397 -0.7508  0.3185
 6862TIP3    H142001   0.476   4.182  13.322 -0.6745 -1.2434  0.8151
 6862TIP3    H242002   0.413   4.245  13.200  0.8519 -0.6633  0.3178
 6863TIP3   OH242003   1.235   5.074  13.776  0.5772 -0.0121 -0.3062
 6863TIP3    H142004   1.203   5.150  13.824  1.3611 -0.0953  0.3690
 6863TIP3    H242005   1.165   5.009  13.785  0.3212  0.2976 -0.0651
 6864TIP3   OH242006   2.510   2.607   1.446  0.1638 -0.3653  0.0057
 6864TIP3    H142007   2.535   2.523   1.484  0.9067 -0.5645 -0.9012
 6864TIP3    H242008   2.465   2.653   1.517  1.3138 -0.8212  1.0452
 6865TIP3   OH242009   0.224   6.208  10.543  0.1211 -0.2979 -0.0093
 6865TIP3    H142010   0.143   6.196  10.591 -0.1977 -2.9886 -1.1583
 6865TIP3    H242011   0.288   6.153  10.589  0.8709  0.4193 -0.1699
 6866TIP3   OH242012   5.511   1.232  14.955  0.3941  0.1149  0.0907
 6866TIP3    H142013   5.508   1.177  14.877  0.9552  0.1674  0.0289
 6866TIP3    H242014   5.431   1.210  15.003 -0.0673  0.2416 -0.6045
 6867TIP3   OH242015   2.886   1.033  14.012  0.1295  0.0806 -0.3131
 6867TIP3    H142016   2.895   1.071  13.924  2.4165 -0.7541 -0.4631
 6867TIP3    H242017   2.932   1.094  14.070 -0.4515  0.0703  0.1632
 6868TIP3   OH242018   3.260   3.300   1.060  0.1573  0.5001  0.3039
 6868TIP3    H142019   3.241   3.275   1.150  0.4070  1.4942  0.6368
 6868TIP3    H242020   3.340   3.353   1.066  1.1669 -0.8657 -0.6901
 6869TIP3   OH242021   0.983   3.732   1.086 -0.2211  0.1001  0.4462
 6869TIP3    H142022   0.999   3.691   1.001  0.3179  1.6524 -0.2089
 6869TIP3    H242023   1.000   3.662   1.149  2.1073 -0.3244 -0.5989
 6870TIP3   OH242024   0.332   7.126  10.228  0.0083  0.0162  0.9483
 6870TIP3    H142025   0.366   7.215  10.220  2.0410 -0.7390  0.7930
 6870TIP3    H242026   0.289   7.108  10.145 -0.6317  0.9495  1.0798
 6871TIP3   OH242027   0.933   2.016  10.778  0.3214 -0.2980  0.1006
 6871TIP3    H142028   0.950   2.014  10.684  1.9739  0.6382  0.3710
 6871TIP3    H242029   0.961   2.103  10.806 -2.2384  0.2615  1.1008
 6872TIP3   OH242030   2.364   0.049  11.303  0.0488  0.3111  0.1381
 6872TIP3    H142031   2.286   0.007  11.339  0.1679 -0.6024 -0.6434
 6872TIP3    H242032   2.435   0.021  11.359 -0.1649  1.0734  0.7996
 6873TIP3   OH242033   3.154   3.579  14.248  0.1013  0.4713  0.9800
 6873TIP3    H142034   3.090   3.540  14.189  1.6206  0.2040 -0.5270
 6873TIP3    H242035   3.150   3.673  14.230  0.3931  0.4162  0.6399
 6874TIP3   OH242036   0.039   1.173  10.359 -0.2356 -0.5163  0.5817
 6874TIP3    H142037   0.065   1.265  10.359  3.0591 -1.4059  1.1505
 6874TIP3    H242038  -0.023   1.167  10.432 -1.2471  1.4178 -0.0661
 6875TIP3   OH242039   5.138   1.435  15.501 -0.2791 -0.4733  0.4113
 6875TIP3    H142040   5.143   1.340  15.494 -1.7762 -0.5759  0.6540
 6875TIP3    H242041   5.050   1.457  15.470  0.1094  0.8497  0.2047
 6876TIP3   OH242042   3.017   2.476  10.944  0.2019 -0.3057 -0.2053
 6876TIP3    H142043   3.097   2.448  10.900  0.5597  1.6757 -0.9022
 6876TIP3    H242044   2.968   2.396  10.960  2.1420 -1.5052 -0.1462
 6877TIP3   OH242045   6.325   2.001  14.335  0.7014  0.2172 -0.2463
 6877TIP3    H142046   6.244   1.960  14.306  1.0776 -0.8445  0.1821
 6877TIP3    H242047   6.313   2.015  14.429  0.9456  0.2025 -0.2121
 6878TIP3   OH242048   5.946   7.101  15.472 -0.1515 -0.1437 -0.1445
 6878TIP3    H142049   5.928   7.015  15.510 -1.6862 -0.0130 -0.5107
 6878TIP3    H242050   5.897   7.162  15.528 -1.4096  0.1809 -1.5436
 6879TIP3   OH242051   3.997   1.912   1.198  0.5459 -0.5012 -0.1403
 6879TIP3    H142052   4.038   1.842   1.148  1.0195 -0.9350  0.8229
 6879TIP3    H242053   3.933   1.867   1.254 -0.3702  0.0342 -0.7524
 6880TIP3   OH242054   4.944   1.514   1.065 -0.5376  0.0192  0.1939
 6880TIP3    H142055   4.865   1.478   1.104 -0.3048 -0.5195  0.1597
 6880TIP3    H242056   5.009   1.445   1.071  0.0254  0.5686  0.4921
 6881TIP3   OH242057   5.880   6.924   4.832  0.3161 -0.1580 -0.1563
 6881TIP3    H142058   5.971   6.941   4.858  0.6816  0.2653 -1.6461
 6881TIP3    H242059   5.830   6.993   4.876  0.9252  0.5798 -0.6044
 6882TIP3   OH242060   4.536   3.938  13.475 -0.2182  0.0647 -0.4773
 6882TIP3    H142061   4.475   4.011  13.471 -0.7302 -0.2969  0.6169
 6882TIP3    H242062   4.602   3.959  13.409 -0.9821  0.9407 -0.9809
 6883TIP3   OH242063   5.739   6.131  11.937 -0.7893 -0.0214 -0.0835
 6883TIP3    H142064   5.709   6.216  11.969 -0.9975  0.0306 -0.4082
 6883TIP3    H242065   5.830   6.146  11.911 -0.9493  0.2042 -0.5190
 6884TIP3   OH242066   3.490   2.236  13.781  0.1462  0.7545  0.0199
 6884TIP3    H142067   3.555   2.302  13.755  0.8609 -0.9659 -2.8542
 6884TIP3    H242068   3.407   2.283  13.781  1.0994  2.5163  1.7650
 6885TIP3   OH242069   4.766   6.389  15.394 -0.3972  0.4334  0.1556
 6885TIP3    H142070   4.835   6.346  15.343  0.5073  2.0251  0.0141
 6885TIP3    H242071   4.768   6.345  15.479  1.2071  0.8767  0.3554
 6886TIP3   OH242072   5.809   1.260  13.202  0.0401  0.3510  0.6498
 6886TIP3    H142073   5.826   1.245  13.295 -0.9389 -0.5627  0.6885
 6886TIP3    H242074   5.766   1.345  13.198 -3.6224 -1.4013  1.4530
 6887TIP3   OH242075   3.259   3.129   4.323  0.2593  0.7076 -0.2075
 6887TIP3    H142076   3.224   3.187   4.391 -3.4661 -0.4169 -1.0732
 6887TIP3    H242077   3.256   3.041   4.363 -1.4822  0.1098 -1.6322
 6888TIP3   OH242078   0.224   6.640  14.676 -0.1203  0.0542  0.0538
 6888TIP3    H142079   0.178   6.565  14.638 -0.6383 -0.8921  2.4235
 6888TIP3    H242080   0.281   6.671  14.606 -0.2883 -2.2239 -1.1597
 6889TIP3   OH242081   4.652   6.078  14.034  1.1516  0.1422 -0.1674
 6889TIP3    H142082   4.586   6.089  14.102  2.4434 -3.0103  1.6588
 6889TIP3    H242083   4.611   6.020  13.969  0.8797  1.0149 -0.7857
 6890TIP3   OH242084   6.983   0.861  15.474  0.6822 -0.4277  0.2859
 6890TIP3    H142085   7.026   0.904  15.400  1.4132 -1.2061  0.2580
 6890TIP3    H242086   6.896   0.837  15.440  0.2992  0.9292  0.2766
 6891TIP3   OH242087   7.020   0.873  12.066  0.2379  0.2265  0.6024
 6891TIP3    H142088   7.088   0.805  12.066 -0.1775 -0.1937  0.9144
 6891TIP3    H242089   6.976   0.862  12.150 -0.0697  0.6495  0.4966
 6892TIP3   OH242090   5.062   6.445   0.201 -0.1729  0.2237 -0.0804
 6892TIP3    H142091   5.081   6.397   0.282  0.0764 -0.2841 -0.4346
 6892TIP3    H242092   5.084   6.383   0.131 -0.1928  0.7319 -0.5395
 6893TIP3   OH242093   5.180   6.608  10.827 -0.2827  0.4179  0.2182
 6893TIP3    H142094   5.086   6.593  10.840  0.0146  0.0389  2.0457
 6893TIP3    H242095   5.220   6.523  10.844  0.5054  0.8755  0.6600
 6894TIP3   OH242096   6.697   3.820  11.920 -0.0756  0.3257  0.1114
 6894TIP3    H142097   6.630   3.821  11.852 -0.1537  0.5709  0.1909
 6894TIP3    H242098   6.683   3.737  11.966  1.9012 -1.2842 -2.0611
 6895TIP3   OH242099   3.676   4.702   5.264  0.0390  0.4856  0.3585
 6895TIP3    H142100   3.627   4.631   5.222 -0.2994  0.9866 -0.1026
 6895TIP3    H242101   3.767   4.683   5.243 -0.1046  0.5621 -0.3600
 6896TIP3   OH242102   1.554   7.103  10.455 -0.3395 -0.0684 -0.1447
 6896TIP3    H142103   1.539   7.198  10.453  1.3175  0.2304  0.5318
 6896TIP3    H242104   1.572   7.084  10.547  0.3761 -0.8658 -0.4430
 6897TIP3   OH242105   5.445   1.344   0.300 -0.3117 -0.1498  0.7167
 6897TIP3    H142106   5.355   1.378   0.301 -0.3290 -0.2023  1.0441
 6897TIP3    H242107   5.486   1.386   0.225 -0.1141  1.1785  1.5390
 6898TIP3   OH242108   0.657   1.875  11.042  0.1447 -0.0880  0.8996
 6898TIP3    H142109   0.734   1.821  11.062  0.6251  0.5601  0.8067
 6898TIP3    H242110   0.638   1.921  11.124 -1.1957 -1.5226  1.4413
 6899TIP3   OH242111   2.765   0.448  13.137 -0.1259 -0.0376  0.1351
 6899TIP3    H142112   2.673   0.476  13.135  0.1287  0.8002 -0.0746
 6899TIP3    H242113   2.795   0.461  13.047 -0.3003 -2.0368 -0.2434
 6900TIP3   OH242114   1.359   2.072   1.363 -0.0760 -0.2749  0.0044
 6900TIP3    H142115   1.426   2.101   1.424 -0.9755 -2.3713  2.0294
 6900TIP3    H242116   1.358   1.977   1.370 -3.0577 -0.3162 -0.2042
 6901TIP3   OH242117   4.292   0.501  13.481 -0.1508  0.8089 -0.4631
 6901TIP3    H142118   4.301   0.410  13.453 -1.9697  0.4790 -0.0336
 6901TIP3    H242119   4.377   0.524  13.517 -0.2192 -1.3215  1.1279
 6902TIP3   OH242120   4.786   7.059  14.465  0.7100 -0.6133 -0.2301
 6902TIP3    H142121   4.694   7.032  14.464  0.4207  0.3065  0.5604
 6902TIP3    H242122   4.812   7.060  14.373  0.7866 -3.7304 -0.2860
 6903TIP3   OH242123   0.172   1.394   0.334 -0.3251 -0.7744  0.2235
 6903TIP3    H142124   0.240   1.350   0.385 -1.4143  0.4826  2.8013
 6903TIP3    H242125   0.105   1.327   0.322 -0.1412 -1.0285  0.5960
 6904TIP3   OH242126   6.860   4.589  11.631  0.4706 -0.5823  0.2424
 6904TIP3    H142127   6.788   4.555  11.684 -1.0139  1.8479 -0.1677
 6904TIP3    H242128   6.825   4.595  11.542  1.6072 -0.6340 -0.2275
 6905TIP3   OH242129   7.042   0.629  14.211  0.4405 -0.0297 -0.6631
 6905TIP3    H142130   7.004   0.542  14.225 -0.3674  0.2976 -0.7531
 6905TIP3    H242131   7.124   0.629  14.260 -1.0462  0.2139  1.9249
 6906TIP3   OH242132   1.520   1.607  12.256  0.0120  0.3318 -0.6098
 6906TIP3    H142133   1.521   1.699  12.229  0.7314  0.9052  1.3040
 6906TIP3    H242134   1.603   1.571  12.224  0.6431  0.8794  0.4120
 6907TIP3   OH242135   3.697   2.596  14.015 -0.1906 -0.0266  0.0835
 6907TIP3    H142136   3.689   2.638  13.930 -2.0710 -0.6317 -0.0615
 6907TIP3    H242137   3.766   2.645  14.060  1.9460 -0.6742 -2.3396
 6908TIP3   OH242138   6.638   5.203  14.550 -0.0313  0.0738  0.2468
 6908TIP3    H142139   6.623   5.277  14.491 -0.9035 -2.2289 -2.5075
 6908TIP3    H242140   6.600   5.231  14.633 -0.1580  2.7940 -0.6804
 6909TIP3   OH242141   4.164   2.700  15.460 -0.0932 -0.0257  0.0048
 6909TIP3    H142142   4.115   2.780  15.441 -1.8398 -1.3044 -0.9504
 6909TIP3    H242143   4.117   2.659  15.532  0.4258 -0.5084  0.0722
 6910TIP3   OH242144   5.882   2.047  11.001 -0.0682  0.1450  0.4656
 6910TIP3    H142145   5.887   1.952  10.986 -0.4582  0.1328  0.4143
 6910TIP3    H242146   5.962   2.082  10.962  0.3033 -0.2159  0.8900
 6911TIP3   OH242147   6.536   2.846  12.388 -0.4505 -0.2986 -0.4155
 6911TIP3    H142148   6.597   2.915  12.412  1.3800 -1.6783 -0.9985
 6911TIP3    H242149   6.584   2.764  12.404 -2.3802 -1.4361 -0.2270
 6912TIP3   OH242150   4.312   2.937  13.121 -0.4613 -0.3840  0.0995
 6912TIP3    H142151   4.251   2.901  13.057  0.7393 -0.4268 -1.0575
 6912TIP3    H242152   4.386   2.876  13.121  0.3425  0.5647  0.1921
 6913TIP3   OH242153   5.822   3.075  13.178  0.2025 -0.6027 -0.1105
 6913TIP3    H142154   5.791   3.146  13.235  1.1137 -0.6073  0.4095
 6913TIP3    H242155   5.890   3.117  13.125  0.9757 -1.1580  0.4296
 6914TIP3   OH242156   5.054   6.243   1.517  0.1283  0.0428 -0.2199
 6914TIP3    H142157   5.059   6.337   1.532 -1.4516 -0.1077  1.3770
 6914TIP3    H242158   5.106   6.205   1.588 -1.6796 -0.3888  0.9062
 6915TIP3   OH242159   3.561   3.754  11.275  0.1649  0.6008  0.0697
 6915TIP3    H142160   3.591   3.833  11.231  0.4419  0.4805  0.0438
 6915TIP3    H242161   3.472   3.775  11.305  0.7852  1.4246  1.3632
 6916TIP3   OH242162   4.194   5.929  13.725  0.5417  0.3767 -0.0035
 6916TIP3    H142163   4.228   5.851  13.768  1.5845  1.5331  1.3439
 6916TIP3    H242164   4.272   5.982  13.707 -0.1731  1.2293 -0.6324
 6917TIP3   OH242165   5.294   0.949  15.421  0.3122  0.0474 -0.1552
 6917TIP3    H142166   5.372   0.895  15.408  0.0312 -0.5900  0.7371
 6917TIP3    H242167   5.260   0.965  15.333  0.1770 -1.5431 -0.3973
 6918TIP3   OH242168   0.859   6.822   2.333  0.0853 -0.3720 -0.1834
 6918TIP3    H142169   0.874   6.894   2.394  0.7397 -0.3200 -0.4017
 6918TIP3    H242170   0.764   6.815   2.327 -0.0843  2.6330 -2.6774
 6919TIP3   OH242171   5.912   0.471  13.078 -0.4689  0.2749  0.2577
 6919TIP3    H142172   5.927   0.544  13.018  0.2761  1.4138  1.8003
 6919TIP3    H242173   5.880   0.513  13.158 -0.0080 -1.0874  1.1636
 6920TIP3   OH242174   5.475   6.424   0.217  0.1156  0.1310  0.3062
 6920TIP3    H142175   5.544   6.415   0.282  0.0769  1.2482  0.5080
 6920TIP3    H242176   5.519   6.411   0.133  0.0297 -2.0520  0.5766
 6921TIP3   OH242177   4.422   0.001   2.149  0.6302  0.9401 -0.1827
 6921TIP3    H142178   4.397  -0.060   2.079  1.2815  3.0304 -2.2775
 6921TIP3    H242179   4.510  -0.026   2.174  0.6195  0.5608 -0.5444
 6922TIP3   OH242180   3.397   2.892  15.264 -0.4966 -0.7428  0.2160
 6922TIP3    H142181   3.389   2.986  15.282  0.2853 -0.8166  1.0195
 6922TIP3    H242182   3.478   2.885  15.214 -2.1234 -0.6642 -2.4788
 6923TIP3   OH242183   5.315   2.171  14.522 -0.0566 -0.5932  0.3547
 6923TIP3    H142184   5.254   2.098  14.534 -1.0293  0.2229  0.4826
 6923TIP3    H242185   5.268   2.246  14.558  0.5502  0.2658 -0.6425
 6924TIP3   OH242186   3.127   1.740   9.766 -0.6152 -0.2251  0.3908
 6924TIP3    H142187   3.055   1.714   9.708  0.7788  2.5733 -2.7198
 6924TIP3    H242188   3.087   1.801   9.827 -1.0475  0.8054 -0.8955
 6925TIP3   OH242189   0.221   3.880  10.175  0.2006  0.1390  0.5004
 6925TIP3    H142190   0.270   3.801  10.198  0.9105  0.2743 -0.5047
 6925TIP3    H242191   0.142   3.875  10.228 -0.2193 -1.7434 -0.2454
 6926TIP3   OH242192   3.165   6.745  14.189 -0.4885 -0.4227  0.5305
 6926TIP3    H142193   3.208   6.830  14.177 -2.0792  0.3177 -0.1242
 6926TIP3    H242194   3.097   6.762  14.255 -0.8252 -1.1703  0.3821
 6927TIP3   OH242195   5.450   2.417  14.848  0.3065  0.0805 -0.1321
 6927TIP3    H142196   5.494   2.496  14.878 -0.6364  0.2605  0.7985
 6927TIP3    H242197   5.518   2.366  14.804  1.2644  0.6796  0.6551
 6928TIP3   OH242198   0.989   6.503   1.304 -0.3761  1.0064  0.6596
 6928TIP3    H142199   0.898   6.488   1.278 -0.4477  1.0335  0.8969
 6928TIP3    H242200   1.006   6.436   1.371  0.5874 -0.7181 -1.2326
 6929TIP3   OH242201   0.429   0.015  13.698 -0.2085  0.1178 -0.5671
 6929TIP3    H142202   0.490   0.020  13.623 -0.0652  1.7972 -0.3580
 6929TIP3    H242203   0.451  -0.068  13.740  0.7759 -0.1187 -1.5000
 6930TIP3   OH242204   1.665   1.948  15.277 -0.0402  0.1193 -0.1046
 6930TIP3    H142205   1.621   1.896  15.345  0.8942  0.0877  0.4819
 6930TIP3    H242206   1.696   1.883  15.214 -1.9348  0.2213 -1.2054
 6931TIP3   OH242207   5.746   1.043  12.319  0.0336  0.4247  0.1494
 6931TIP3    H142208   5.787   1.077  12.239  1.0391 -1.7916 -0.2979
 6931TIP3    H242209   5.697   0.967  12.291  0.4408 -0.4108  1.6472
 6932TIP3   OH242210   5.524   5.757  14.072 -0.0162 -0.4074 -0.3040
 6932TIP3    H142211   5.606   5.762  14.022  1.0907  2.4056  1.6822
 6932TIP3    H242212   5.508   5.847  14.102 -3.8074 -0.8959 -0.5537
 6933TIP3   OH242213   1.706   0.309  14.840  0.2163  0.8256 -0.1737
 6933TIP3    H142214   1.796   0.314  14.871  0.1702 -0.0696  0.1127
 6933TIP3    H242215   1.712   0.273  14.751  0.0802 -0.1328  0.1983
 6934TIP3   OH242216   0.887   5.400  14.253 -0.3781  0.3903  0.2550
 6934TIP3    H142217   0.971   5.354  14.242  0.3295  1.6707  0.1473
 6934TIP3    H242218   0.908   5.475  14.310 -1.4330  0.7809  0.1418
 6935TIP3   OH242219   3.828   6.913   3.194  0.0052  0.5029 -0.3212
 6935TIP3    H142220   3.846   6.881   3.282  1.2021 -0.5293 -0.9211
 6935TIP3    H242221   3.897   6.874   3.140 -0.9051  0.8540 -1.7660
 6936TIP3   OH242222   5.525   3.724  15.358 -0.2648 -0.2643 -0.2219
 6936TIP3    H142223   5.614   3.709  15.326 -0.6617 -1.0102 -0.9818
 6936TIP3    H242224   5.468   3.686  15.292 -1.2113  1.3694 -0.3802
 6937TIP3   OH242225   6.016   1.260  12.602 -0.2228 -0.1532 -0.0438
 6937TIP3    H142226   6.061   1.210  12.535 -1.1616  0.3292 -1.0509
 6937TIP3    H242227   6.027   1.208  12.682  2.0425 -0.0603 -0.2691
 6938TIP3   OH242228   4.088   2.779   0.200  0.3799 -0.5346  0.7406
 6938TIP3    H142229   4.153   2.846   0.181  0.6118 -1.0512 -0.3326
 6938TIP3    H242230   4.118   2.739   0.282 -0.0913  1.0536  1.7067
 6939TIP3   OH242231   0.120   5.240  15.070  0.0043 -0.5027 -0.7267
 6939TIP3    H142232   0.128   5.273  14.981  0.7630  2.5367  0.4214
 6939TIP3    H242233   0.210   5.230  15.100 -0.2449  0.3811  0.3523
 6940TIP3   OH242234   3.045   3.983   4.304 -0.4183 -0.1888 -0.1856
 6940TIP3    H142235   3.139   3.970   4.288 -0.1021  2.0427 -0.2886
 6940TIP3    H242236   3.039   4.072   4.338 -2.6516  0.1457 -1.4017
 6941TIP3   OH242237   7.024   3.789  14.868  0.1641 -0.5597 -0.4674
 6941TIP3    H142238   6.991   3.869  14.909 -1.3508 -0.9003 -1.0199
 6941TIP3    H242239   7.020   3.807  14.774 -0.1588 -1.2912 -0.5905
 6942TIP3   OH242240   6.641   4.306  15.006  0.0730  0.2405 -0.1766
 6942TIP3    H142241   6.680   4.273  14.926  2.3337  2.4892 -0.0572
 6942TIP3    H242242   6.703   4.283  15.075 -1.6578 -1.3243  0.9124
 6943TIP3   OH242243   2.145   3.210  14.706 -0.2912 -0.2399 -0.5163
 6943TIP3    H142244   2.220   3.151  14.707 -0.6322 -0.6795 -0.7014
 6943TIP3    H242245   2.069   3.153  14.715 -0.6005  0.2104 -0.2531
 6944TIP3   OH242246   4.837   5.502   1.536 -0.0881  0.0172 -0.2917
 6944TIP3    H142247   4.829   5.539   1.448 -2.1258 -0.7956 -0.4843
 6944TIP3    H242248   4.769   5.434   1.539  0.7137 -0.7117  1.5289
 6945TIP3   OH242249   1.176   0.975  15.514 -0.6456  1.1072  0.3154
 6945TIP3    H142250   1.159   1.012  15.427 -0.7353  1.1821  0.3642
 6945TIP3    H242251   1.091   0.939  15.541  0.1357 -1.7827 -0.9800
 6946TIP3   OH242252   6.199   4.630  12.791 -0.4895  0.0708 -0.5143
 6946TIP3    H142253   6.169   4.712  12.828 -1.7999 -1.6251  2.3736
 6946TIP3    H242254   6.153   4.623  12.707  0.1514  2.5535 -1.1018
 6947TIP3   OH242255   2.613   5.292  15.078  0.0607  0.1370  0.3984
 6947TIP3    H142256   2.669   5.320  15.006 -1.8909  0.5530 -0.9951
 6947TIP3    H242257   2.620   5.197  15.078 -2.0836 -0.0696 -2.1828
 6948TIP3   OH242258   0.781   4.407  15.273  0.5165 -0.1188  0.1349
 6948TIP3    H142259   0.733   4.416  15.190 -0.4343  0.3044  0.7231
 6948TIP3    H242260   0.872   4.397  15.247  0.2035 -0.1523 -0.9755
 6949TIP3   OH242261   5.172   3.533  13.271  0.5265 -0.2714 -0.3364
 6949TIP3    H142262   5.108   3.474  13.311  2.0306 -1.2480  0.6692
 6949TIP3    H242263   5.119   3.593  13.219 -1.2763 -0.5096  1.1579
 6950TIP3   OH242264   2.928   0.994   1.165  0.5363 -0.3701  0.2267
 6950TIP3    H142265   3.007   0.941   1.175 -0.0825 -1.4040 -0.2267
 6950TIP3    H242266   2.957   1.075   1.124  0.7817 -2.4168 -3.9164
 6951TIP3   OH242267   1.527   3.542  14.481 -0.2764 -0.2123 -0.2819
 6951TIP3    H142268   1.594   3.600  14.446 -1.2678  0.2700 -1.4448
 6951TIP3    H242269   1.488   3.502  14.403 -2.9215  1.3038  0.1999
 6952TIP3   OH242270   6.068   0.863  12.074  0.4458 -0.0544 -0.2612
 6952TIP3    H142271   6.066   0.878  12.169  1.6061 -0.2279 -0.2115
 6952TIP3    H242272   6.066   0.768  12.064 -0.9369 -0.0187 -0.4512
 6953TIP3   OH242273   2.710   6.467   0.061 -0.3353 -0.3823  0.2049
 6953TIP3    H142274   2.637   6.466   0.122  0.1138 -1.4825  0.7341
 6953TIP3    H242275   2.769   6.535   0.094 -2.3737  2.5190 -1.7673
 6954TIP3   OH242276   2.655   4.452   1.721  0.5870 -0.1003  0.4575
 6954TIP3    H142277   2.603   4.532   1.709 -0.0773 -0.5231  0.5082
 6954TIP3    H242278   2.746   4.482   1.713  0.3100  0.4250 -0.9758
 6955TIP3   OH242279   0.737   6.765   3.333  0.0547  0.2295  0.1512
 6955TIP3    H142280   0.792   6.721   3.398  0.3833 -0.2344 -0.4420
 6955TIP3    H242281   0.797   6.787   3.262 -0.1883  1.2820  0.2683
 6956TIP3   OH242282   7.023   6.736   0.241 -0.4309  0.0973  0.2811
 6956TIP3    H142283   6.973   6.788   0.178  1.5463  1.7974  0.0511
 6956TIP3    H242284   6.981   6.753   0.325  0.2342  2.2298  0.2306
 6957TIP3   OH242285   1.236   0.767  13.687  0.1345  0.0369  0.0513
 6957TIP3    H142286   1.296   0.701  13.652 -0.0831  0.5221 -1.2771
 6957TIP3    H242287   1.169   0.777  13.619 -0.1958  1.1427  0.5252
 6958TIP3   OH242288   5.048   2.057  13.525 -0.3314  0.2387 -0.3032
 6958TIP3    H142289   5.120   2.029  13.468  1.0317 -0.5739  1.7859
 6958TIP3    H242290   5.060   2.151  13.535  0.4087  0.1112 -0.0083
 6959TIP3   OH242291   1.437   6.986  11.896  0.2070 -0.3315 -0.2610
 6959TIP3    H142292   1.517   6.970  11.846  1.2463  0.7847  1.0118
 6959TIP3    H242293   1.448   6.936  11.976  0.2223  0.8812  0.5029
 6960TIP3   OH242294   6.836   1.068  13.251 -0.6188 -0.1031 -0.4465
 6960TIP3    H142295   6.809   0.990  13.203  0.4647  0.0094 -1.2474
 6960TIP3    H242296   6.781   1.138  13.217 -0.4714 -0.2002 -0.8811
 6961TIP3   OH242297   4.259   5.875  11.213 -0.8378  0.8127 -0.0150
 6961TIP3    H142298   4.319   5.948  11.198 -0.6355  0.4212 -1.1243
 6961TIP3    H242299   4.172   5.912  11.194 -0.9996  1.4454  1.8186
 6962TIP3   OH242300   3.636   0.576  13.894 -0.1591 -0.8930 -0.6493
 6962TIP3    H142301   3.703   0.545  13.833  0.2083  0.2761 -0.8452
 6962TIP3    H242302   3.680   0.576  13.979 -0.1470 -0.8699 -0.6565
 6963TIP3   OH242303   4.929   7.136   1.217  0.2965  0.4233 -0.4030
 6963TIP3    H142304   4.951   7.112   1.127 -0.8756 -0.2636 -0.5178
 6963TIP3    H242305   4.843   7.176   1.211 -0.4392 -0.9554  0.5894
 6964TIP3   OH242306   0.342   1.983  15.445  0.4161 -0.6532  0.1269
 6964TIP3    H142307   0.417   1.924  15.448  0.4109 -0.6749 -0.1640
 6964TIP3    H242308   0.267   1.929  15.468  0.6173 -0.4213  1.3449
 6965TIP3   OH242309   4.349   3.851   2.340 -0.3826 -0.0666 -0.4643
 6965TIP3    H142310   4.352   3.847   2.436  0.4396  0.1352 -0.4855
 6965TIP3    H242311   4.440   3.842   2.312 -0.7424 -1.2782 -1.2737
 6966TIP3   OH242312   6.180   4.550   1.647  0.3218 -0.0809  0.5244
 6966TIP3    H142313   6.228   4.570   1.727 -0.2315 -2.4575  1.4665
 6966TIP3    H242314   6.223   4.473   1.611 -2.1044 -1.6181  0.8281
 6967TIP3   OH242315   0.612   5.593  12.095 -0.3150 -0.0094 -0.3034
 6967TIP3    H142316   0.587   5.501  12.101 -0.6188 -0.0383 -1.7428
 6967TIP3    H242317   0.539   5.641  12.133 -0.2571 -0.3484  0.2407
 6968TIP3   OH242318   6.328   3.062  14.987  0.1103 -0.0815  0.0271
 6968TIP3    H142319   6.333   3.075  14.892 -1.0834 -0.9101 -0.1674
 6968TIP3    H242320   6.343   2.968  15.000 -0.7676 -0.1570  0.5588
 6969TIP3   OH242321   5.429   1.564  14.879 -0.5663  0.0547  0.2060
 6969TIP3    H142322   5.385   1.505  14.940 -1.1196 -0.4595 -0.6733
 6969TIP3    H242323   5.512   1.585  14.921  0.1257 -2.2402  0.0421
 6970TIP3   OH242324   4.845   1.582   0.729 -0.5090 -0.6830  0.0006
 6970TIP3    H142325   4.885   1.644   0.790 -0.2090  0.3024 -1.1829
 6970TIP3    H242326   4.775   1.540   0.780 -0.6242  0.5226  0.8557
 6971TIP3   OH242327   6.561   5.929  12.859 -0.1165 -0.0104 -0.4959
 6971TIP3    H142328   6.500   5.972  12.918 -0.4038  1.2828 -1.7202
 6971TIP3    H242329   6.516   5.928  12.774  0.1206 -2.2047 -0.6412
 6972TIP3   OH242330   6.858   0.697  10.428 -0.1516  0.0471 -0.2648
 6972TIP3    H142331   6.940   0.654  10.406 -0.2469 -1.1045  1.5276
 6972TIP3    H242332   6.877   0.790  10.422  1.0152 -0.2158 -0.7581
 6973TIP3   OH242333   5.163   1.713   0.553 -0.7520  0.4950 -0.6572
 6973TIP3    H142334   5.196   1.739   0.468  1.4220  0.7497  0.2312
 6973TIP3    H242335   5.187   1.785   0.612 -0.3046 -0.6336  0.5826
 6974TIP3   OH242336   0.880   5.530  10.655  0.2575 -0.5361  0.4127
 6974TIP3    H142337   0.955   5.535  10.715  0.4275  1.8435  0.0461
 6974TIP3    H242338   0.919   5.523  10.568  0.0315 -1.3471  0.3739
 6975TIP3   OH242339   3.808   4.317  14.341  0.2799 -0.0486 -0.1748
 6975TIP3    H142340   3.746   4.383  14.311 -1.2883 -1.9751 -1.3108
 6975TIP3    H242341   3.791   4.308  14.435 -2.3386 -1.7217 -0.7707
 6976TIP3   OH242342   6.692   2.697   1.556  0.2736 -0.3767  0.0416
 6976TIP3    H142343   6.774   2.649   1.567  0.4768 -0.5532 -1.9785
 6976TIP3    H242344   6.667   2.681   1.465 -2.9279 -1.7574  1.0827
 6977TIP3   OH242345   6.896   2.362   1.254  0.1599 -0.2529 -0.3948
 6977TIP3    H142346   6.966   2.315   1.299 -1.5101 -0.6176  1.9210
 6977TIP3    H242347   6.867   2.302   1.185 -1.1741 -2.1869  1.7903
 6978TIP3   OH242348   5.265   5.276  12.107 -0.0628  0.0144  0.1928
 6978TIP3    H142349   5.258   5.292  12.013  1.5027  0.4347  0.1398
 6978TIP3    H242350   5.174   5.279  12.139 -0.7254 -1.4098 -1.4957
 6979TIP3   OH242351   1.876   1.801  13.677  0.0735 -0.2480  0.2621
 6979TIP3    H142352   1.862   1.895  13.660  1.3094 -0.2841 -0.9998
 6979TIP3    H242353   1.795   1.773  13.720 -1.0036  1.0121 -0.8990
 6980TIP3   OH242354   6.059   6.734  14.404 -0.0916 -0.5223  0.3159
 6980TIP3    H142355   5.999   6.782  14.348  0.1021  0.4418  0.9158
 6980TIP3    H242356   6.144   6.742  14.362 -0.1993 -1.0425 -0.0105
 6981TIP3   OH242357   6.436   0.118   0.678  0.8947  0.3762  0.3272
 6981TIP3    H142358   6.442   0.023   0.676 -2.8729  0.0584 -0.9793
 6981TIP3    H242359   6.481   0.147   0.599  1.6642 -0.3467  0.4975
 6982TIP3   OH242360   2.194   4.628  13.137  0.8515 -0.3394  0.1412
 6982TIP3    H142361   2.176   4.657  13.047  0.2301  3.8024  1.4649
 6982TIP3    H242362   2.125   4.564  13.156  0.6494 -0.8380 -2.1295
 6983TIP3   OH242363   6.526   6.896  14.863  0.3486  0.0658 -0.0161
 6983TIP3    H142364   6.440   6.913  14.901  0.6954 -0.0467  0.8191
 6983TIP3    H242365   6.562   6.983  14.845  0.1389  0.1162 -0.1975
 6984TIP3   OH242366   3.997   0.516  12.334  0.1543  0.4448  0.4837
 6984TIP3    H142367   4.026   0.546  12.420 -0.6154  1.2659  0.4543
 6984TIP3    H242368   3.931   0.579  12.307 -0.9305 -0.8474  0.0875
 6985TIP3   OH242369   1.553   1.150  12.561  0.0811  0.1947 -0.2136
 6985TIP3    H142370   1.576   1.105  12.642 -0.7108 -0.5912 -0.4266
 6985TIP3    H242371   1.597   1.235  12.568 -0.2867  0.2731  1.2009
 6986TIP3   OH242372   2.914   1.001  15.256  0.2015  0.4772  0.5777
 6986TIP3    H142373   2.949   1.022  15.343 -0.3492 -1.3825  1.2777
 6986TIP3    H242374   2.955   0.917  15.234  0.8423  1.2540 -1.2559
 6987TIP3   OH242375   1.835   4.374  14.164 -0.0307  0.0414  0.1990
 6987TIP3    H142376   1.808   4.284  14.147  2.0783 -0.7324  0.7912
 6987TIP3    H242377   1.769   4.408  14.225  0.8119 -2.1286  2.4138
 6988TIP3   OH242378   5.603   6.316  15.383  0.2629 -0.0588  0.4262
 6988TIP3    H142379   5.662   6.245  15.361  0.8830  0.1971  1.2136
 6988TIP3    H242380   5.534   6.276  15.436  0.9126  0.0098  1.3430
 6989TIP3   OH242381   3.769   4.670   3.292  0.4543 -0.2383  0.1257
 6989TIP3    H142382   3.680   4.704   3.300 -0.7600 -3.3362  0.6725
 6989TIP3    H242383   3.825   4.746   3.301 -2.0696  1.4538  2.2113
 6990TIP3   OH242384   3.427   0.465  11.320 -0.1430 -0.0307 -0.2836
 6990TIP3    H142385   3.492   0.530  11.292 -0.2085 -0.3399 -1.1668
 6990TIP3    H242386   3.468   0.380  11.300 -0.7294 -0.2305 -0.6450
 6991TIP3   OH242387   4.810   0.365   0.459  0.1933  0.7122 -1.0066
 6991TIP3    H142388   4.843   0.378   0.371 -2.1416 -0.2590 -2.0649
 6991TIP3    H242389   4.733   0.420   0.465 -1.2187 -1.2550 -0.5197
 6992TIP3   OH242390   2.409   1.739  15.507  0.0044  0.5401  0.5242
 6992TIP3    H142391   2.477   1.765  15.444  0.1732 -0.9965  0.0543
 6992TIP3    H242392   2.327   1.752  15.460  0.0495  0.8780  0.5352
 6993TIP3   OH242393   4.212   6.923  11.614  0.0551  0.0660  0.4865
 6993TIP3    H142394   4.194   7.002  11.666  0.7543 -0.1520  1.0617
 6993TIP3    H242395   4.307   6.919  11.608  0.1084 -1.7401  2.0342
 6994TIP3   OH242396   2.873   4.483  14.498  0.3069  0.5849  0.3566
 6994TIP3    H142397   2.844   4.415  14.438 -0.8154 -0.4701  2.0595
 6994TIP3    H242398   2.856   4.565  14.452  1.3090 -0.2404 -1.5531
 6995TIP3   OH242399   2.482   5.801  11.637 -0.3653  0.2528  0.3144
 6995TIP3    H142400   2.395   5.788  11.674 -0.1074 -0.5053  0.6667
 6995TIP3    H242401   2.541   5.796  11.711  0.2702 -2.5784 -0.3175
 6996TIP3   OH242402   6.061   3.256   0.014 -0.6500 -0.0976 -0.2546
 6996TIP3    H142403   6.010   3.183   0.050  1.6731 -0.4062  2.5589
 6996TIP3    H242404   6.026   3.334   0.057 -0.5845  0.0176 -0.4082
 6997TIP3   OH242405   1.080   3.304  14.026 -0.7624  0.5055  0.4634
 6997TIP3    H142406   1.009   3.348  14.072 -1.2721  0.9740 -0.7399
 6997TIP3    H242407   1.046   3.216  14.007 -0.5254  0.2896  1.0521
 6998TIP3   OH242408   1.105   6.596  15.301  0.4083  1.1220 -0.2836
 6998TIP3    H142409   1.145   6.672  15.259  2.3086  0.2655 -0.0656
 6998TIP3    H242410   1.169   6.526  15.290  0.3275  0.5094  2.7970
 6999TIP3   OH242411   5.924   7.070  11.094  0.5386 -0.7211 -0.0952
 6999TIP3    H142412   5.959   7.148  11.136  0.0796 -0.2885 -0.5110
 6999TIP3    H242413   5.833   7.067  11.120 -0.2872  0.6546 -2.6266
 7000TIP3   OH242414   4.829   6.616   0.267  0.6353  0.5303 -0.4546
 7000TIP3    H142415   4.754   6.559   0.250  0.3944  1.6332 -3.3900
 7000TIP3    H242416   4.906   6.561   0.251  0.4188  0.4773 -1.3132
 7001TIP3   OH242417   5.371   1.330  12.885 -0.3891 -0.2007  0.5654
 7001TIP3    H142418   5.449   1.376  12.852 -0.1997 -0.8326  0.1212
 7001TIP3    H242419   5.303   1.350  12.820 -0.3413 -0.4441  0.4420
 7002TIP3   OH242420   1.453   6.897  11.595  0.0221  0.0420 -0.7214
 7002TIP3    H142421   1.395   6.824  11.618 -1.5750  2.2211  2.4555
 7002TIP3    H242422   1.509   6.908  11.671  0.7334  1.6635 -1.4654
 7003TIP3   OH242423   6.983   0.024  12.829  0.4057 -0.3073 -0.2609
 7003TIP3    H142424   6.938   0.107  12.842 -0.7894 -1.1306  0.9880
 7003TIP3    H242425   6.930  -0.022  12.764  0.2456 -0.6954  0.1460
 7004TIP3   OH242426   3.359   6.677  13.541 -0.1513  0.3854  0.1941
 7004TIP3    H142427   3.433   6.723  13.502  0.8890 -1.3508  0.0877
 7004TIP3    H242428   3.376   6.679  13.636 -0.1584  0.3013  0.1972
 7005TIP3   OH242429   6.241   3.660  13.664  0.3376 -0.0108 -0.1927
 7005TIP3    H142430   6.267   3.619  13.582 -1.6799  0.1511 -0.9426
 7005TIP3    H242431   6.197   3.591  13.714 -0.5689  0.4804 -0.2829
 7006TIP3   OH242432   3.864   0.319  11.603 -0.4987  0.6165 -0.1378
 7006TIP3    H142433   3.832   0.291  11.689 -3.0907 -0.1807 -1.3009
 7006TIP3    H242434   3.813   0.268  11.541  2.1372  0.3593 -2.1627
 7007TIP3   OH242435   5.537   1.984   3.530  0.4923  0.4560 -0.0549
 7007TIP3    H142436   5.526   1.893   3.504 -0.3546  0.5092  0.1156
 7007TIP3    H242437   5.610   1.982   3.593 -1.4628 -0.5300  2.2393
 7008TIP3   OH242438   0.256   5.947  12.374  0.1392 -0.5520  0.3713
 7008TIP3    H142439   0.303   6.028  12.394 -0.9578  0.4507 -0.9661
 7008TIP3    H242440   0.163   5.972  12.377 -0.2309 -1.8766  0.4029
 7009TIP3   OH242441   1.612   1.357   2.170 -0.5333 -0.1879  0.3900
 7009TIP3    H142442   1.670   1.433   2.167  0.7283 -1.1925 -0.9670
 7009TIP3    H242443   1.546   1.375   2.102 -0.2863 -0.2681  0.1288
 7010TIP3   OH242444   6.814   5.680   1.446  0.2205 -0.2271  0.9091
 7010TIP3    H142445   6.855   5.598   1.473 -0.2457 -0.7319  0.1228
 7010TIP3    H242446   6.788   5.664   1.355  0.4957  0.9336  0.6130
 7011TIP3   OH242447   2.086   4.585  14.573 -0.4764  0.2986 -0.1570
 7011TIP3    H142448   2.169   4.623  14.545  0.2003  0.9246  2.5853
 7011TIP3    H242449   2.045   4.554  14.492  2.1602  0.4929 -1.6066
 7012TIP3   OH242450   0.408   3.031  10.903  0.5539 -0.9750  0.8849
 7012TIP3    H142451   0.360   2.993  10.976  1.1543 -2.5052  0.5105
 7012TIP3    H242452   0.497   3.042  10.936  0.1748  0.9636  1.2751
 7013TIP3   OH242453   4.903   1.628   0.475  0.0438 -0.2498  0.0415
 7013TIP3    H142454   4.994   1.649   0.500  0.1168 -0.8907  0.3299
 7013TIP3    H242455   4.861   1.605   0.558 -0.8496  1.6937  0.1646
 7014TIP3   OH242456   0.295   0.400  15.315  0.4102  0.2750 -0.0599
 7014TIP3    H142457   0.366   0.377  15.375 -1.1223  1.7416  2.4546
 7014TIP3    H242458   0.236   0.325  15.318  0.6954  0.0447 -0.2699
 7015TIP3   OH242459   0.898   6.835   0.120 -0.4109  0.6622  0.1628
 7015TIP3    H142460   0.938   6.845   0.207 -1.4013  0.4383  0.6567
 7015TIP3    H242461   0.914   6.918   0.076  0.3229  0.6829  0.4723
 7016TIP3   OH242462   2.674   3.317   2.953 -0.0855 -0.1429  0.0510
 7016TIP3    H142463   2.734   3.392   2.945 -0.6933  0.4476  0.9453
 7016TIP3    H242464   2.627   3.333   3.035  0.4176 -1.9748  0.7059
 7017TIP3   OH242465   2.001   1.350   0.800  0.2045 -0.6833 -0.6184
 7017TIP3    H142466   1.960   1.348   0.714  0.7627  2.2848 -1.0015
 7017TIP3    H242467   1.928   1.344   0.862 -0.5089  0.8794 -1.2996
 7018TIP3   OH242468   7.031   4.027   2.153 -0.0303 -0.1663 -0.6360
 7018TIP3    H142469   7.039   3.938   2.187 -0.1864  0.9862  2.5568
 7018TIP3    H242470   7.119   4.064   2.162  0.3055 -0.3020 -2.9806
 7019TIP3   OH242471   0.430   0.523   0.862 -0.0021 -0.0930 -1.0080
 7019TIP3    H142472   0.371   0.461   0.904  0.4094  0.0327 -0.2417
 7019TIP3    H242473   0.410   0.607   0.902  0.8819 -0.0967 -0.5492
 7020TIP3   OH242474   6.180   7.151  12.868 -0.3814 -0.3267 -0.0593
 7020TIP3    H142475   6.178   7.136  12.773 -0.9349 -4.0389  0.4753
 7020TIP3    H242476   6.094   7.187  12.889  0.5677  2.7323 -1.2655
 7021TIP3   OH242477   4.949   3.501  13.607 -0.4401  0.0312 -0.0568
 7021TIP3    H142478   4.903   3.574  13.565  0.0405  1.0346  1.1214
 7021TIP3    H242479   4.964   3.438  13.536  0.6013  1.8061 -1.4671
 7022TIP3   OH242480   0.522   7.010   0.146  1.1138  0.6815  0.2639
 7022TIP3    H142481   0.536   6.939   0.083 -2.3135  0.3108 -0.1435
 7022TIP3    H242482   0.518   6.966   0.231  1.2054  0.6425  0.2479
 7023TIP3   OH242483   5.536   3.208   0.048 -0.3951 -0.0889  0.6075
 7023TIP3    H142484   5.525   3.286   0.103 -0.5368  1.4723 -1.5598
 7023TIP3    H242485   5.595   3.236  -0.022 -0.1239 -2.0665  0.0084
 7024TIP3   OH242486   0.948   4.730  14.168  0.5997 -0.1725  0.4283
 7024TIP3    H142487   0.897   4.810  14.158  0.6146 -0.2285 -0.1428
 7024TIP3    H242488   1.039   4.758  14.161  0.5592 -0.5659 -2.4677
 7025TIP3   OH242489   5.742   6.311   0.110  0.3895 -0.7709 -0.1193
 7025TIP3    H142490   5.795   6.292   0.032  0.5956 -0.7412  0.0127
 7025TIP3    H242491   5.750   6.233   0.164  0.8610 -0.4989  0.2137
 7026TIP3   OH242492   3.371   6.021   1.803 -0.0677 -0.1623 -0.0897
 7026TIP3    H142493   3.434   6.044   1.871 -1.0656 -0.5324  0.9882
 7026TIP3    H242494   3.314   5.956   1.844 -0.2110 -0.9747 -1.5475
 7027TIP3   OH242495   1.459   0.938  13.959  0.3323 -0.0302 -0.3348
 7027TIP3    H142496   1.526   1.003  13.979  0.0316  0.5480 -1.1758
 7027TIP3    H242497   1.415   0.921  14.043  0.4224  0.8361 -0.1169
 7028TIP3   OH242498   0.495   6.581  11.604 -0.0830  0.3352  0.0708
 7028TIP3    H142499   0.490   6.585  11.699  2.3016  2.5188  0.1328
 7028TIP3    H242500   0.434   6.649  11.574 -2.1013 -1.4593 -0.0546
 7029TIP3   OH242501   6.635   2.518  14.701  0.1944 -0.4341 -0.4059
 7029TIP3    H142502   6.725   2.542  14.720  0.0639 -1.0724  1.0426
 7029TIP3    H242503   6.598   2.594  14.656  0.7897  0.6872  1.0095
 7030TIP3   OH242504   5.744   0.190  14.230 -0.4036  0.3798 -0.4616
 7030TIP3    H142505   5.676   0.182  14.163 -1.0055  2.6133 -0.1728
 7030TIP3    H242506   5.799   0.262  14.200 -1.7120  2.6295  2.2376
 7031TIP3   OH242507   3.655   6.841  11.996 -0.0120 -0.9009  0.4621
 7031TIP3    H142508   3.591   6.825  12.066 -1.5958 -1.7366 -1.1294
 7031TIP3    H242509   3.626   6.784  11.924  0.7260  1.0219 -1.4057
 7032TIP3   OH242510   5.694   0.386  14.731 -0.1960 -0.2405  0.2511
 7032TIP3    H142511   5.744   0.327  14.675  0.2760  1.1305 -0.7896
 7032TIP3    H242512   5.608   0.393  14.689 -0.9942 -1.8647  1.5390
 7033TIP3   OH242513   5.133   1.627  12.667 -0.0464  0.1765 -0.0505
 7033TIP3    H142514   5.184   1.570  12.609  0.5886  2.1419 -1.4936
 7033TIP3    H242515   5.194   1.649  12.738  0.3805  0.7124 -0.5813
 7034TIP3   OH242516   0.797   1.303  14.189 -0.0666 -0.2714 -0.3454
 7034TIP3    H142517   0.734   1.257  14.133 -1.0631  0.2044  0.3683
 7034TIP3    H242518   0.757   1.389  14.202  1.3896  0.5120 -1.0072
 7035TIP3   OH242519   1.870   6.279  14.040  0.2346 -0.5727 -0.5250
 7035TIP3    H142520   1.949   6.327  14.066  0.7944 -0.4753 -2.2947
 7035TIP3    H242521   1.836   6.242  14.121  0.5054  1.7562  0.6922
 7036TIP3   OH242522   5.200   4.800  12.479  0.1846  0.3310 -0.0816
 7036TIP3    H142523   5.163   4.884  12.454 -0.6287 -0.3667 -1.2576
 7036TIP3    H242524   5.267   4.782  12.413  0.3103  0.0210  0.1257
 7037TIP3   OH242525   6.476   6.102  13.958  0.0492 -0.3087  0.8205
 7037TIP3    H142526   6.409   6.040  13.931 -1.4368  0.3956  2.7572
 7037TIP3    H242527   6.543   6.049  14.000 -0.0144 -0.8569  0.2355
 7038TIP3   OH242528   6.712   1.533   0.012 -0.6208 -0.4299 -0.1118
 7038TIP3    H142529   6.725   1.547   0.106 -1.2671  1.7017 -0.3045
 7038TIP3    H242530   6.620   1.508   0.005 -0.2870 -1.7006 -0.0873
 7039TIP3   OH242531   4.098   6.699  11.276  0.5316  0.8242  0.3295
 7039TIP3    H142532   4.007   6.725  11.266  0.3178  0.2244  0.7175
 7039TIP3    H242533   4.122   6.729  11.364  0.2281 -0.4300  0.8535
 7040TIP3   OH242534   3.831   1.691  12.761  0.3070 -0.3193  0.1026
 7040TIP3    H142535   3.759   1.682  12.698 -0.4361 -1.0038  1.0359
 7040TIP3    H242536   3.880   1.768  12.730 -0.2410 -0.4487 -1.1127
 7041TIP3   OH242537   0.956   6.050   0.022  0.3355 -0.7562  0.2111
 7041TIP3    H142538   0.923   5.962   0.038  1.3678 -1.0620  0.7275
 7041TIP3    H242539   0.878   6.105   0.018 -0.1355 -1.1531  3.2166
 7042TIP3   OH242540   0.259   2.005  15.005  0.0266 -0.2586  0.0913
 7042TIP3    H142541   0.321   1.966  15.067  1.7786  0.3998 -1.2197
 7042TIP3    H242542   0.254   2.097  15.030 -0.0283 -0.2061 -0.1119
 7043TIP3   OH242543   6.718   2.323  13.763 -0.0498  0.3765  0.1371
 7043TIP3    H142544   6.775   2.273  13.706  1.3916  0.9795  1.0063
 7043TIP3    H242545   6.763   2.408  13.773  0.5851 -0.2816  3.4281
 7044TIP3   OH242546   3.355   3.310   0.623 -0.5863 -0.0624 -0.2178
 7044TIP3    H142547   3.445   3.332   0.599 -0.8942 -0.4470 -1.7978
 7044TIP3    H242548   3.303   3.384   0.590 -1.0472 -0.6977 -0.9277
 7045TIP3   OH242549   2.704   2.497  11.442 -0.4624 -0.2592 -0.0172
 7045TIP3    H142550   2.631   2.505  11.502 -0.4419  0.1199 -0.0435
 7045TIP3    H242551   2.688   2.415  11.395 -1.0651  0.0137 -0.2876
 7046TIP3   OH242552   1.311   5.750  15.477  0.1438 -0.7019 -0.2796
 7046TIP3    H142553   1.243   5.689  15.506  0.1750 -0.4777  0.2648
 7046TIP3    H242554   1.268   5.835  15.476  0.7847 -0.3498  1.3712
 7047TIP3   OH242555   6.543   5.224  14.798  1.2902 -0.0008 -0.8004
 7047TIP3    H142556   6.579   5.165  14.864 -0.8967 -0.3652  0.1114
 7047TIP3    H242557   6.489   5.285  14.847  0.8608  0.6928 -2.1041
 7048TIP3   OH242558   5.848   0.436  10.973  0.6235  0.4328 -0.2886
 7048TIP3    H142559   5.919   0.385  11.013 -0.6689 -0.0047  1.5164
 7048TIP3    H242560   5.841   0.401  10.884  2.8296  0.6687 -0.5910
 7049TIP3   OH242561   4.242   0.394  15.509 -0.2909 -0.1739  0.8284
 7049TIP3    H142562   4.238   0.333  15.583 -1.0508  0.0936  1.0158
 7049TIP3    H242563   4.334   0.395  15.484  0.3864  1.3496  3.1440
 7050TIP3   OH242564   5.008   0.873   0.379  0.5186  0.1489  0.3759
 7050TIP3    H142565   5.014   0.961   0.417 -1.7599  0.5157 -0.0578
 7050TIP3    H242566   4.974   0.887   0.291  2.5605 -0.9944 -0.6401
 7051TIP3   OH242567   3.345   3.467  13.215 -0.1663  0.7657 -0.0893
 7051TIP3    H142568   3.319   3.463  13.307 -1.3455 -0.4229 -0.4632
 7051TIP3    H242569   3.393   3.386  13.200 -1.4370  0.1635 -0.9447
 7052TIP3   OH242570   6.877   1.988  14.417 -0.1791 -0.1973 -0.2755
 7052TIP3    H142571   6.782   1.986  14.424  0.0445  0.7315  4.1275
 7052TIP3    H242572   6.896   2.070  14.371 -1.4458  0.7079  0.7942
 7053TIP3   OH242573   2.520   0.957   0.449  0.0737  0.2719  0.3775
 7053TIP3    H142574   2.491   1.046   0.465 -1.4610  0.1889 -1.7148
 7053TIP3    H242575   2.564   0.960   0.364 -1.7506 -1.3130 -0.6625
 7054TIP3   OH242576   0.292   2.674  13.752  0.2918 -0.0986 -0.1272
 7054TIP3    H142577   0.265   2.583  13.762 -1.0595  0.4949  2.0645
 7054TIP3    H242578   0.241   2.706  13.678  1.4332 -1.3478 -1.4827
 7055TIP3   OH242579   5.875   5.435  14.534  0.0896 -0.3107 -0.0915
 7055TIP3    H142580   5.928   5.514  14.527  0.1842 -0.3288  0.3567
 7055TIP3    H242581   5.913   5.388  14.608 -0.0063 -0.7446 -0.3189
 7056TIP3   OH242582   1.202   4.034  14.905  0.5012 -0.6032  0.0377
 7056TIP3    H142583   1.218   4.116  14.859  0.0298  0.6266  2.0242
 7056TIP3    H242584   1.130   3.993  14.857  0.3661  0.3961 -0.6195
 7057TIP3   OH242585   6.541   7.146  11.965  0.0859  0.7473 -0.4104
 7057TIP3    H142586   6.523   7.233  11.929  0.4742  1.7056  1.6359
 7057TIP3    H242587   6.466   7.093  11.937  0.1939  1.5427 -2.2843
 7058TIP3   OH242588   1.580   3.431  14.722  0.0018  0.0054 -1.0752
 7058TIP3    H142589   1.642   3.482  14.773  0.2563 -1.6209  0.3114
 7058TIP3    H242590   1.565   3.482  14.643  2.8895  0.5282 -1.3118
 7059TIP3   OH242591   5.120   6.522  14.390 -0.0261 -0.3484 -0.0104
 7059TIP3    H142592   5.057   6.484  14.451 -0.1712 -0.5080 -0.2583
 7059TIP3    H242593   5.084   6.503  14.303  0.5048 -0.6872 -0.1594
 7060TIP3   OH242594   1.866   5.528  15.021 -0.0721  0.7173 -0.0025
 7060TIP3    H142595   1.781   5.484  15.028  0.2686  0.2167  1.0007
 7060TIP3    H242596   1.883   5.532  14.927 -0.1281 -1.2405 -0.1146
 7061TIP3   OH242597   5.873   3.563   0.824 -0.6075  0.5840  0.0676
 7061TIP3    H142598   5.940   3.498   0.804 -1.3343 -0.7544  1.8499
 7061TIP3    H242599   5.847   3.598   0.739  0.1983 -1.0620 -0.8771
 7062TIP3   OH242600   3.212   0.755  13.773  0.3909  0.5222  0.6200
 7062TIP3    H142601   3.118   0.734  13.773  0.3732  0.5997  1.4297
 7062TIP3    H242602   3.255   0.670  13.783  0.4389  0.3728 -0.7591
 7063TIP3   OH242603   0.112   1.380  10.868  0.3313 -0.0128  0.0666
 7063TIP3    H142604   0.069   1.339  10.943 -1.6754 -1.5806 -1.8956
 7063TIP3    H242605   0.041   1.408  10.811  1.8229  1.4890 -1.1265
 7064TIP3   OH242606   3.274   1.792   0.785 -0.1600  0.0420 -0.1488
 7064TIP3    H142607   3.191   1.785   0.831 -0.0633 -0.7261 -0.0861
 7064TIP3    H242608   3.320   1.864   0.829  0.4677 -1.5150  1.8386
 7065TIP3   OH242609   4.418   2.881  15.239  0.1662 -0.0550 -0.3936
 7065TIP3    H142610   4.465   2.935  15.175  1.1700 -0.0256  0.3429
 7065TIP3    H242611   4.470   2.800  15.244 -0.6646 -0.6020 -0.6216
 7066TIP3   OH242612   0.509   3.409  10.352  0.6008 -0.3756  0.4274
 7066TIP3    H142613   0.456   3.336  10.321  0.0170  0.5305 -0.7852
 7066TIP3    H242614   0.446   3.471  10.388  1.0227 -0.1384  0.7620
 7067TIP3   OH242615   6.124   5.847  12.832 -0.1829 -0.0675 -0.6282
 7067TIP3    H142616   6.157   5.804  12.911  1.0540  0.7225 -0.7133
 7067TIP3    H242617   6.071   5.920  12.865 -0.2773 -0.1810 -0.5264
 7068TIP3   OH242618   5.460   1.161  15.262 -0.3075 -0.3837  0.9754
 7068TIP3    H142619   5.515   1.238  15.246  0.0302 -0.9075 -0.4503
 7068TIP3    H242620   5.519   1.096  15.298 -0.2226 -0.5660  0.5107
 7069TIP3   OH242621   5.102   6.965  14.288  0.2398 -0.0386 -0.2886
 7069TIP3    H142622   5.043   6.946  14.215 -0.3007 -2.4545  0.7360
 7069TIP3    H242623   5.181   6.998  14.246 -1.3684  2.0832 -1.7354
 7070TIP3   OH242624   0.381   1.243  12.823 -0.1464 -0.2116  0.0440
 7070TIP3    H142625   0.309   1.293  12.783  0.8756  1.5157  0.3189
 7070TIP3    H242626   0.356   1.235  12.915  0.6137  1.5858  0.4417
 7071TIP3   OH242627   6.484   1.764  15.161 -0.4766 -0.0872  0.0218
 7071TIP3    H142628   6.563   1.716  15.136 -1.0821 -1.1389  0.1191
 7071TIP3    H242629   6.415   1.698  15.163 -1.3347  0.8040  0.0743
 7072TIP3   OH242630   4.891   6.401  14.260 -0.6401  0.0257  0.1694
 7072TIP3    H142631   4.813   6.425  14.210 -1.0176 -2.1462 -0.3743
 7072TIP3    H242632   4.867   6.415  14.351 -1.5572 -0.3165 -0.0135
 7073TIP3   OH242633   3.502   2.143  12.532 -0.6068  0.3758  0.4282
 7073TIP3    H142634   3.566   2.138  12.461 -0.0783 -0.7333  0.9694
 7073TIP3    H242635   3.511   2.232  12.566  0.5949  0.2520  0.4423
 7074TIP3   OH242636   5.903   4.373  15.522 -0.1587  0.4615  0.1505
 7074TIP3    H142637   5.983   4.415  15.554 -0.8520  0.4493  1.9191
 7074TIP3    H242638   5.887   4.301  15.583  0.2051 -1.5374 -1.9929
 7075TIP3   OH242639   0.796   2.873   0.560 -0.0894 -0.8791  0.3331
 7075TIP3    H142640   0.783   2.780   0.544  0.1209 -0.9677  0.6579
 7075TIP3    H242641   0.710   2.906   0.585 -0.5346 -0.6254 -1.4968
 7076TIP3   OH242642   0.189   0.129  13.190  0.2232  0.1632  0.4761
 7076TIP3    H142643   0.181   0.060  13.256 -1.0705  2.2751  2.6145
 7076TIP3    H242644   0.274   0.170  13.207  0.5202 -0.2027 -0.1027
 7077TIP3   OH242645   4.617   6.851  13.859  0.5201  0.0122  0.3546
 7077TIP3    H142646   4.577   6.896  13.785 -0.9899 -4.3532 -1.6429
 7077TIP3    H242647   4.707   6.835  13.832 -0.2590 -2.3325 -0.9995
 7078TIP3   OH242648   4.436   1.480   0.631 -0.9180  0.8682 -0.0176
 7078TIP3    H142649   4.429   1.388   0.604 -4.1291  0.6138  1.4371
 7078TIP3    H242650   4.523   1.487   0.670 -0.9508 -1.8134  0.6722
 7079TIP3   OH242651   5.658   1.822  14.588  0.5625  0.6883 -0.7143
 7079TIP3    H142652   5.579   1.780  14.554 -1.5024  2.0757  2.1806
 7079TIP3    H242653   5.632   1.913  14.604  2.9693  1.3656 -0.3909
 7080TIP3   OH242654   3.016   5.687  12.291  0.6124 -0.0370  0.0037
 7080TIP3    H142655   3.070   5.608  12.298  0.0281 -0.1811  4.4051
 7080TIP3    H242656   3.079   5.759  12.301  0.4383 -0.1139  1.7099
 7081TIP3   OH242657   2.207   1.871   0.284 -0.1508  0.1913  0.1780
 7081TIP3    H142658   2.288   1.844   0.328  0.7308  0.4366 -1.2529
 7081TIP3    H242659   2.137   1.834   0.337  0.8831  0.5853  1.8561
 7082TIP3   OH242660   4.584   0.821  11.476  0.1393  0.1677 -0.0029
 7082TIP3    H142661   4.603   0.771  11.396  0.4540 -1.4621  1.0690
 7082TIP3    H242662   4.651   0.890  11.477 -0.1907  0.5332 -1.4067
 7083TIP3   OH242663   4.084   1.114  10.469  0.0318  0.1440  1.2111
 7083TIP3    H142664   4.102   1.022  10.487 -0.6364 -0.3821 -0.6269
 7083TIP3    H242665   4.140   1.163  10.529  1.7915 -1.4518  0.8912
 7084TIP3   OH242666   0.943   6.062   0.318  0.3904  0.4211  0.2241
 7084TIP3    H142667   0.938   6.149   0.278  0.2320  0.0192 -0.6428
 7084TIP3    H242668   0.853   6.043   0.344  0.2240  0.0503 -0.6029
 7085TIP3   OH242669   1.185   2.579  12.724  0.1823 -0.0907  0.4888
 7085TIP3    H142670   1.275   2.549  12.709  0.5132  0.9926  0.2499
 7085TIP3    H242671   1.181   2.595  12.818 -0.2252 -1.5879  0.7376
 7086TIP3   OH242672   4.163   6.133  14.426 -0.0486 -0.2913  0.4585
 7086TIP3    H142673   4.216   6.127  14.347  0.6476 -1.5806  1.0068
 7086TIP3    H242674   4.082   6.176  14.398 -0.4728 -2.1926 -1.2952
 7087TIP3   OH242675   6.497   0.886  14.426 -0.2028  0.5676  0.2319
 7087TIP3    H142676   6.567   0.870  14.489  0.3514 -0.5421 -0.6449
 7087TIP3    H242677   6.530   0.956  14.370 -0.0516  0.4914  0.2239
 7088TIP3   OH242678   1.683   3.068  13.184  0.2668 -0.4167 -0.0291
 7088TIP3    H142679   1.724   3.059  13.270  0.9995 -0.1990 -0.3507
 7088TIP3    H242680   1.599   3.022  13.192  0.6272 -0.9697  0.5981
 7089TIP3   OH242681   6.759   4.668   1.198  0.1244 -0.1367  0.5531
 7089TIP3    H142682   6.697   4.647   1.128  0.7945 -0.1282 -0.0420
 7089TIP3    H242683   6.719   4.742   1.244  0.8063  1.4047 -1.2823
 7090TIP3   OH242684   2.441   0.275   1.883 -0.1837 -0.0019  0.7178
 7090TIP3    H142685   2.473   0.241   1.799 -1.4809 -0.3823  0.3760
 7090TIP3    H242686   2.461   0.369   1.879  2.1436 -0.4563  1.0955
 7091TIP3   OH242687   3.487   1.676  14.563 -0.1291 -0.5530 -0.2839
 7091TIP3    H142688   3.545   1.710  14.495 -1.2756  0.3700 -0.8287
 7091TIP3    H242689   3.487   1.744  14.631 -0.0869 -0.8240 -0.0126
 7092TIP3   OH242690   0.979   0.056  10.682  0.4056 -0.1877 -0.6152
 7092TIP3    H142691   0.901   0.036  10.732  0.6978 -1.6475 -0.7273
 7092TIP3    H242692   1.001   0.146  10.707 -0.3226 -0.3628  0.6989
 7093TIP3   OH242693   4.129   1.006  15.200  0.6023 -0.3836  0.3672
 7093TIP3    H142694   4.067   0.949  15.245  0.8304 -0.4630  0.5823
 7093TIP3    H242695   4.082   1.035  15.121 -0.4866  1.2174  1.5627
 7094TIP3   OH242696   5.905   0.056  12.899 -0.3672  0.0841 -0.3748
 7094TIP3    H142697   5.849   0.102  12.836 -1.0946  1.7425  1.4482
 7094TIP3    H242698   5.845   0.024  12.966  0.4039 -1.7272 -0.5197
 7095TIP3   OH242699   5.891   6.458  12.184  0.1257 -1.1068 -0.3766
 7095TIP3    H142700   5.953   6.523  12.150  0.1163 -1.0476 -0.2794
 7095TIP3    H242701   5.825   6.451  12.116  0.4076 -1.4076 -0.6193
 7096TIP3   OH242702   2.197   1.235  15.141 -0.4844  0.1104 -0.2897
 7096TIP3    H142703   2.290   1.255  15.154 -1.0704  2.3175  0.7751
 7096TIP3    H242704   2.152   1.282  15.211 -2.4201 -0.9524 -0.7715
 7097TIP3   OH242705   0.314   2.397   2.990 -0.5377  0.0421  0.3859
 7097TIP3    H142706   0.244   2.343   3.027 -1.9640 -1.2808 -4.0037
 7097TIP3    H242707   0.394   2.361   3.028 -1.8983 -1.0572  2.3391
 7098TIP3   OH242708   5.344   1.525  11.754  0.2146  1.0238 -0.0603
 7098TIP3    H142709   5.303   1.543  11.839  2.2751 -1.2816  1.4707
 7098TIP3    H242710   5.438   1.525  11.772  0.6950  0.9536 -2.4581
 7099TIP3   OH242711   6.334   3.135   1.092 -0.1057 -0.1636 -0.1221
 7099TIP3    H142712   6.255   3.082   1.106 -1.0694  1.4839  0.8545
 7099TIP3    H242713   6.336   3.149   0.997 -0.0359 -1.6148 -0.3517
 7100TIP3   OH242714   1.310   1.863  12.470 -0.2813 -0.3488  0.2330
 7100TIP3    H142715   1.293   1.822  12.554 -1.8468 -0.4753 -0.1123
 7100TIP3    H242716   1.284   1.797  12.405  2.7046 -0.9652 -0.3724
 7101TIP3   OH242717   3.029   3.494  14.516  0.0086 -0.8063 -0.2673
 7101TIP3    H142718   3.055   3.526  14.429 -1.8311  1.0345 -0.1873
 7101TIP3    H242719   3.059   3.562  14.576  1.3144 -2.0976  0.5760
 7102TIP3   OH242720   0.767   5.733   0.448 -0.6288  0.7246  0.1223
 7102TIP3    H142721   0.811   5.756   0.530 -0.3979  0.0722  0.1898
 7102TIP3    H242722   0.744   5.816   0.409  0.0228  1.0616  0.4461
 7103TIP3   OH242723   0.162   2.845  15.416 -0.3263  0.3616 -0.6741
 7103TIP3    H142724   0.255   2.866  15.425 -0.2239  0.6445 -2.3409
 7103TIP3    H242725   0.160   2.750  15.405 -0.4547 -0.0013  2.0823
 7104TIP3   OH242726   4.598   3.170  15.014 -0.0686 -0.0705 -0.2278
 7104TIP3    H142727   4.521   3.220  14.990  0.1836 -0.6972 -2.4525
 7104TIP3    H242728   4.652   3.232  15.063 -1.3385  0.7758  0.1287
 7105TIP3   OH242729   1.909   1.233  15.255 -0.7993 -0.9478  0.3405
 7105TIP3    H142730   1.882   1.187  15.335  0.7437 -2.3517  0.0865
 7105TIP3    H242731   1.953   1.166  15.203 -0.1275  0.4081 -0.8581
 7106TIP3   OH242732   6.045   3.584  14.874 -0.0433  0.7483  0.2814
 7106TIP3    H142733   5.975   3.585  14.940  0.1629  0.2613  0.5019
 7106TIP3    H242734   6.055   3.676  14.849  0.5834  1.0602  1.6734
 7107TIP3   OH242735   3.068   0.493  12.557 -0.3616 -0.6134 -0.6248
 7107TIP3    H142736   3.075   0.468  12.650 -0.3732  1.2110 -0.1089
 7107TIP3    H242737   3.041   0.585  12.559 -2.4915 -1.1483 -2.4617
 7108TIP3   OH242738   5.038   1.701  14.552  0.0656 -0.0035  0.1553
 7108TIP3    H142739   4.945   1.723  14.548 -0.4081 -1.9882 -0.3158
 7108TIP3    H242740   5.082   1.773  14.507 -1.3397  0.4263 -0.5475
 7109TIP3   OH242741   5.197   1.473   0.353 -0.0899 -0.3158  0.0847
 7109TIP3    H142742   5.229   1.563   0.354 -0.6144 -0.1298  0.0133
 7109TIP3    H242743   5.188   1.450   0.446 -0.0770 -0.2537  0.1012
 7110TIP3   OH242744   4.853   4.564  15.129 -0.7700 -0.2181  0.2217
 7110TIP3    H142745   4.925   4.518  15.086  0.2803  0.6685  0.9980
 7110TIP3    H242746   4.872   4.556  15.222 -2.3134 -0.9670  0.4791
 7111TIP3   OH242747   7.059   2.065  15.414 -0.1597  0.3696  0.0079
 7111TIP3    H142748   7.054   2.153  15.377 -1.2702 -0.1556 -1.1195
 7111TIP3    H242749   7.071   2.008  15.338 -1.1398 -0.6061  0.5792
 7112TIP3   OH242750   5.624   1.359  15.179  0.6668  1.0616  0.4643
 7112TIP3    H142751   5.621   1.319  15.092 -0.2947  0.0935  0.9269
 7112TIP3    H242752   5.717   1.365  15.199  0.8504 -0.9051  0.3432
 7113TIP3   OH242753   3.651   2.820   1.142 -0.3414 -0.2409  0.9149
 7113TIP3    H142754   3.663   2.740   1.194  0.5172 -1.2683 -0.8464
 7113TIP3    H242755   3.571   2.805   1.092 -0.6411  0.3704  1.1919
 7114TIP3   OH242756   5.562   3.535   0.582 -0.0612 -0.3784  0.1067
 7114TIP3    H142757   5.540   3.575   0.666  1.7309 -0.7784  0.7679
 7114TIP3    H242758   5.617   3.600   0.538  0.1653 -0.7567 -0.1702
 7115TIP3   OH242759   1.511   2.192  12.201 -0.5467  0.0478  0.6644
 7115TIP3    H142760   1.527   2.256  12.270 -0.6608  1.1835 -0.3478
 7115TIP3    H242761   1.421   2.207  12.174 -0.5300 -0.4480  0.3274
 7116TIP3   OH242762   0.886   2.550  12.282 -0.4578  0.5700  0.7335
 7116TIP3    H142763   0.867   2.478  12.221  0.1902  1.2674 -0.3077
 7116TIP3    H242764   0.875   2.629  12.229  0.0510  1.1877  1.5469
 7117TIP3   OH242765   6.322   3.129   0.503 -0.1478 -0.0478 -0.5691
 7117TIP3    H142766   6.353   3.045   0.468 -0.0079  0.2564 -1.1822
 7117TIP3    H242767   6.320   3.187   0.427  0.8359  0.8215  0.0508
 7118TIP3   OH242768   5.486   0.728  15.458 -0.0651 -0.1793  0.4500
 7118TIP3    H142769   5.539   0.653  15.431  2.4192  0.9633  1.9452
 7118TIP3    H242770   5.426   0.693  15.524  1.7541 -0.6820  1.8731
 7119TIP3   OH242771   0.850   5.096  13.746 -0.5439  0.4278  0.2398
 7119TIP3    H142772   0.758   5.070  13.742 -0.0998 -1.0549 -0.7583
 7119TIP3    H242773   0.858   5.166  13.681 -0.8356  0.1804 -0.0618
 7120TIP3   OH242774   5.446   5.529  14.216 -0.0322 -0.8003 -0.6341
 7120TIP3    H142775   5.513   5.511  14.282 -0.9298 -0.3645  0.4092
 7120TIP3    H242776   5.477   5.608  14.171  0.5856 -1.1043 -0.7477
 7121TIP3   OH242777   0.525   6.364  13.660  0.0818  0.0991 -0.3127
 7121TIP3    H142778   0.586   6.289  13.659  0.3397  0.2979 -1.6109
 7121TIP3    H242779   0.581   6.440  13.676  0.0541  0.1850 -0.6174
 7122TIP3   OH242780   5.801   1.564  12.863  0.0808  0.1137 -0.3535
 7122TIP3    H142781   5.846   1.604  12.937 -1.0627 -2.7274  1.9592
 7122TIP3    H242782   5.865   1.567  12.791  1.7101  1.6344  1.1277
 7123TIP3   OH242783   4.451   4.006   0.680  0.5007 -0.1325  0.0741
 7123TIP3    H142784   4.406   3.929   0.716 -0.8436 -0.3678 -2.0678
 7123TIP3    H242785   4.492   3.975   0.600  1.7802  0.8838  0.3155
 7124TIP3   OH242786   1.924   5.177  12.637  0.1200  0.1235 -0.0375
 7124TIP3    H142787   1.950   5.107  12.577  0.1439 -1.3206  1.6204
 7124TIP3    H242788   1.992   5.178  12.704 -0.9385  0.3539  1.0525
 7125TIP3   OH242789   2.254   2.094  14.394  0.5521 -0.3078  0.0069
 7125TIP3    H142790   2.226   2.034  14.325 -0.4993  0.3930 -0.1794
 7125TIP3    H242791   2.327   2.048  14.437  0.5242 -1.2045 -0.8789
 7126TIP3   OH242792   3.691   5.281  12.017 -0.1116 -0.2247  0.3569
 7126TIP3    H142793   3.616   5.236  11.978 -1.2407  0.5133  1.6442
 7126TIP3    H242794   3.752   5.293  11.944 -2.0603  0.8594 -1.1487
 7127TIP3   OH242795   1.638   6.271  15.212  0.0937 -0.1841  0.0968
 7127TIP3    H142796   1.698   6.259  15.286 -0.2884 -1.5122  0.2041
 7127TIP3    H242797   1.567   6.210  15.229  0.8089 -1.7611 -2.2204
 7128TIP3   OH242798   6.192   7.130  11.418 -0.6793 -0.1199  0.5690
 7128TIP3    H142799   6.277   7.116  11.459 -0.6057  0.4518  0.6193
 7128TIP3    H242800   6.201   7.090  11.331 -0.1449  0.4904  0.3383
 7129TIP3   OH242801   5.482   5.524   2.723 -0.1432 -0.1201 -0.6592
 7129TIP3    H142802   5.522   5.437   2.714  1.5794  0.7692 -1.8349
 7129TIP3    H242803   5.391   5.506   2.746  0.5339 -2.2137  0.5266
 7130TIP3   OH242804   3.657   1.688  15.169  0.4860 -0.4810  0.1300
 7130TIP3    H142805   3.695   1.731  15.246 -0.1677  1.7087 -0.7193
 7130TIP3    H242806   3.563   1.695  15.181  0.3788 -0.7449 -0.5148
 7131TIP3   OH242807   1.761   5.461  13.203  0.2197 -0.2572 -0.2845
 7131TIP3    H142808   1.699   5.505  13.260  0.0522  1.0925 -1.4918
 7131TIP3    H242809   1.760   5.370  13.232 -1.1134  0.0804  0.7492
 7132TIP3   OH242810   4.482   0.649   0.744 -0.2261 -0.0654 -0.5864
 7132TIP3    H142811   4.453   0.708   0.813 -1.8255 -1.4255 -0.0590
 7132TIP3    H242812   4.503   0.706   0.670  0.0625  1.2814  0.5357
 7133TIP3   OH242813   6.535   1.699  14.335  0.1005  0.0687  0.2734
 7133TIP3    H142814   6.474   1.644  14.383  0.2384  0.2756  0.6850
 7133TIP3    H242815   6.581   1.749  14.402 -0.7637  1.4644 -0.1494
 7134TIP3   OH242816   0.740   2.468   1.972  0.4065 -0.1266  0.5289
 7134TIP3    H142817   0.767   2.422   1.893  1.2996  1.7202 -0.2519
 7134TIP3    H242818   0.821   2.492   2.015 -0.0239  1.9544  0.2065
 7135TIP3   OH242819   3.126   1.163   1.073 -0.0281  0.2615  0.2989
 7135TIP3    H142820   3.147   1.256   1.068  0.6043  0.1433  0.7118
 7135TIP3    H242821   3.182   1.129   1.143 -0.2552 -0.4305  0.1534
 7136TIP3   OH242822   1.047   2.686  10.454  0.2130  0.2212  0.4487
 7136TIP3    H142823   1.051   2.734  10.537 -0.4730  2.7064 -0.9164
 7136TIP3    H242824   1.114   2.726  10.399 -1.2520  0.5244 -1.1731
 7137TIP3   OH242825   4.158   6.224  15.018  0.4122 -0.6174  0.5342
 7137TIP3    H142826   4.169   6.252  15.109  1.3703  0.1545  0.1806
 7137TIP3    H242827   4.207   6.141  15.013  0.4437 -0.6082  0.6899
 7138TIP3   OH242828   4.053   1.696  10.405 -0.1819  0.3379  0.4924
 7138TIP3    H142829   3.981   1.755  10.426 -2.2117 -0.7114 -3.0512
 7138TIP3    H242830   4.026   1.611  10.441 -0.8517 -0.0966 -0.9962
 7139TIP3   OH242831   6.354   6.599   0.507 -0.0856  0.3972  0.0394
 7139TIP3    H142832   6.344   6.579   0.600 -0.3415  2.2411  0.4300
 7139TIP3    H242833   6.278   6.559   0.465 -0.1672 -0.1144  0.6729
 7140TIP3   OH242834   6.427   1.451  12.656 -0.8768 -0.1167  0.3473
 7140TIP3    H142835   6.446   1.358  12.651 -2.9912 -0.5828  0.6138
 7140TIP3    H242836   6.334   1.456  12.678 -1.5387  2.0534 -2.5831
 7141TIP3   OH242837   4.431   5.988   1.178  0.2175  0.1842  0.6358
 7141TIP3    H142838   4.439   5.893   1.172  1.9879  0.3487  0.0768
 7141TIP3    H242839   4.375   6.003   1.254 -0.4913 -1.3044  0.4343
 7142TIP3   OH242840   3.697   6.085  12.137 -0.0889 -0.1372  0.2980
 7142TIP3    H142841   3.768   6.066  12.198  1.7749 -0.6191 -1.9099
 7142TIP3    H242842   3.715   6.174  12.106 -1.1664  0.2101  0.6494
 7143TIP3   OH242843   6.376   0.457  14.900  0.7663  0.0312 -0.3567
 7143TIP3    H142844   6.338   0.541  14.876  0.2003  0.4674  1.9698
 7143TIP3    H242845   6.307   0.413  14.951  1.7247 -1.0785  0.0106
 7144TIP3   OH242846   6.054   3.504  15.183 -0.2506  0.5076  0.5516
 7144TIP3    H142847   6.036   3.593  15.156  0.4958  0.8802  1.2400
 7144TIP3    H242848   6.132   3.511  15.239 -0.7910 -0.4383  1.4495
 7145TIP3   OH242849   6.718   1.147  15.115  0.1385  0.0049 -0.0569
 7145TIP3    H142850   6.733   1.084  15.185 -0.2621 -0.2952 -0.2412
 7145TIP3    H242851   6.796   1.140  15.059  0.5368  0.3625  0.4424
 7146TIP3   OH242852   2.263   4.499   3.191 -0.4154 -0.3987  0.0123
 7146TIP3    H142853   2.236   4.430   3.252  1.3493 -1.6643 -0.5989
 7146TIP3    H242854   2.349   4.526   3.222  0.8913 -1.6687 -2.3883
 7147TIP3   OH242855   6.935   1.085  13.646 -0.1817 -0.8775  0.1994
 7147TIP3    H142856   7.021   1.056  13.615 -0.6926 -0.8811 -1.2661
 7147TIP3    H242857   6.898   1.133  13.572 -1.9866 -1.9752  0.3679
 7148TIP3   OH242858   1.887   6.598   2.214 -0.1848  0.0251 -0.5392
 7148TIP3    H142859   1.891   6.579   2.121 -0.5598 -0.2872 -0.4957
 7148TIP3    H242860   1.857   6.516   2.254 -1.9205  0.7155 -0.3553
 7149TIP3   OH242861   0.748   3.551  12.670 -0.0671 -0.2356  0.2020
 7149TIP3    H142862   0.836   3.527  12.639 -0.4772 -0.6637 -0.6557
 7149TIP3    H242863   0.762   3.581  12.760  1.0412  0.2537 -0.1116
 7150TIP3   OH242864   5.787   4.444  12.328  0.1951  0.4880 -0.3137
 7150TIP3    H142865   5.715   4.400  12.374 -1.8417  1.6765 -2.2631
 7150TIP3    H242866   5.744   4.508  12.272  2.7496  0.6691 -2.1517
 7151TIP3   OH242867   4.263   0.588  13.922  0.1382 -0.4573 -0.5927
 7151TIP3    H142868   4.324   0.602  13.995  0.0515 -1.3010 -0.3497
 7151TIP3    H242869   4.239   0.495  13.929  0.1160 -0.5358 -1.6813
 7152TIP3   OH242870   1.377   5.821   0.520  0.2144  0.2109  0.0625
 7152TIP3    H142871   1.376   5.902   0.468  2.1507  1.3526  1.7510
 7152TIP3    H242872   1.440   5.764   0.476 -0.3335  0.0221 -0.4932
 7153TIP3   OH242873   2.292   6.832   3.577 -0.0543  0.6499  0.5030
 7153TIP3    H142874   2.213   6.778   3.585  1.6254 -1.7745  1.2503
 7153TIP3    H242875   2.299   6.850   3.483  0.0375 -1.5051  0.0755
 7154TIP3   OH242876   2.452   0.762   1.101  0.1915  0.1312 -0.1482
 7154TIP3    H142877   2.522   0.718   1.150  0.4754  1.0726  0.2956
 7154TIP3    H242878   2.374   0.748   1.154  0.5313  1.3080  0.6911
 7155TIP3   OH242879   2.738   1.159   0.681  0.7422  0.3610 -0.0624
 7155TIP3    H142880   2.782   1.164   0.765 -2.1069  1.3478  1.4477
 7155TIP3    H242881   2.724   1.065   0.666 -0.5494  0.2730  1.5839
 7156TIP3   OH242882   2.158   5.713   4.661  0.5036 -0.2587 -0.1786
 7156TIP3    H142883   2.116   5.627   4.663  1.3147 -0.6642 -0.3403
 7156TIP3    H242884   2.201   5.717   4.576 -1.3055  1.1746 -1.0371
 7157TIP3   OH242885   3.569   0.106   2.372  0.7830  0.5719 -0.0101
 7157TIP3    H142886   3.485   0.098   2.326  0.4881 -0.2328  0.6659
 7157TIP3    H242887   3.623   0.037   2.335  0.5989  0.0262  0.7398
 7158TIP3   OH242888   0.335   2.704   2.453 -0.4832 -0.2107  0.3844
 7158TIP3    H142889   0.382   2.622   2.464  0.1251  0.0300 -0.3936
 7158TIP3    H242890   0.295   2.698   2.366  0.3337  0.6969 -0.0553
 7159TIP3   OH242891   1.224   5.126   0.074  0.5078  0.9918  0.0729
 7159TIP3    H142892   1.301   5.183   0.065 -0.1318  1.6523 -1.4486
 7159TIP3    H242893   1.151   5.181   0.045 -0.5135  0.3028  1.3182
 7160TIP3   OH242894   0.220   5.727   0.028  0.3835 -0.1512 -0.5377
 7160TIP3    H142895   0.237   5.803  -0.028 -0.8923  0.4469 -0.1326
 7160TIP3    H242896   0.188   5.660  -0.032  0.6474 -0.0726 -0.7679
 7161TIP3   OH242897   1.008   5.198   2.078 -0.3039  0.3472 -0.4854
 7161TIP3    H142898   0.965   5.254   2.013  1.3609  0.6299 -1.3776
 7161TIP3    H242899   1.089   5.170   2.035 -0.3664 -1.4796  0.5516
 7162TIP3   OH242900   2.190   0.987  11.356  0.1804  1.1071  0.1081
 7162TIP3    H142901   2.099   0.989  11.326  0.6586 -1.6856 -1.7596
 7162TIP3    H242902   2.201   0.899  11.393  2.1481  1.3606  0.1871
 7163TIP3   OH242903   0.092   1.707  14.883 -0.3085  0.0545 -0.2538
 7163TIP3    H142904   0.045   1.688  14.964 -0.7870 -1.2478 -0.8115
 7163TIP3    H242905   0.175   1.661  14.893  0.8573  2.3099  0.7099
 7164TIP3   OH242906   4.416   2.369  13.672  0.2997  0.0581 -0.2363
 7164TIP3    H142907   4.329   2.332  13.658  0.4164 -0.6568  0.8285
 7164TIP3    H242908   4.476   2.305  13.635  0.4580 -0.3567  0.7330
 7165TIP3   OH242909   4.832   1.525  14.724 -0.0980 -0.7637 -0.6495
 7165TIP3    H142910   4.848   1.432  14.743  0.3859 -1.0170 -2.1841
 7165TIP3    H242911   4.910   1.553  14.675 -0.5415  0.2742 -0.7741
 7166TIP3   OH242912   3.847   3.712  10.093  0.4417 -0.3154 -0.4025
 7166TIP3    H142913   3.798   3.632  10.114  1.3942 -0.7408  0.1998
 7166TIP3    H242914   3.925   3.681  10.047  0.0838  0.3748 -1.4879
 7167TIP3   OH242915   1.537   6.961  13.082  0.1144 -0.4242 -0.3896
 7167TIP3    H142916   1.514   6.914  13.162  0.5191 -4.4365 -2.5143
 7167TIP3    H242917   1.457   7.008  13.058 -0.5425 -0.5921  1.3935
 7168TIP3   OH242918   5.407   1.657   2.389  0.0420  0.2949  0.2503
 7168TIP3    H142919   5.366   1.723   2.445 -0.4804 -0.3534  0.6389
 7168TIP3    H242920   5.501   1.663   2.409  0.3094  2.5613 -1.4633
 7169TIP3   OH242921   1.035   1.568  15.524 -0.1304  1.0276  0.3367
 7169TIP3    H142922   1.044   1.502  15.593  2.1317 -0.4052 -1.2642
 7169TIP3    H242923   0.961   1.538  15.471 -1.1861  1.5527  1.4955
 7170TIP3   OH242924   3.021   1.122  14.935 -0.1084  0.2622 -0.3277
 7170TIP3    H142925   3.069   1.039  14.942 -1.6263 -0.5716  0.4078
 7170TIP3    H242926   3.019   1.156  15.024  1.0681  1.4348 -0.7287
 7171TIP3   OH242927   6.951   0.360  14.217  0.8017  0.0604  0.8843
 7171TIP3    H142928   6.865   0.331  14.187  1.1423  0.6331 -0.7004
 7171TIP3    H242929   6.960   0.322  14.304 -0.3047 -1.5032  0.3444
 7172TIP3   OH242930   6.987   4.679  14.923  0.2956 -0.2521 -0.0787
 7172TIP3    H142931   6.935   4.748  14.881  0.7168  0.5509  0.7169
 7172TIP3    H242932   7.007   4.618  14.852 -1.2947 -0.3014 -0.5027
 7173TIP3   OH242933   4.431   6.259  14.762 -0.1753 -0.1503  0.4286
 7173TIP3    H142934   4.416   6.344  14.720 -0.3206 -0.3529  0.0694
 7173TIP3    H242935   4.525   6.245  14.753 -0.0372  0.3057  1.1238
 7174TIP3   OH242936   0.592   0.565  14.439  0.2163 -0.2841 -0.0598
 7174TIP3    H142937   0.624   0.564  14.349  0.6378  1.8296  0.0486
 7174TIP3    H242938   0.545   0.648  14.447 -0.6267 -0.8818  1.4005
 7175TIP3   OH242939   3.816   2.150  12.099 -0.4175 -0.4438 -0.7270
 7175TIP3    H142940   3.872   2.075  12.118  0.0414  0.2991  0.9452
 7175TIP3    H242941   3.828   2.165  12.005  2.6046 -0.0027 -0.3257
 7176TIP3   OH242942   4.707   0.487   9.692 -0.4013  0.0266  0.1797
 7176TIP3    H142943   4.787   0.502   9.743  0.3413 -2.0381 -0.3381
 7176TIP3    H242944   4.636   0.509   9.752  0.5172  0.0697  1.2697
 7177TIP3   OH242945   6.372   6.642   3.270 -0.3911  1.1748 -0.1678
 7177TIP3    H142946   6.290   6.602   3.242 -0.1292  0.5928 -0.1127
 7177TIP3    H242947   6.426   6.643   3.191 -0.3849  1.3977 -0.1621
 7178TIP3   OH242948   4.586   0.038  12.284 -0.2406 -0.3622  0.2545
 7178TIP3    H142949   4.606   0.114  12.229 -1.9772 -0.2386 -0.2427
 7178TIP3    H242950   4.622   0.060  12.370  1.6005 -0.1178 -0.5519
 7179TIP3   OH242951   5.117   3.700   3.695  0.1242  0.2845 -0.4948
 7179TIP3    H142952   5.130   3.648   3.615 -1.2907 -0.5326 -0.2108
 7179TIP3    H242953   5.025   3.726   3.691  0.6993  2.3875 -0.3872
 7180TIP3   OH242954   3.740   5.491  14.072  1.0891  0.0730  0.4901
 7180TIP3    H142955   3.686   5.454  14.142 -0.9939 -0.6387 -1.4537
 7180TIP3    H242956   3.743   5.585  14.091  0.0878 -0.0332  1.2184
 7181TIP3   OH242957   0.724   3.509  13.244  0.6496  0.3602  0.0725
 7181TIP3    H142958   0.785   3.479  13.177  0.9380  1.0858  0.0001
 7181TIP3    H242959   0.769   3.584  13.285 -0.2621  0.9980 -0.0869
 7182TIP3   OH242960   4.902   2.286   1.908 -0.1049  0.1768  0.6121
 7182TIP3    H142961   4.894   2.280   1.813  0.2543 -1.3821  0.6658
 7182TIP3    H242962   4.994   2.270   1.926 -0.1974  0.3113  1.2385
 7183TIP3   OH242963   0.181   3.245  14.017 -0.2667  0.1053 -0.5669
 7183TIP3    H142964   0.177   3.150  14.010 -2.3165  0.3424 -3.2225
 7183TIP3    H242965   0.158   3.277  13.930 -2.5809  3.0606  1.0126
 7184TIP3   OH242966   6.854   4.255   1.503  0.3009 -0.1160  0.4414
 7184TIP3    H142967   6.807   4.213   1.431 -0.6973  1.8861 -0.1172
 7184TIP3    H242968   6.800   4.238   1.580 -1.0050  1.5415 -0.0718
 7185TIP3   OH242969   4.258   4.013  13.092 -0.1044 -0.3645 -0.4090
 7185TIP3    H142970   4.299   4.074  13.154  0.3403 -0.3530 -0.7128
 7185TIP3    H242971   4.198   4.067  13.041  0.9794  0.0106 -1.3127
 7186TIP3   OH242972   0.820   1.135   2.818  0.0701  0.4799 -0.0914
 7186TIP3    H142973   0.761   1.190   2.869  0.3628 -0.1366  0.9415
 7186TIP3    H242974   0.789   1.142   2.728  0.8901  3.3559 -0.1913
 7187TIP3   OH242975   4.458   4.194   4.194  0.3857  0.2804  0.6603
 7187TIP3    H142976   4.392   4.217   4.129  0.2332  4.5562  2.1591
 7187TIP3    H242977   4.410   4.187   4.277  1.5512  2.0888  1.5246
 7188TIP3   OH242978   6.764   3.057   0.126  0.1204  0.3804 -0.1796
 7188TIP3    H142979   6.737   3.145   0.103  1.6350  1.1255  0.8146
 7188TIP3    H242980   6.858   3.063   0.140 -0.2489 -0.6385  3.2635
 7189TIP3   OH242981   0.167   2.789  12.398 -0.0510 -0.1324  0.1692
 7189TIP3    H142982   0.110   2.768  12.471  1.2605 -0.2836  1.1667
 7189TIP3    H242983   0.184   2.705  12.355 -1.1977  0.0175 -0.6188
 7190TIP3   OH242984   5.364   2.663  13.302  0.6211  0.3265 -0.5950
 7190TIP3    H142985   5.444   2.714  13.303 -0.1114  1.5096 -1.8492
 7190TIP3    H242986   5.320   2.687  13.384  1.4328 -0.1744 -0.0014
 7191TIP3   OH242987   1.180   6.834   0.201 -0.3810  0.4257 -0.0393
 7191TIP3    H142988   1.212   6.852   0.290  0.6956 -0.5260 -0.2158
 7191TIP3    H242989   1.244   6.772   0.165  0.2034  2.1891 -2.1319
 7192TIP3   OH242990   6.472   6.139  11.568 -0.1179 -0.7650 -0.1981
 7192TIP3    H142991   6.516   6.054  11.560  2.1772  0.2083  1.4403
 7192TIP3    H242992   6.425   6.133  11.651  1.2071  0.0312  0.6331
 7193TIP3   OH242993   4.105   6.773   0.649 -0.3176  0.1750 -0.0182
 7193TIP3    H142994   4.172   6.715   0.685  0.0512  0.0717 -0.8678
 7193TIP3    H242995   4.109   6.851   0.705 -0.9854 -0.7069  1.2737
 7194TIP3   OH242996   3.891   3.949  15.477 -0.2266  0.0368  0.1040
 7194TIP3    H142997   3.958   4.016  15.494  0.2113 -0.9317  2.3476
 7194TIP3    H242998   3.817   3.974  15.532 -0.5122 -0.6731  0.0449
 7195TIP3   OH242999   5.163   5.552   2.020 -0.0428 -0.2397  0.4221
 7195TIP3    H143000   5.172   5.505   2.103 -1.9531 -1.6013 -0.1261
 7195TIP3    H243001   5.091   5.612   2.034  0.9109  0.9418  0.3652
 7196TIP3   OH243002   0.706   6.307  12.806  0.0529  0.4995 -0.1829
 7196TIP3    H143003   0.650   6.344  12.874  0.2139  0.2425  0.0935
 7196TIP3    H243004   0.770   6.254  12.854 -1.7758 -2.2634 -0.7311
 7197TIP3   OH243005   4.995   4.625  11.270  0.0266 -0.4158 -0.0884
 7197TIP3    H143006   4.956   4.655  11.187 -2.5736 -0.8741  0.9090
 7197TIP3    H243007   4.975   4.532  11.273 -0.2129 -0.3315  1.2071
 7198TIP3   OH243008   2.656   4.541  12.123 -0.1101  0.2938  0.1726
 7198TIP3    H143009   2.628   4.545  12.031  0.2323 -0.4756  0.0256
 7198TIP3    H243010   2.614   4.462  12.157 -0.5825  0.8186  0.7959
 7199TIP3   OH243011   5.636   2.511  13.409 -0.5553 -0.5683  0.5573
 7199TIP3    H143012   5.730   2.501  13.395 -0.7558 -1.7976  0.0027
 7199TIP3    H243013   5.626   2.600  13.444  0.6550  0.1533 -0.8585
 7200TIP3   OH243014   6.135   1.916  14.927 -0.2226  0.0291  0.0475
 7200TIP3    H143015   6.112   1.831  14.964  1.7109 -0.8041 -0.6400
 7200TIP3    H243016   6.208   1.947  14.980 -0.4972  0.9956 -0.1193
 7201TIP3   OH243017   0.807   1.675  11.237 -0.2943 -0.4151  0.1067
 7201TIP3    H143018   0.901   1.694  11.237 -0.2533 -0.6154  0.0442
 7201TIP3    H243019   0.780   1.684  11.329 -0.1880 -0.4855  0.1456
 7202TIP3   OH243020   4.920   3.417  14.142 -0.4973 -0.2658  0.5911
 7202TIP3    H143021   4.881   3.448  14.060  0.1904 -0.2956  0.2525
 7202TIP3    H243022   4.933   3.323  14.127 -0.6310 -0.3250  0.8428
 7203TIP3   OH243023   5.472   5.129  14.427 -0.4233  0.3862  0.9666
 7203TIP3    H143024   5.458   5.061  14.493 -0.9653  0.8939  1.3849
 7203TIP3    H243025   5.563   5.156  14.439 -0.2995 -0.0496  1.0062
 7204TIP3   OH243026   4.742   7.148  13.722  0.1416 -0.4573 -0.6959
 7204TIP3    H143027   4.666   7.100  13.689 -1.0211  1.3987 -0.7801
 7204TIP3    H243028   4.742   7.229  13.672  1.9939 -0.2795 -0.4362
 7205TIP3   OH243029   3.322   1.881  10.909  0.1400 -0.7634  0.1514
 7205TIP3    H143030   3.325   1.952  10.844  0.0957  0.6619  1.6680
 7205TIP3    H243031   3.242   1.833  10.887 -0.7510  0.6811  0.1237
 7206TIP3   OH243032   1.604   1.220  14.554  0.1900 -0.0737  0.0978
 7206TIP3    H143033   1.567   1.134  14.574  0.2068  0.1360  1.0421
 7206TIP3    H243034   1.614   1.220  14.459 -1.5656 -0.4213 -0.1059
 7207TIP3   OH243035   5.104   1.282   1.339 -0.3008  0.1107 -0.2150
 7207TIP3    H143036   5.138   1.221   1.273  0.8101 -1.0097  1.3716
 7207TIP3    H243037   5.140   1.367   1.313  0.4311 -0.3823 -0.8340
 7208TIP3   OH243038   2.716   4.056   1.157 -0.1111 -0.0025 -0.4287
 7208TIP3    H143039   2.639   4.089   1.112 -0.3602 -1.2329 -0.9296
 7208TIP3    H243040   2.765   4.009   1.090 -1.1616 -2.9930  0.7906
 7209TIP3   OH243041   2.420   3.664  15.370 -0.1560  0.0225 -0.2762
 7209TIP3    H143042   2.397   3.573  15.352  1.2691 -0.5158  0.5478
 7209TIP3    H243043   2.477   3.690  15.297  0.5981 -0.2031  0.2286
 7210TIP3   OH243044   6.943   1.180  14.897  0.5204 -0.6362  0.2479
 7210TIP3    H143045   7.013   1.244  14.908 -0.9423  0.9432  0.5649
 7210TIP3    H243046   6.980   1.098  14.930  2.1549  0.2125  0.5733
 7211TIP3   OH243047   6.042   1.611  11.435  0.3671 -0.0055 -0.0474
 7211TIP3    H143048   6.125   1.589  11.478  1.1900  0.4770 -1.3625
 7211TIP3    H243049   6.028   1.703  11.455 -1.2241 -0.7465  2.4009
 7212TIP3   OH243050   4.130   6.556  13.302  0.2198  0.0753  0.1450
 7212TIP3    H143051   4.098   6.470  13.330  1.0753 -2.5105 -6.0360
 7212TIP3    H243052   4.226   6.548  13.307  0.3071  0.5337 -0.7046
 7213TIP3   OH243053   0.277   5.540  11.873 -0.3710 -0.2932  0.1806
 7213TIP3    H143054   0.286   5.557  11.966  0.0594  2.3709 -0.3223
 7213TIP3    H243055   0.360   5.570  11.834 -0.2294 -2.0840 -0.9767
 7214TIP3   OH243056   1.308   3.696  13.162  0.1696  0.0204 -0.0036
 7214TIP3    H143057   1.368   3.714  13.234  0.8234  0.0296 -0.5478
 7214TIP3    H243058   1.365   3.682  13.086 -0.4651 -1.1595 -0.2730
 7215TIP3   OH243059   4.425   6.521  14.186 -0.0747  0.1392  0.2959
 7215TIP3    H143060   4.417   6.538  14.280 -1.5091  0.6612  0.0946
 7215TIP3    H243061   4.435   6.609  14.147 -4.4847  0.4138 -0.4762
 7216TIP3   OH243062   1.206   6.854  13.212  0.1624  0.0639 -0.3776
 7216TIP3    H143063   1.197   6.844  13.117 -0.1114  1.1447 -0.4709
 7216TIP3    H243064   1.246   6.940  13.223  1.3453 -0.5888  0.4376
 7217TIP3   OH243065   0.427   4.188  15.351  0.0403  0.3445  0.7054
 7217TIP3    H143066   0.398   4.117  15.409  1.3598 -1.4825 -0.7931
 7217TIP3    H243067   0.519   4.199  15.371  0.7590 -0.9889 -1.6785
 7218TIP3   OH243068   6.667   4.242   1.074 -0.2825 -0.0632  0.4927
 7218TIP3    H143069   6.759   4.261   1.095 -0.3594  0.6303  0.2154
 7218TIP3    H243070   6.628   4.328   1.059 -0.3724 -0.4857 -1.8755
 7219TIP3   OH243071   2.899   4.716  13.171  0.2327 -0.0394 -0.3746
 7219TIP3    H143072   2.934   4.772  13.101 -1.6143  0.6709 -0.7545
 7219TIP3    H243073   2.818   4.759  13.198 -0.7912 -2.0855 -0.0853
 7220TIP3   OH243074   0.453   3.320  14.020 -0.2060  0.0889 -0.0381
 7220TIP3    H143075   0.471   3.414  14.014 -1.3505  0.3656  0.6767
 7220TIP3    H243076   0.360   3.315  14.041 -0.2206 -1.2203 -0.3737
 7221TIP3   OH243077   0.532   3.231  13.372 -0.3013  0.4142 -0.3895
 7221TIP3    H143078   0.501   3.312  13.331 -0.6776  0.2379 -0.4557
 7221TIP3    H243079   0.547   3.255  13.464  1.1095  0.9597 -0.7491
 7222TIP3   OH243080   6.710   6.809   0.237  0.2363 -0.3396 -0.2815
 7222TIP3    H143081   6.743   6.853   0.159  1.6703 -0.9959 -0.0679
 7222TIP3    H243082   6.700   6.718   0.210 -0.4365 -0.3305 -0.0500
 7223TIP3   OH243083   3.583   5.964  12.680 -0.4651  0.4835  0.1972
 7223TIP3    H143084   3.564   6.057  12.695 -3.6458 -0.0084 -0.4278
 7223TIP3    H243085   3.535   5.919  12.750  1.3076 -0.6868  0.6712
 7224TIP3   OH243086   1.399   3.842   1.448 -0.1780  0.4875 -0.0384
 7224TIP3    H143087   1.310   3.877   1.436  0.4673  1.1020 -3.5992
 7224TIP3    H243088   1.452   3.918   1.470  0.2480  0.9313 -2.4564
 7225TIP3   OH243089   1.318   1.005  14.870 -0.7443  0.1198 -0.1382
 7225TIP3    H143090   1.291   0.944  14.802  0.9093 -0.0792 -0.6320
 7225TIP3    H243091   1.345   1.084  14.823  0.1526  0.0779  0.3103
 7226TIP3   OH243092   4.316   4.454  12.290  0.2824 -0.3924 -0.4058
 7226TIP3    H143093   4.317   4.358  12.291 -2.0441 -0.4542 -1.2930
 7226TIP3    H243094   4.306   4.479  12.382 -1.0293 -1.0628 -0.3511
 7227TIP3   OH243095   2.374   1.185  11.301 -0.8333  0.0484  0.2075
 7227TIP3    H143096   2.321   1.114  11.338 -1.7732  1.1803  1.0719
 7227TIP3    H243097   2.317   1.227  11.236 -0.6714  0.6836  0.4712
 7228TIP3   OH243098   3.648   2.625  13.737  0.2443 -0.6192  0.1733
 7228TIP3    H143099   3.738   2.638  13.708  0.3638 -0.3378  0.6679
 7228TIP3    H243100   3.595   2.663  13.667  0.4788 -1.8441 -0.6697
 7229TIP3   OH243101   1.441   4.273  13.973 -0.1199  0.1753 -0.4334
 7229TIP3    H143102   1.408   4.361  13.987 -2.5096 -0.1280 -3.8308
 7229TIP3    H243103   1.411   4.224  14.050  2.2785  2.5061  2.0956
 7230TIP3   OH243104   2.143   5.982  14.623  0.1153 -0.6730  0.2599
 7230TIP3    H143105   2.222   5.962  14.674 -1.2192 -2.1820  1.8100
 7230TIP3    H243106   2.072   5.942  14.673 -1.5333 -0.0722 -1.5523
 7231TIP3   OH243107   5.379   2.118   2.070  0.0434  0.6359  0.1586
 7231TIP3    H143108   5.422   2.105   1.986 -2.0234 -2.1566 -0.5292
 7231TIP3    H243109   5.438   2.175   2.119  1.4540  1.9649 -3.0191
 7232TIP3   OH243110   4.719   5.829  13.202  0.5177  0.0922 -0.0909
 7232TIP3    H143111   4.796   5.849  13.149 -0.1167  1.9561 -0.3451
 7232TIP3    H243112   4.748   5.839  13.293  1.0512 -0.9996 -0.1439
 7233TIP3   OH243113   3.363   2.565  12.486  0.1574  0.0469  0.2197
 7233TIP3    H143114   3.387   2.654  12.462  1.7075 -0.3452  0.2582
 7233TIP3    H243115   3.416   2.509  12.429  1.2753 -0.8595  2.0790
 7234TIP3   OH243116   5.724   3.268  15.412  0.1682  0.2435  0.3818
 7234TIP3    H143117   5.730   3.322  15.333  0.8116  1.6866  1.3962
 7234TIP3    H243118   5.762   3.184  15.387 -0.2311  0.4646 -1.0195
 7235TIP3   OH243119   5.876   3.552  13.788 -0.4440  0.5206  0.2179
 7235TIP3    H143120   5.847   3.552  13.697  0.0329 -1.7857  0.0328
 7235TIP3    H243121   5.815   3.610  13.833 -2.5678 -0.7211 -1.0063
 7236TIP3   OH243122   1.215   6.809  13.573  0.4565 -0.0314 -0.0501
 7236TIP3    H143123   1.185   6.751  13.643 -0.4349  1.5654  0.9447
 7236TIP3    H243124   1.155   6.792  13.500 -0.9349  0.8845  0.8531
 7237TIP3   OH243125   3.864   5.445  13.477 -0.1563 -0.1590 -0.2671
 7237TIP3    H143126   3.819   5.530  13.480  0.1231 -0.0404  0.5804
 7237TIP3    H243127   3.946   5.463  13.432 -0.3751 -0.1114 -0.6527
 7238TIP3   OH243128   0.521   4.597   1.548  0.1205  0.2625  0.5499
 7238TIP3    H143129   0.468   4.593   1.628 -0.4320 -2.9412  0.0848
 7238TIP3    H243130   0.475   4.659   1.492 -0.0769  1.7269  2.2919
 7239TIP3   OH243131   0.252   3.485  13.531 -0.0700  0.1323  0.1161
 7239TIP3    H143132   0.173   3.450  13.490  0.1820 -0.1664 -0.1171
 7239TIP3    H243133   0.312   3.499  13.458 -0.1647  1.0497  0.2063
 7240TIP3   OH243134   5.388   7.091  14.760  0.0666  0.8666  0.0652
 7240TIP3    H143135   5.335   7.029  14.809  0.9513  0.6213  0.7243
 7240TIP3    H243136   5.354   7.177  14.784  1.4746  0.8291  2.3063
 7241TIP3   OH243137   0.140   2.780  14.159 -0.1611 -0.0585  0.4135
 7241TIP3    H143138   0.045   2.790  14.160  0.0125  1.8837 -0.3238
 7241TIP3    H243139   0.169   2.816  14.242  0.1448  2.0832 -0.5853
 7242TIP3   OH243140   6.256   1.801  14.009  0.3103  0.3310  0.4777
 7242TIP3    H143141   6.208   1.879  14.038  0.1144  0.3009  0.2332
 7242TIP3    H243142   6.239   1.736  14.077 -3.3266 -0.9977 -1.6002
 7243TIP3   OH243143   0.485   3.825  12.912 -0.1644  0.1508  0.3963
 7243TIP3    H143144   0.530   3.846  12.994  1.0059 -0.6546 -0.0136
 7243TIP3    H243145   0.548   3.850  12.844 -0.8712  0.2222 -0.2278
 7244TIP3   OH243146   1.775   5.234  12.965 -0.0835  0.6994  0.1735
 7244TIP3    H143147   1.722   5.169  13.011 -2.7199  2.1203 -0.7508
 7244TIP3    H243148   1.806   5.293  13.034  0.6384 -0.3677  0.7695
 7245TIP3   OH243149   5.655   0.114  11.324 -0.0126 -0.4126  0.3900
 7245TIP3    H143150   5.643   0.181  11.257 -0.8687  0.1005  1.0438
 7245TIP3    H243151   5.705   0.158  11.393 -1.0758 -0.2606  1.0765
 7246TIP3   OH243152   1.707   6.808  12.896 -0.2094  0.2582 -0.0115
 7246TIP3    H143153   1.738   6.878  12.839 -0.6653  2.0207  1.8349
 7246TIP3    H243154   1.628   6.844  12.937 -2.1656 -2.4420 -1.2120
 7247TIP3   OH243155   1.689   2.958   0.186  0.1552  0.1952  0.1936
 7247TIP3    H143156   1.737   3.024   0.135  1.6056  0.0627  1.3612
 7247TIP3    H243157   1.651   3.007   0.259 -1.3267  0.2572 -0.5968
 7248TIP3   OH243158   5.966   0.853  15.030  0.2133 -0.2418 -0.8071
 7248TIP3    H143159   5.905   0.851  14.957  1.1223  1.2627 -1.6237
 7248TIP3    H243160   6.042   0.803  15.000  0.4020 -0.0061 -0.7269
 7249TIP3   OH243161   0.762   0.847  11.339  0.0013 -0.3327 -0.3623
 7249TIP3    H143162   0.786   0.938  11.351 -2.2849  0.4685 -1.5288
 7249TIP3    H243163   0.824   0.814  11.273  1.7484 -0.0627  1.1205
 7250TIP3   OH243164   5.625   2.869  13.076 -0.1287  0.5421  0.1400
 7250TIP3    H143165   5.681   2.947  13.075 -3.4838  3.0880 -1.2909
 7250TIP3    H243166   5.575   2.878  13.157  0.3178 -0.8013  0.5679
 7251TIP3   OH243167   2.574   6.852   3.058 -0.5480 -0.1107 -0.5060
 7251TIP3    H143168   2.497   6.800   3.083 -0.1225  0.1408  1.4369
 7251TIP3    H243169   2.647   6.802   3.094  0.2751 -0.7056 -2.9381
 7252TIP3   OH243170   0.903   1.459  10.906 -0.0864 -0.5358 -0.1652
 7252TIP3    H143171   0.820   1.445  10.861  0.7424  2.2593 -2.7523
 7252TIP3    H243172   0.953   1.379  10.890 -0.7206 -0.5459 -2.2009
 7253TIP3   OH243173   0.888   4.581   0.358  0.0153  0.2900 -0.2254
 7253TIP3    H143174   0.891   4.676   0.347  2.6968  0.3385  0.5842
 7253TIP3    H243175   0.965   4.561   0.411 -1.2048 -2.2120  0.6451
 7254TIP3   OH243176   2.043   0.531  12.906 -0.0460  0.3055  0.2357
 7254TIP3    H143177   2.110   0.470  12.875  0.9714  1.1459  0.7916
 7254TIP3    H243178   2.034   0.512  12.999 -0.3015  0.4650  0.2451
 7255TIP3   OH243179   5.415   7.141  11.669  0.6692 -0.2709 -0.7183
 7255TIP3    H143180   5.357   7.194  11.724 -0.5553 -0.8990 -1.3901
 7255TIP3    H243181   5.417   7.187  11.585  0.0434 -0.9798 -1.1296
 7256TIP3   OH243182   4.991   3.082   0.542 -0.8249 -0.1543 -0.2109
 7256TIP3    H143183   4.962   3.164   0.502  0.0307 -0.2020 -0.9410
 7256TIP3    H243184   5.037   3.036   0.472 -1.7329 -1.4946  0.0564
 7257TIP3   OH243185   1.894   0.803  10.927 -0.6334  0.0339  0.2784
 7257TIP3    H143186   1.809   0.813  10.971 -1.9233 -3.8048 -1.1350
 7257TIP3    H243187   1.945   0.748  10.986 -0.2112 -0.2270 -0.3296
 7258TIP3   OH243188   3.906   6.683  12.793  0.8345 -0.1219 -1.2884
 7258TIP3    H143189   3.906   6.641  12.879  1.3745 -0.2316 -1.3408
 7258TIP3    H243190   3.813   6.693  12.772  0.6950 -1.2248 -1.2454
 7259TIP3   OH243191   2.062   0.679   1.189  0.0304 -0.1669 -0.2862
 7259TIP3    H143192   2.035   0.753   1.135 -2.2983 -1.5283 -1.0858
 7259TIP3    H243193   2.029   0.700   1.276  1.0049  0.5820 -0.0957
 7260TIP3   OH243194   3.868   3.421  14.334 -0.0181  0.2928  0.2167
 7260TIP3    H143195   3.934   3.436  14.267 -1.9110  1.8224 -1.3606
 7260TIP3    H243196   3.900   3.468  14.411  0.9482  0.6394 -0.3962
 7261TIP3   OH243197   4.366   3.921  10.887 -0.6323  0.1199 -0.2096
 7261TIP3    H143198   4.290   3.899  10.834  0.1493 -1.0760 -0.8687
 7261TIP3    H243199   4.438   3.930  10.824 -0.2574  1.4469  0.3779
 7262TIP3   OH243200   3.037   3.154   1.490  1.1664  0.3850  0.1765
 7262TIP3    H143201   3.013   3.064   1.468 -0.8016  1.8642 -4.4730
 7262TIP3    H243202   2.983   3.176   1.565  0.5761 -1.8566  0.4417
 7263TIP3   OH243203   1.809   6.219  12.557 -0.6501 -0.7117 -0.4756
 7263TIP3    H143204   1.899   6.246  12.575 -0.3075 -3.3718  2.1749
 7263TIP3    H243205   1.802   6.222  12.461  2.0813 -0.0355 -0.6979
 7264TIP3   OH243206   3.736   1.256   1.842  0.2004  0.0725  0.2339
 7264TIP3    H143207   3.791   1.200   1.896  0.0919  1.6870  2.0607
 7264TIP3    H243208   3.661   1.201   1.818 -1.1207  0.1043  3.9875
 7265TIP3   OH243209   2.974   0.034  13.385 -0.1613 -0.3316 -0.3887
 7265TIP3    H143210   2.910   0.105  13.376 -0.0964 -0.1314  0.6552
 7265TIP3    H243211   3.057   0.075  13.362 -0.0954 -0.0053  0.3986
 7266TIP3   OH243212   6.680   1.934  14.915 -0.1292 -0.8112 -0.8500
 7266TIP3    H143213   6.671   1.871  14.986 -0.5792  1.9195  1.6359
 7266TIP3    H243214   6.592   1.942  14.879 -0.6292  0.2538  0.5439
 7267TIP3   OH243215   1.797   3.792   3.133  0.2157  0.0063 -0.0464
 7267TIP3    H143216   1.734   3.855   3.169 -0.8524 -0.5845 -0.8381
 7267TIP3    H243217   1.851   3.842   3.073  0.4986  0.5167  0.6280
 7268TIP3   OH243218   0.273   2.135  13.170 -0.3670 -0.3064 -0.4010
 7268TIP3    H143219   0.260   2.042  13.151 -1.1902  0.1778 -2.3320
 7268TIP3    H243220   0.221   2.180  13.103  1.9194  1.5655 -0.9604
 7269TIP3   OH243221   0.302   1.815   3.526 -0.2552  0.2830 -0.2598
 7269TIP3    H143222   0.308   1.910   3.529 -0.2515  0.2665  0.3781
 7269TIP3    H243223   0.208   1.796   3.526 -0.2605  0.2573  0.9806
 7270TIP3   OH243224   1.428   6.651   1.803  0.0462  0.2957 -0.1384
 7270TIP3    H143225   1.425   6.650   1.898  0.7710  0.2707 -0.1119
 7270TIP3    H243226   1.448   6.742   1.780 -1.3874  0.5779 -0.3160
 7271TIP3   OH243227   5.063   3.731  11.126  0.3954  0.2571 -0.4575
 7271TIP3    H143228   5.055   3.776  11.210 -1.5903 -0.5084 -0.2113
 7271TIP3    H243229   4.978   3.744  11.083  0.4689 -1.5739 -1.2091
 7272TIP3   OH243230   5.945   5.103   1.487 -0.1523 -0.1347  0.2948
 7272TIP3    H143231   5.864   5.100   1.435 -1.0599  1.9885  1.4901
 7272TIP3    H243232   5.929   5.043   1.560  0.7560 -2.4040 -1.3363
 7273TIP3   OH243233   0.536   5.751   1.362  1.0462  0.6538 -0.4270
 7273TIP3    H143234   0.516   5.697   1.285  0.4340  2.0504 -1.2699
 7273TIP3    H243235   0.453   5.759   1.408  1.1187  0.9464 -0.3490
 7274TIP3   OH243236   1.191   4.300  14.774  0.0307  0.1040  0.1662
 7274TIP3    H143237   1.254   4.336  14.836  0.3832  1.8439 -1.1581
 7274TIP3    H243238   1.209   4.345  14.692 -2.6068  0.2895 -0.3702
 7275TIP3   OH243239   2.546   0.460   0.461 -0.1166  0.4383 -0.4750
 7275TIP3    H143240   2.466   0.424   0.500 -1.3773  2.3377 -1.2047
 7275TIP3    H243241   2.545   0.552   0.488  1.2540  0.7374 -1.4264
 7276TIP3   OH243242   1.460   1.470  15.251  0.2872  0.0829  0.3329
 7276TIP3    H143243   1.494   1.554  15.281  0.9371  0.0495 -0.2879
 7276TIP3    H243244   1.504   1.455  15.167 -0.7251 -0.2997 -0.1504
 7277TIP3   OH243245   3.928   2.778  13.835 -0.1442  0.3622 -0.2536
 7277TIP3    H143246   3.910   2.869  13.857 -2.1671  0.2822 -1.5521
 7277TIP3    H243247   3.906   2.770  13.742 -1.4921 -1.8266  0.2291
 7278TIP3   OH243248   0.499   1.558   2.761 -0.1038 -0.0777 -0.6016
 7278TIP3    H143249   0.483   1.611   2.839  2.3352 -0.5483  0.2723
 7278TIP3    H243250   0.464   1.610   2.689 -2.7899  0.1815  0.8083
 7279TIP3   OH243251   6.343   3.522  11.584 -0.0341 -0.2416 -0.2716
 7279TIP3    H143252   6.307   3.582  11.519  0.7825  0.4019 -0.1386
 7279TIP3    H243253   6.283   3.528  11.658 -0.6068 -0.4900 -0.7079
 7280TIP3   OH243254   5.825   6.589   1.718 -0.1247  0.7506 -0.1765
 7280TIP3    H143255   5.748   6.576   1.774 -0.2352 -0.9016 -0.6720
 7280TIP3    H243256   5.890   6.527   1.751  0.7220  1.6162 -0.2290
 7281TIP3   OH243257   0.843   4.731  12.554 -0.1751 -0.3339 -0.1207
 7281TIP3    H143258   0.896   4.809  12.538 -2.2720  1.4928  1.3696
 7281TIP3    H243259   0.768   4.741  12.496  0.2590 -2.0190 -0.9842
 7282TIP3   OH243260   3.574   0.449  14.599  0.3454  0.6632 -0.0991
 7282TIP3    H143261   3.602   0.532  14.559  3.3136 -0.9157 -1.4773
 7282TIP3    H243262   3.645   0.425  14.657  1.3229 -2.7762 -2.5885
 7283TIP3   OH243263   2.073   3.738  13.867 -0.0070 -0.1232  0.1765
 7283TIP3    H143264   2.050   3.786  13.946 -0.1647 -1.0505  0.6927
 7283TIP3    H243265   2.017   3.776  13.799 -0.7330 -0.1417  0.7540
 7284TIP3   OH243266   2.803   6.180   0.445 -0.0136 -0.1018  0.6466
 7284TIP3    H143267   2.860   6.203   0.371 -0.2511  0.3452  0.6002
 7284TIP3    H243268   2.852   6.206   0.523  0.0340 -0.1231  0.6234
 7285TIP3   OH243269   5.166   2.782  14.954  0.3350 -0.4512 -0.0407
 7285TIP3    H143270   5.147   2.707  15.011 -0.6119 -1.7988 -2.0724
 7285TIP3    H243271   5.211   2.845  15.011  1.6042 -2.7591  1.5759
 7286TIP3   OH243272   2.384   3.058  14.673  0.5446 -0.3021 -0.1094
 7286TIP3    H143273   2.434   3.140  14.675 -0.1101  0.0829  1.5816
 7286TIP3    H243274   2.432   3.001  14.613  1.7470  0.8533 -0.2532
 7287TIP3   OH243275   0.560   0.726  11.052  0.2680 -0.0168  0.0223
 7287TIP3    H143276   0.514   0.699  10.972 -0.8711  1.8568  0.0412
 7287TIP3    H243277   0.491   0.754  11.112  1.1904 -0.4588  1.3172
 7288TIP3   OH243278   6.512   0.600   0.743 -0.3622  0.0573 -0.0719
 7288TIP3    H143279   6.587   0.544   0.724 -1.0234 -1.7762  2.4614
 7288TIP3    H243280   6.440   0.561   0.693 -0.1428  0.5037 -0.7469
 7289TIP3   OH243281   5.101   1.460  13.940 -0.0882 -0.3893  0.1480
 7289TIP3    H143282   5.066   1.371  13.926 -0.7613  0.1976 -2.1579
 7289TIP3    H243283   5.046   1.497  14.009 -1.4981 -0.8773 -0.6896
 7290TIP3   OH243284   4.102   3.285  14.653  0.0023 -0.1028  0.4434
 7290TIP3    H143285   4.183   3.245  14.622 -1.3106 -2.0128 -0.6590
 7290TIP3    H243286   4.104   3.272  14.748  0.2512 -1.5930  0.2461
 7291TIP3   OH243287   0.804   4.291  11.723  0.2567 -0.4232  0.6408
 7291TIP3    H143288   0.720   4.249  11.741 -0.9041  0.3087 -2.6206
 7291TIP3    H243289   0.805   4.369  11.778 -1.4716 -0.1701  0.3395
 7292TIP3   OH243290   0.968   6.894   0.417 -0.0926  0.1903  0.5251
 7292TIP3    H143291   1.005   6.811   0.446 -0.8420 -0.3155  0.0505
 7292TIP3    H243292   1.014   6.960   0.468  2.3095 -0.3382 -0.8821
 7293TIP3   OH243293   0.740   5.141   2.600 -0.3877  0.5917  0.7720
 7293TIP3    H143294   0.741   5.048   2.578 -0.2833  0.7035  0.2863
 7293TIP3    H243295   0.819   5.154   2.651  1.4538  1.0796 -2.0644
 7294TIP3   OH243296   0.440   4.511   2.237  0.5892 -0.4907  0.0304
 7294TIP3    H143297   0.356   4.545   2.270  1.4357  1.1587  0.5674
 7294TIP3    H243298   0.419   4.424   2.203 -1.5160  0.2279 -0.6159
 7295TIP3   OH243299   5.933   5.924  14.036 -0.2570 -0.4495 -0.1876
 7295TIP3    H143300   5.944   5.853  14.100 -2.7161  0.0004  0.8006
 7295TIP3    H243301   5.922   5.880  13.952 -0.6124 -1.1986  0.2500
 7296TIP3   OH243302   3.707   4.977   4.753 -0.5218 -0.3177 -0.3830
 7296TIP3    H143303   3.790   5.015   4.724  0.1020 -1.5359 -0.2305
 7296TIP3    H243304   3.693   4.902   4.696 -0.1011 -1.7621  1.3521
 7297TIP3   OH243305   0.681   5.033   2.037 -0.2800  0.6802 -0.5628
 7297TIP3    H143306   0.677   5.129   2.045 -1.2311  0.5835  0.1081
 7297TIP3    H243307   0.768   5.017   2.000  0.5408  1.6952  0.8668
 7298TIP3   OH243308   6.042   7.034  15.054  0.2663  0.1155 -0.2641
 7298TIP3    H143309   6.096   7.042  15.133  0.4890  2.4338 -0.6083
 7298TIP3    H243310   5.980   6.964  15.075  1.8516 -0.9382  1.0407
 7299TIP3   OH243311   3.202   1.238  11.589 -0.3390  0.0115 -0.1091
 7299TIP3    H143312   3.219   1.201  11.676  0.9843  1.6170  0.3391
 7299TIP3    H243313   3.139   1.309  11.605  0.0796  0.4557 -0.4274
 7300TIP3   OH243314   1.232   1.418  14.620  0.5163  0.1466  0.3518
 7300TIP3    H143315   1.249   1.496  14.567 -0.1212 -0.0900 -0.2057
 7300TIP3    H243316   1.164   1.446  14.681  0.7066  0.1973  0.5397
 7301TIP3   OH243317   0.480   0.320  15.511 -0.6444 -0.7246 -0.2342
 7301TIP3    H143318   0.464   0.250  15.575 -0.5136 -1.6322 -1.1658
 7301TIP3    H243319   0.575   0.331  15.511 -0.8346  1.0641  1.5706
 7302TIP3   OH243320   6.535   4.966   1.589  0.3244  0.2775 -0.0332
 7302TIP3    H143321   6.463   4.905   1.575  2.0199 -1.9358  0.6829
 7302TIP3    H243322   6.545   4.972   1.684  1.2180  0.3857 -0.1223
 7303TIP3   OH243323   0.369   2.970  14.440 -0.3103  0.1691 -0.6184
 7303TIP3    H143324   0.335   2.913  14.510  1.5186 -1.2840 -0.8750
 7303TIP3    H243325   0.307   3.042  14.436 -2.7490 -1.8222 -0.3039
 7304TIP3   OH243326   3.669   2.600  12.104  0.5884 -0.3842 -0.0131
 7304TIP3    H143327   3.681   2.680  12.156  0.8698 -1.2117  1.2178
 7304TIP3    H243328   3.692   2.626  12.015 -1.8292  1.6071 -0.1378
 7305TIP3   OH243329   2.095   4.254   1.502 -0.2001 -0.1863 -0.5871
 7305TIP3    H143330   2.137   4.283   1.583  1.4823 -0.6268 -1.2834
 7305TIP3    H243331   2.007   4.290   1.507 -0.6323 -1.4804  2.1554
 7306TIP3   OH243332   4.762   5.080   1.121 -0.1257 -0.4877 -0.6199
 7306TIP3    H143333   4.670   5.098   1.101 -0.5425 -0.7909  0.9346
 7306TIP3    H243334   4.807   5.162   1.106 -1.2113  0.6071  1.7309
 7307TIP3   OH243335   4.929   4.106  15.391 -0.0938 -0.2527 -0.0421
 7307TIP3    H143336   4.972   4.021  15.401 -0.2551 -0.3188  0.0825
 7307TIP3    H243337   4.924   4.142  15.480 -2.7825 -1.4662  0.3428
 7308TIP3   OH243338   0.459   7.104   0.445  0.4620 -0.2646 -0.6002
 7308TIP3    H143339   0.435   7.041   0.513 -0.8882  1.9737  1.0415
 7308TIP3    H243340   0.554   7.116   0.456  0.3945 -0.5726  0.3030
 7309TIP3   OH243341   6.812   3.978  14.100  0.9117 -0.1663  0.5067
 7309TIP3    H143342   6.787   3.928  14.178  0.8294 -0.5504  0.2333
 7309TIP3    H243343   6.836   3.912  14.035 -2.4680 -0.0125 -0.9952
 7310TIP3   OH243344   3.649   4.474   0.502  0.4517 -0.4843  0.4330
 7310TIP3    H143345   3.698   4.456   0.582  0.6691  0.7369  0.5804
 7310TIP3    H243346   3.716   4.499   0.438  0.3523 -2.1405 -0.3365
 7311TIP3   OH243347   2.010   2.851  13.048 -0.5786 -0.1956  0.6887
 7311TIP3    H143348   2.013   2.781  12.983  1.0128 -0.1263  0.6769
 7311TIP3    H243349   1.943   2.911  13.015  0.3228 -0.0859 -0.9656
 7312TIP3   OH243350   5.164   4.077  13.324 -0.3351 -0.0814 -0.0840
 7312TIP3    H143351   5.164   4.087  13.419  0.1511 -0.1651 -0.0729
 7312TIP3    H243352   5.209   4.155  13.291  0.9073 -0.8120 -0.1557
 7313TIP3   OH243353   4.420   0.543  13.113 -0.0905  1.1101  0.6335
 7313TIP3    H143354   4.464   0.589  13.185 -0.3900  2.6584 -0.1564
 7313TIP3    H243355   4.329   0.535  13.142 -0.1520  1.4877  0.5497
 7314TIP3   OH243356   7.005   1.192   4.489 -0.0682 -0.1834  0.1521
 7314TIP3    H143357   7.092   1.227   4.507 -0.3753  1.3761 -1.1865
 7314TIP3    H243358   6.995   1.202   4.394 -2.7791  2.2978  0.6191
 7315TIP3   OH243359   6.600   1.599   9.992  0.1405 -0.0571  0.2956
 7315TIP3    H143360   6.574   1.513   9.959  1.7730  0.0672 -1.3710
 7315TIP3    H243361   6.656   1.635   9.924  0.9563  1.5711  1.7929
 7316TIP3   OH243362   0.135   5.170  12.713 -0.5298  0.1038  0.2952
 7316TIP3    H143363   0.081   5.128  12.780  0.1744 -0.8334  0.2952
 7316TIP3    H243364   0.076   5.181  12.638 -0.4289 -2.0636 -0.1501
 7317TIP3   OH243365   4.855   3.264  14.678  0.4555  0.4639 -0.1546
 7317TIP3    H143366   4.943   3.254  14.639 -0.9255  0.0995 -3.3780
 7317TIP3    H243367   4.842   3.182  14.726  1.3752 -0.0651 -0.7637
 7318TIP3   OH243368   6.655   4.029   3.470  0.0999  1.1670  0.1159
 7318TIP3    H143369   6.567   4.027   3.509 -0.0862  0.6507 -0.3224
 7318TIP3    H243370   6.672   4.121   3.455 -0.5893  1.2355 -0.2898
 7319TIP3   OH243371   0.525   1.402  10.183 -0.0727 -0.7292 -0.4089
 7319TIP3    H143372   0.466   1.408  10.259  0.1515 -2.2034 -0.0831
 7319TIP3    H243373   0.609   1.435  10.215  0.1373 -1.7645  0.1327
 7320TIP3   OH243374   1.206   3.494  11.616 -0.2077 -0.2149 -0.7261
 7320TIP3    H143375   1.121   3.536  11.627 -0.2817 -0.9434  1.9243
 7320TIP3    H243376   1.196   3.407  11.656  1.6217 -0.5156 -0.8458
 7321TIP3   OH243377   2.695   6.960  13.292 -0.5738  0.0849 -0.0990
 7321TIP3    H143378   2.703   6.898  13.220  1.5973  0.1446  0.0630
 7321TIP3    H243379   2.728   6.912  13.368  1.0766  1.3910  0.0419
 7322TIP3   OH243380   6.467   1.773  12.633  0.3668  0.4689 -0.3054
 7322TIP3    H143381   6.549   1.729  12.655 -0.0509  0.7429  1.9692
 7322TIP3    H243382   6.428   1.794  12.718 -0.5516  3.1920 -1.3628
 7323TIP3   OH243383   2.371   2.610   1.698  0.3758 -0.0484 -0.9440
 7323TIP3    H143384   2.399   2.519   1.693 -0.0347 -0.3424  1.4325
 7323TIP3    H243385   2.277   2.606   1.718  0.1522  0.8942 -1.7655
 7324TIP3   OH243386   4.072   1.674  15.272 -0.0142 -0.0213 -0.1821
 7324TIP3    H143387   4.167   1.670  15.256  0.1097  3.0647 -0.4385
 7324TIP3    H243388   4.035   1.697  15.187 -0.5600  3.1151  0.8549
 7325TIP3   OH243389   6.009   2.199   1.598  0.3857  0.2035  0.3618
 7325TIP3    H143390   6.048   2.236   1.677  0.9283  0.1727  0.1060
 7325TIP3    H243391   5.926   2.246   1.589  0.8744  1.0606  0.2806
 7326TIP3   OH243392   0.621   5.651   4.801  0.1574 -0.1308 -0.6273
 7326TIP3    H143393   0.579   5.734   4.825  0.2739 -0.6742  1.4952
 7326TIP3    H243394   0.549   5.595   4.773 -0.1095  0.1230 -0.4494
 7327TIP3   OH243395   5.308   2.533   2.657  0.5726 -0.1251  0.1957
 7327TIP3    H143396   5.374   2.594   2.623 -0.3251 -0.6255 -2.5699
 7327TIP3    H243397   5.225   2.581   2.649 -0.0257 -1.3754 -1.1533
 7328TIP3   OH243398   1.387   4.898  12.009  0.7057 -0.3784  0.0463
 7328TIP3    H143399   1.368   4.984  12.045  2.0271 -0.3071  0.6099
 7328TIP3    H243400   1.482   4.895  12.003  0.7234 -2.1627  0.9345
 7329TIP3   OH243401   2.632   3.333  14.409 -0.1339  0.6345  0.4664
 7329TIP3    H143402   2.575   3.271  14.455 -0.0148  0.1211 -0.0648
 7329TIP3    H243403   2.718   3.322  14.450 -0.3284  1.1509  1.0263
 7330TIP3   OH243404   3.518   4.310  14.062  0.0380 -0.0560  0.2377
 7330TIP3    H143405   3.532   4.395  14.104  1.0511  0.4513 -1.1000
 7330TIP3    H243406   3.548   4.246  14.127  0.0275  0.6431  0.9389
 7331TIP3   OH243407   3.322   4.827  14.857  0.0108  0.5039 -0.1833
 7331TIP3    H143408   3.228   4.808  14.863 -0.5475  3.2847  0.9275
 7331TIP3    H243409   3.364   4.760  14.911 -1.3739 -0.5677 -0.4251
 7332TIP3   OH243410   0.358   2.066   0.867 -0.4104  0.0646 -0.8101
 7332TIP3    H143411   0.333   2.014   0.791  0.0526  1.9711 -2.3153
 7332TIP3    H243412   0.318   2.152   0.852  0.7897  0.8711  0.4331
 7333TIP3   OH243413   1.705   5.038  15.111 -0.0589 -0.2687 -0.0867
 7333TIP3    H143414   1.616   5.033  15.075 -0.8801 -0.1485  1.8630
 7333TIP3    H243415   1.761   5.002  15.042 -1.5508  0.2070 -1.5707
 7334TIP3   OH243416   1.534   3.551  11.827 -0.5792  0.3572  0.2811
 7334TIP3    H143417   1.493   3.588  11.749 -0.6781  2.7136  1.3905
 7334TIP3    H243418   1.587   3.623  11.862 -0.2974 -0.7631  2.2194
 7335TIP3   OH243419   1.206   2.912  14.217  0.1365  0.1244  0.3447
 7335TIP3    H143420   1.134   2.851  14.203  0.3987 -0.6337  2.0851
 7335TIP3    H243421   1.277   2.879  14.162  0.5633 -1.7035  1.9039
 7336TIP3   OH243422   0.177   4.168  13.938 -0.0944 -0.1013  0.2411
 7336TIP3    H143423   0.128   4.150  14.018 -0.5922  0.4816  0.0761
 7336TIP3    H243424   0.125   4.234  13.892  0.0521 -0.6118 -0.6884
 7337TIP3   OH243425   3.085   4.912  11.012 -0.0095  0.4422  0.0052
 7337TIP3    H143426   3.051   4.905  11.100  0.5101  0.0352  0.1769
 7337TIP3    H243427   3.159   4.973  11.019 -1.3944  2.2101 -0.5668
 7338TIP3   OH243428   3.909   0.068   4.108 -0.2404 -0.1988  0.8201
 7338TIP3    H143429   3.861   0.133   4.158 -0.9130 -0.2277  0.2278
 7338TIP3    H243430   3.889   0.088   4.017  2.9550  1.4003  0.3995
 7339TIP3   OH243431   3.882   1.904  14.532  0.2413 -0.5650  0.4015
 7339TIP3    H143432   3.873   1.977  14.470 -0.9487 -0.8206  0.2707
 7339TIP3    H243433   3.959   1.856  14.500 -0.9922 -1.3086 -1.5217
 7340TIP3   OH243434   7.029   2.906  11.293 -0.3919 -0.1028 -0.4012
 7340TIP3    H143435   7.101   2.964  11.318 -0.4950 -0.0781 -0.1567
 7340TIP3    H243436   7.017   2.849  11.369 -1.2518  0.5120 -0.0603
 7341TIP3   OH243437   3.592   2.966  13.867 -0.5454 -0.0818  0.2129
 7341TIP3    H143438   3.673   2.935  13.908 -1.0190 -1.3879  0.1748
 7341TIP3    H243439   3.557   3.030  13.930 -1.3907 -2.2447  2.0328
 7342TIP3   OH243440   4.634   6.536  11.022 -0.2616 -0.0921 -0.5499
 7342TIP3    H143441   4.588   6.534  10.938 -1.1731  0.0302 -0.0565
 7342TIP3    H243442   4.623   6.448  11.058  0.5415 -0.2895 -0.7748
 7343TIP3   OH243443   4.168   5.371  13.527  0.1329 -0.3036  0.0841
 7343TIP3    H143444   4.168   5.402  13.618  0.6379 -0.6539  0.2062
 7343TIP3    H243445   4.114   5.291  13.529 -1.1251  0.5274 -0.2234
 7344TIP3   OH243446   2.081   0.806  14.604  0.3773  0.2946  0.7814
 7344TIP3    H143447   2.145   0.812  14.533  2.4956  1.9088  2.7616
 7344TIP3    H243448   2.118   0.741  14.664 -1.0706 -0.5706  0.7600
 7345TIP3   OH243449   2.882   5.025  12.572  0.0209 -0.3726  0.2334
 7345TIP3    H143450   2.875   5.121  12.564 -0.0617 -0.4699 -0.9321
 7345TIP3    H243451   2.825   5.003  12.645  0.5874  0.5524  0.9616
 7346TIP3   OH243452   5.753   2.428  12.421  0.1547 -0.1652 -0.2055
 7346TIP3    H143453   5.755   2.333  12.435  0.3088  0.0281  1.1592
 7346TIP3    H243454   5.770   2.439  12.328  3.1391 -1.3597  0.1334
 7347TIP3   OH243455   4.618   5.139   1.379  0.1277 -0.3248  0.2008
 7347TIP3    H143456   4.708   5.107   1.386 -0.4021 -1.8558  0.2019
 7347TIP3    H243457   4.597   5.131   1.286  1.4109  4.0679 -0.5955
 7348TIP3   OH243458   4.597   3.444  14.049 -0.4742 -0.0535 -0.3039
 7348TIP3    H143459   4.683   3.458  14.010 -0.7163 -1.0952 -1.2451
 7348TIP3    H243460   4.610   3.369  14.108 -0.0341  1.7053  1.8824
 7349TIP3   OH243461   5.767   4.236   1.880  0.3083  0.0806  0.0341
 7349TIP3    H143462   5.815   4.249   1.962  0.3609  0.1321 -0.0053
 7349TIP3    H243463   5.696   4.177   1.904 -1.3179  2.2557  0.7186
 7350TIP3   OH243464   4.727   4.821  15.069 -0.1896  0.3290  0.3564
 7350TIP3    H143465   4.752   4.731  15.091 -1.6604 -0.4251 -0.9031
 7350TIP3    H243466   4.637   4.829  15.099  0.2051  1.6739  1.2080
 7351TIP3   OH243467   5.517   2.193   0.872 -0.6313 -0.0251 -0.2744
 7351TIP3    H143468   5.561   2.259   0.819  1.3136 -0.8426  0.3076
 7351TIP3    H243469   5.538   2.217   0.963 -2.2582  0.1769  0.0830
 7352TIP3   OH243470   0.025   4.763  13.279  0.2850  0.0728  0.1448
 7352TIP3    H143471  -0.021   4.816  13.213 -0.3521  0.8566  1.2103
 7352TIP3    H243472  -0.043   4.707  13.317  0.9391 -1.4912 -0.9156
 7353TIP3   OH243473   1.049   6.209  13.121  0.0207 -0.1839  0.0536
 7353TIP3    H143474   1.053   6.157  13.041  0.0434  1.3936 -0.9986
 7353TIP3    H243475   1.116   6.276  13.110 -1.1360  1.1038  0.6222
 7354TIP3   OH243476   1.703   3.125   2.835 -0.1363  0.2365  0.4899
 7354TIP3    H143477   1.688   3.212   2.799 -0.4056 -0.0148 -0.0138
 7354TIP3    H243478   1.768   3.086   2.778 -1.2551 -0.5065 -0.2946
 7355TIP3   OH243479   6.155   3.803  11.915 -0.0176 -0.3305 -0.7310
 7355TIP3    H143480   6.130   3.864  11.985  1.0405  2.0460 -2.3667
 7355TIP3    H243481   6.081   3.804  11.854  0.0336 -0.6455 -0.7999
 7356TIP3   OH243482   1.108   3.305  13.264  0.0987 -0.6640  0.8855
 7356TIP3    H143483   1.172   3.310  13.334  0.8111  1.2951  0.1386
 7356TIP3    H243484   1.025   3.332  13.305  0.7093  1.4876  0.7799
 7357TIP3   OH243485   2.738   2.959  13.661 -0.0301 -0.9577 -0.1637
 7357TIP3    H143486   2.669   3.009  13.618  0.2060 -0.7137 -0.2613
 7357TIP3    H243487   2.819   2.992  13.622  0.2215 -0.3506  0.8535
 7358TIP3   OH243488   2.049   2.644  12.413 -0.5497 -0.0928  0.1958
 7358TIP3    H143489   1.983   2.711  12.399 -0.5162 -0.3946 -1.5489
 7358TIP3    H243490   2.131   2.692  12.425 -0.6768  0.2116 -0.1556
 7359TIP3   OH243491   2.824   3.226   2.044 -0.4481  0.2010 -0.4051
 7359TIP3    H143492   2.765   3.301   2.037 -2.0106 -0.6555  2.5285
 7359TIP3    H243493   2.788   3.161   1.984 -1.0345  0.6088 -0.4976
 7360TIP3   OH243494   1.600   1.613  14.304  0.4678 -0.0045  0.2990
 7360TIP3    H143495   1.643   1.577  14.227  3.4062  1.7730  1.0665
 7360TIP3    H243496   1.507   1.594  14.290  1.2476 -2.1734 -2.3194
 7361TIP3   OH243497   4.011   1.156  14.777 -0.1052 -0.2655 -0.1793
 7361TIP3    H143498   4.026   1.196  14.862  0.5572  0.3333 -0.5727
 7361TIP3    H243499   4.006   1.062  14.795 -3.0450  0.0432  0.9443
 7362TIP3   OH243500   5.675   5.456  12.914  0.0607  0.7730 -0.2554
 7362TIP3    H143501   5.659   5.367  12.946  1.6616  0.6034  0.1223
 7362TIP3    H243502   5.657   5.451  12.820  0.1727  0.0373 -0.2447
 7363TIP3   OH243503   3.435   5.164  12.205  0.0349  0.5658 -0.2167
 7363TIP3    H143504   3.355   5.164  12.153  0.1931  2.3296 -0.5059
 7363TIP3    H243505   3.413   5.112  12.283 -1.1758  0.4935 -0.5923
 7364TIP3   OH243506   0.184   6.416   1.476 -0.5215 -0.0618 -0.1501
 7364TIP3    H143507   0.121   6.389   1.410 -0.0383  0.2722 -0.7544
 7364TIP3    H243508   0.156   6.504   1.502  0.0928  0.3711 -0.9271
 7365TIP3   OH243509   0.165   6.219  13.385 -0.8108 -0.0895 -0.2029
 7365TIP3    H143510   0.145   6.127  13.371 -0.4728 -0.3843  1.1903
 7365TIP3    H243511   0.201   6.249  13.302  1.6090 -1.9108  0.1389
 7366TIP3   OH243512   2.419   3.764   0.634 -0.3003  0.1793  0.3730
 7366TIP3    H143513   2.454   3.678   0.658 -0.8496 -0.0046  0.5412
 7366TIP3    H243514   2.495   3.816   0.611 -0.0927 -0.9317 -1.5987
 7367TIP3   OH243515   4.548   4.012  13.077  0.4432  0.2702 -0.2121
 7367TIP3    H143516   4.522   4.084  13.020 -1.7030  0.6566  1.1770
 7367TIP3    H243517   4.499   3.936  13.044 -0.6267  0.4442  0.9271
 7368TIP3   OH243518   2.045   4.549   2.269  0.4323  0.0851  0.1480
 7368TIP3    H143519   2.136   4.571   2.248  0.3853 -1.5354 -1.9057
 7368TIP3    H243520   1.994   4.583   2.196 -0.4032 -0.7569  0.3238
 7369TIP3   OH243521   6.403   3.906  13.420  0.1042  0.2043  0.2275
 7369TIP3    H143522   6.392   3.835  13.357  1.3833  0.8428 -0.7291
 7369TIP3    H243523   6.454   3.868  13.491 -1.8673 -0.6948  1.2001
 7370TIP3   OH243524   5.732   4.826  12.799 -0.9769 -0.0308 -0.5865
 7370TIP3    H143525   5.801   4.888  12.823 -0.4649 -0.6364 -0.4781
 7370TIP3    H243526   5.738   4.818  12.704 -0.8387 -0.1498 -0.5674
 7371TIP3   OH243527   2.942   2.359   3.292 -0.2564  0.2094 -0.1590
 7371TIP3    H143528   2.923   2.293   3.358 -1.3134 -0.6189 -1.2779
 7371TIP3    H243529   2.860   2.408   3.283  0.5232  1.7289  0.6881
 7372TIP3   OH243530   2.512   3.283   2.091 -0.7668  0.0099  0.4791
 7372TIP3    H143531   2.540   3.337   2.165  1.3061  1.7728 -1.5226
 7372TIP3    H243532   2.426   3.317   2.068  1.0763  3.5685 -1.6482
 7373TIP3   OH243533   0.055   0.953  10.863  0.0555 -0.4566  0.1032
 7373TIP3    H143534   0.129   0.990  10.909  1.4246  0.1950 -2.5039
 7373TIP3    H243535  -0.020   1.006  10.890  0.6437 -0.6450  2.1646
 7374TIP3   OH243536   0.105   4.823  15.128  0.1110  0.3677 -0.1187
 7374TIP3    H143537   0.087   4.846  15.037 -1.3659  1.2523  0.3852
 7374TIP3    H243538   0.183   4.768  15.124 -1.4276 -1.7187 -2.1455
 7375TIP3   OH243539   5.751   6.946  12.721  0.5482 -0.2505  0.4558
 7375TIP3    H143540   5.701   7.023  12.693  1.7700  0.5612  0.4757
 7375TIP3    H243541   5.802   6.977  12.796 -0.3368 -1.5743  1.6315
 7376TIP3   OH243542   1.247   2.267  12.877 -0.2061 -0.2524 -0.0224
 7376TIP3    H143543   1.298   2.274  12.957  0.9347 -0.3866 -0.7365
 7376TIP3    H243544   1.311   2.263  12.806 -1.0509 -3.6599 -0.7036
 7377TIP3   OH243545   0.578   1.104  15.530  0.6647 -0.9683 -0.0779
 7377TIP3    H143546   0.570   1.031  15.468  0.0529 -0.8313 -0.1633
 7377TIP3    H243547   0.506   1.091  15.591 -2.0352  1.8566 -2.4852
 7378TIP3   OH243548   0.829   0.822   1.743  0.6773 -0.6104 -0.1987
 7378TIP3    H143549   0.768   0.763   1.788  2.2449 -0.0434  2.8226
 7378TIP3    H243550   0.915   0.781   1.755  1.1644 -0.3631 -2.6346
 7379TIP3   OH243551   5.609   2.125  14.577 -0.3260 -0.1702  0.4057
 7379TIP3    H143552   5.617   2.216  14.605  1.7010 -0.6224  1.3665
 7379TIP3    H243553   5.514   2.110  14.573 -0.6812  1.6850  1.1855
 7380TIP3   OH243554   1.662   6.641  14.957 -0.1496 -0.3151  0.0287
 7380TIP3    H143555   1.654   6.700  14.882  1.3507  0.5550  0.5432
 7380TIP3    H243556   1.700   6.561  14.921 -0.1379 -0.1723 -0.2751
 7381TIP3   OH243557   1.945   6.060   0.166 -0.1609 -0.0818 -0.4898
 7381TIP3    H143558   1.894   6.140   0.172 -4.3694 -2.4128 -2.8329
 7381TIP3    H243559   1.966   6.038   0.256 -2.5810  1.4259  0.4966
 7382TIP3   OH243560   4.740   5.649  14.915  0.4143  0.4300 -0.1523
 7382TIP3    H143561   4.753   5.743  14.910 -1.1380  0.6839  0.4668
 7382TIP3    H243562   4.719   5.632  15.007 -2.5712 -0.0713 -0.8746
 7383TIP3   OH243563   6.091   7.002   0.186 -0.3201 -0.5735 -0.2564
 7383TIP3    H143564   6.015   6.949   0.162  0.1587 -0.5339 -1.9306
 7383TIP3    H243565   6.134   7.021   0.103  1.5289 -0.5874  0.6670
 7384TIP3   OH243566   0.060   4.979  14.418  0.2200 -0.1990  0.5093
 7384TIP3    H143567   0.130   4.926  14.456  0.7210  0.3126  0.3099
 7384TIP3    H243568  -0.018   4.953  14.466  0.0424 -2.6983 -1.0640
 7385TIP3   OH243569   6.550   4.312   0.423  0.5069  0.2069  0.6360
 7385TIP3    H143570   6.608   4.236   0.414  1.6955  1.1243  0.3836
 7385TIP3    H243571   6.563   4.341   0.513 -0.2160 -0.0960  0.8405
 7386TIP3   OH243572   5.124   6.756   1.013 -0.3202  0.1807  0.0475
 7386TIP3    H143573   5.189   6.816   0.977 -0.7297  1.5560  1.5425
 7386TIP3    H243574   5.175   6.696   1.068  0.1716 -1.2881 -1.9613
 7387TIP3   OH243575   1.663   0.344  13.023 -0.3840 -0.1008 -0.0294
 7387TIP3    H143576   1.690   0.265  12.975 -0.5614  0.8210 -1.6918
 7387TIP3    H243577   1.583   0.318  13.068  0.0760 -1.1429  0.2021
 7388TIP3   OH243578   0.756   3.663   0.845  0.1639 -0.3376  0.1034
 7388TIP3    H143579   0.718   3.727   0.785 -2.8597 -1.5555  0.6205
 7388TIP3    H243580   0.740   3.700   0.932  0.0147 -0.9259  0.3290
 7389TIP3   OH243581   6.077   5.859   0.963 -0.3905  0.1622 -0.5380
 7389TIP3    H143582   6.087   5.953   0.982 -0.8617  0.4484 -1.6393
 7389TIP3    H243583   6.149   5.817   1.009 -0.4369  1.0264  0.3351
 7390TIP3   OH243584   5.108   3.024  14.859  0.4060  0.2220 -0.1157
 7390TIP3    H143585   5.030   3.014  14.805 -0.7791 -0.8942  1.7820
 7390TIP3    H243586   5.126   2.937  14.893  1.4088  0.8122  0.9163
 7391TIP3   OH243587   6.532   5.889   0.166 -0.0648  0.3346  0.1081
 7391TIP3    H143588   6.472   5.872   0.092  0.5881 -0.4881 -0.2415
 7391TIP3    H243589   6.478   5.876   0.244  0.2994 -3.2243 -0.1284
 7392TIP3   OH243590   1.425   3.351  13.814 -0.5834  0.2598 -0.2987
 7392TIP3    H143591   1.490   3.312  13.871  1.3114  0.4816 -2.2343
 7392TIP3    H243592   1.389   3.277  13.764  0.0691  0.4405 -1.0566
 7393TIP3   OH243593   2.145   3.738   2.108 -0.4702  0.5936  0.2156
 7393TIP3    H143594   2.136   3.714   2.201 -1.1887 -1.4598 -0.3689
 7393TIP3    H243595   2.098   3.822   2.101 -0.2954  0.8408  1.7353
 7394TIP3   OH243596   6.171   0.006   1.598  0.2440 -0.3783  0.2828
 7394TIP3    H143597   6.117   0.084   1.582  1.7140  0.5382 -0.3150
 7394TIP3    H243598   6.112  -0.055   1.642 -1.5280  0.2693 -1.1289
 7395TIP3   OH243599   6.196   5.909   2.841 -0.2462  0.2592 -0.3706
 7395TIP3    H143600   6.262   5.841   2.850  0.4813  0.6162 -2.6692
 7395TIP3    H243601   6.181   5.940   2.930  1.6764 -0.7703  0.3356
 7396TIP3   OH243602   1.616   0.780   0.969  0.3561 -0.5051  0.6116
 7396TIP3    H143603   1.560   0.736   1.033 -0.8995 -0.6194 -0.5478
 7396TIP3    H243604   1.657   0.709   0.920  0.8211 -0.4101  0.8613
 7397TIP3   OH243605   6.439   5.273  15.204  0.1560  0.1993  0.5301
 7397TIP3    H143606   6.429   5.362  15.240  0.8322  0.4681  0.0624
 7397TIP3    H243607   6.393   5.277  15.120  0.7234  0.2926  0.2193
 7398TIP3   OH243608   1.168   6.242  12.786  0.6923  0.0001 -0.0307
 7398TIP3    H143609   1.107   6.169  12.791  1.2508 -0.6006 -1.6767
 7398TIP3    H243610   1.245   6.212  12.835  1.0011 -0.6004 -0.8786
 7399TIP3   OH243611   1.587   4.076  14.642 -0.3879  0.2704  0.2548
 7399TIP3    H143612   1.599   4.102  14.733  1.1796 -0.2594  0.2106
 7399TIP3    H243613   1.510   4.020  14.642  0.8364 -1.4511  1.6027
 7400TIP3   OH243614   6.442   6.993   0.157 -0.9616 -0.1099  0.2272
 7400TIP3    H143615   6.406   6.991   0.068 -2.9463 -0.6815  1.0119
 7400TIP3    H243616   6.435   6.902   0.187  0.7617 -0.1367  0.5541
 7401TIP3   OH243617   4.620   3.168   0.976  0.0872 -0.5898  0.3074
 7401TIP3    H143618   4.616   3.079   1.011 -0.0276 -0.6622  0.1091
 7401TIP3    H243619   4.535   3.206   0.998  0.2567 -0.4201  0.6818
 7402TIP3   OH243620   1.511   1.068  10.291 -0.4945  0.0530  0.0591
 7402TIP3    H143621   1.423   1.090  10.322 -0.7847 -0.8985 -0.0523
 7402TIP3    H243622   1.534   0.989  10.341  1.2211  1.5774  1.7415
 7403TIP3   OH243623   5.977   1.930  12.792 -0.2648 -0.1808 -0.1505
 7403TIP3    H143624   5.967   1.937  12.887  3.5778  3.0346  0.1797
 7403TIP3    H243625   6.041   1.859  12.781  1.0992  1.0149 -0.1209
 7404TIP3   OH243626   1.601   6.549  14.662  0.2806  0.1891 -0.0136
 7404TIP3    H143627   1.576   6.619  14.601  0.4418  0.7017  0.4956
 7404TIP3    H243628   1.526   6.490  14.662  0.3028  0.1585 -0.7498
 7405TIP3   OH243629   6.830   4.295  13.011 -0.2046  0.3666  0.6916
 7405TIP3    H143630   6.787   4.362  13.064 -0.4118 -1.6474  3.1190
 7405TIP3    H243631   6.759   4.237  12.984  0.1389  0.4653 -0.4614
 7406TIP3   OH243632   6.861   2.996  13.011  0.2194  0.1859 -0.3618
 7406TIP3    H143633   6.924   2.974  13.080 -0.6147  2.9231  1.3573
 7406TIP3    H243634   6.898   3.073  12.968 -1.5567  1.4353  0.2443
 7407TIP3   OH243635   7.114   1.421  11.100  0.3851  0.8005 -0.0047
 7407TIP3    H143636   7.118   1.451  11.191  0.4765 -0.0349  0.2776
 7407TIP3    H243637   7.024   1.437  11.073  0.0242 -0.0626  0.6385
 7408TIP3   OH243638   0.898   1.902   0.094  0.1591 -0.0850 -0.3367
 7408TIP3    H143639   0.916   1.871   0.183 -1.0555  2.2517  0.7674
 7408TIP3    H243640   0.880   1.995   0.104  0.5634  0.3434 -3.1342
 7409TIP3   OH243641   2.429   3.780  14.192 -0.1150 -0.2500  0.4940
 7409TIP3    H143642   2.373   3.725  14.137 -0.4671  1.0594 -0.4563
 7409TIP3    H243643   2.468   3.718  14.255 -0.7831 -1.5293 -0.3295
 7410TIP3   OH243644   3.037   3.752  12.483  0.0106  0.1054  0.2797
 7410TIP3    H143645   3.018   3.758  12.577  0.2888  0.4640  0.3129
 7410TIP3    H243646   3.081   3.668  12.473 -0.8749 -0.3746  0.3184
 7411TIP3   OH243647   3.483   6.152  15.550  0.2482  0.6074  0.1441
 7411TIP3    H143648   3.462   6.224  15.610 -1.3923 -0.7698  1.2704
 7411TIP3    H243649   3.435   6.171  15.470  1.8822  2.0889 -0.5151
 7412TIP3   OH243650   1.104   3.124  14.819  0.2035  0.1354 -0.4337
 7412TIP3    H143651   1.022   3.104  14.862  0.1116  0.3923 -0.4864
 7412TIP3    H243652   1.132   3.207  14.858 -1.6747  2.2489 -3.3805
 7413TIP3   OH243653   0.551   3.030  12.372  0.1687  0.1411  0.0053
 7413TIP3    H143654   0.542   3.061  12.462  0.6293 -1.0569  0.4720
 7413TIP3    H243655   0.470   3.058  12.329 -0.5856 -0.3289  1.1070
 7414TIP3   OH243656   4.954   4.485  11.893  0.0206  0.6593 -0.2961
 7414TIP3    H143657   4.875   4.450  11.936 -0.0306  1.4083  0.2359
 7414TIP3    H243658   5.012   4.507  11.965  0.5347  0.5418 -0.6750
 7415TIP3   OH243659   5.437   3.271  15.275 -0.8167  0.1869 -0.6163
 7415TIP3    H143660   5.474   3.315  15.352  0.1537  0.7463 -1.3851
 7415TIP3    H243661   5.508   3.216  15.242 -1.1742  0.0614 -1.1867
 7416TIP3   OH243662   0.148   4.129  15.421  0.1338 -0.0988  0.2873
 7416TIP3    H143663   0.075   4.171  15.467  1.0343 -1.0052  2.6271
 7416TIP3    H243664   0.178   4.196  15.359 -2.8058  0.1871 -0.9393
 7417TIP3   OH243665   4.116   5.037  15.486 -0.1356  0.9243 -0.3090
 7417TIP3    H143666   4.198   4.989  15.475 -0.7373 -1.0166  2.9683
 7417TIP3    H243667   4.069   5.023  15.404  1.6678 -0.1458 -1.2114
 7418TIP3   OH243668   1.107   2.531  11.625  0.3750  0.1650  0.3797
 7418TIP3    H143669   1.119   2.605  11.685  2.0991 -1.0593  1.5648
 7418TIP3    H243670   1.012   2.525  11.614  0.0974  1.1408  2.0562
 7419TIP3   OH243671   4.365   6.705  14.911  0.3189  0.4718  0.5797
 7419TIP3    H143672   4.370   6.616  14.947  0.1188  1.2248  2.5409
 7419TIP3    H243673   4.356   6.692  14.817  1.0467 -1.5753  0.7599
 7420TIP3   OH243674   6.326   1.304   4.842  0.3435 -0.0206 -0.2539
 7420TIP3    H143675   6.339   1.399   4.848  0.9367 -0.1032 -0.1935
 7420TIP3    H243676   6.237   1.294   4.809  0.5126  0.5650 -0.8911
 7421TIP3   OH243677   4.416   5.148   0.563 -0.4028 -0.7197  0.2279
 7421TIP3    H143678   4.412   5.094   0.485  0.3638 -0.3530 -0.0731
 7421TIP3    H243679   4.483   5.106   0.618  0.5613  0.1911 -0.2285
 7422TIP3   OH243680   1.944   5.465  12.696  0.0141  0.4363  0.5339
 7422TIP3    H143681   1.861   5.506  12.722 -0.2854 -0.3814  0.9012
 7422TIP3    H243682   1.921   5.374  12.680  0.9224  0.1242  1.0012
 7423TIP3   OH243683   4.244   6.965   0.480  0.1485  0.2292  0.1006
 7423TIP3    H143684   4.164   7.001   0.441 -1.4568 -2.3570  0.8844
 7423TIP3    H243685   4.226   6.963   0.574  0.0228 -2.8863  0.0505
 7424TIP3   OH243686   5.886   6.221  13.102  0.5363  0.7312  0.1274
 7424TIP3    H143687   5.871   6.184  13.189 -1.2775 -2.2615 -1.3820
 7424TIP3    H243688   5.824   6.293  13.096 -1.1471 -0.6493  0.4246
 7425TIP3   OH243689   6.248   6.454   1.299  0.1983 -0.5364  0.3836
 7425TIP3    H143690   6.341   6.441   1.279 -0.4156 -2.3038 -1.4839
 7425TIP3    H243691   6.225   6.537   1.258  1.5594  1.3192  3.1819
 7426TIP3   OH243692   0.756   0.489   2.510 -0.1825  0.0479 -0.3014
 7426TIP3    H143693   0.798   0.505   2.595 -1.7501 -0.1624  0.5330
 7426TIP3    H243694   0.791   0.558   2.453  1.0468  0.0601  0.4370
 7427TIP3   OH243695   2.417   6.656   4.298  0.1970 -0.1854  0.6281
 7427TIP3    H143696   2.444   6.631   4.210  0.8745 -1.7147  1.2537
 7427TIP3    H243697   2.323   6.637   4.300  0.0313  0.5722 -0.0101
 7428TIP3   OH243698   2.734   3.354  13.371 -0.0328  0.2267  0.2054
 7428TIP3    H143699   2.823   3.327  13.392 -0.3828 -0.2447  1.1623
 7428TIP3    H243700   2.679   3.283  13.406 -0.7667  0.3897 -0.5895
 7429TIP3   OH243701   6.871   1.681  11.763  0.8873 -0.0071 -0.1956
 7429TIP3    H143702   6.922   1.711  11.688 -0.1368  2.6062  0.1103
 7429TIP3    H243703   6.917   1.715  11.839 -1.0837  2.1375  0.0975
 7430TIP3   OH243704   5.754   5.852   0.431  0.3981  0.3603 -0.3267
 7430TIP3    H143705   5.838   5.895   0.445  0.2696  1.0943 -1.7455
 7430TIP3    H243706   5.760   5.815   0.343 -0.2503 -0.7834  0.0947
 7431TIP3   OH243707   0.764   2.681  11.095  0.1255  0.2920 -0.3779
 7431TIP3    H143708   0.799   2.624  11.163 -0.7016 -0.0254 -0.2050
 7431TIP3    H243709   0.703   2.739  11.141 -0.1473  0.3355 -0.7847
 7432TIP3   OH243710   4.864   3.996  12.279 -0.1482  0.1912 -0.2387
 7432TIP3    H143711   4.926   4.053  12.325 -2.6796  3.3007 -0.4645
 7432TIP3    H243712   4.856   3.919  12.334  2.1924  0.7301  0.9225
 7433TIP3   OH243713   2.049   1.416  13.023 -0.0580  0.1524  0.0682
 7433TIP3    H143714   2.083   1.457  13.102  0.9777 -0.5567  0.0178
 7433TIP3    H243715   2.121   1.424  12.960 -0.0909 -1.0856 -0.1498
 7434TIP3   OH243716   5.640   1.543  15.382  1.0297 -0.2431  0.4575
 7434TIP3    H143717   5.704   1.490  15.429  2.9826 -1.1901 -3.0723
 7434TIP3    H243718   5.606   1.484  15.314 -0.9692  1.3402  0.0274
 7435TIP3   OH243719   4.956   5.971  10.431 -0.5456  0.1676  0.5009
 7435TIP3    H143720   5.000   5.934  10.354 -0.8364  0.3854  0.2297
 7435TIP3    H243721   5.005   6.051  10.450  1.4677 -1.4338  2.4008
 7436TIP3   OH243722   2.447   2.869  15.402 -0.0221  0.1646 -0.3079
 7436TIP3    H143723   2.456   2.792  15.345 -1.9376 -2.0453  2.2603
 7436TIP3    H243724   2.353   2.878  15.417  0.2266  2.5978  0.0559
 7437TIP3   OH243725   4.169   0.401   2.808  0.8254 -0.0820  0.2455
 7437TIP3    H143726   4.148   0.310   2.829  2.0253 -0.2709  0.6517
 7437TIP3    H243727   4.231   0.428   2.876  2.5482  0.1942 -1.4062
 7438TIP3   OH243728   2.835   5.554  12.144 -0.2065 -0.3055 -0.0274
 7438TIP3    H143729   2.829   5.469  12.189 -0.7496  0.2043  0.8886
 7438TIP3    H243730   2.873   5.613  12.209  2.3909 -0.3602 -1.4286
 7439TIP3   OH243731   5.718   0.532   0.417  0.0748 -0.2765 -0.3712
 7439TIP3    H143732   5.667   0.545   0.337  0.4873 -1.7350 -0.8867
 7439TIP3    H243733   5.656   0.493   0.478 -0.1790  0.6261 -0.0457
 7440TIP3   OH243734   7.066   4.517  15.157 -0.1577  0.0398  0.4843
 7440TIP3    H143735   7.030   4.519  15.069  2.3139 -0.9286 -0.6041
 7440TIP3    H243736   7.085   4.609  15.178  1.8491  0.0345 -1.1543
 7441TIP3   OH243737   1.090   1.135  15.281  0.0817 -0.2651  0.1306
 7441TIP3    H143738   1.077   1.103  15.191 -2.5898  1.6889 -0.2616
 7441TIP3    H243739   1.168   1.190  15.276  0.1046 -0.3810 -0.9283
 7442TIP3   OH243740   1.654   2.837  15.489  0.3825  0.5583 -0.4216
 7442TIP3    H143741   1.600   2.912  15.463 -0.8528 -0.4274 -0.7106
 7442TIP3    H243742   1.656   2.841  15.585 -0.9297  0.1068 -0.3649
 7443TIP3   OH243743   1.568   3.642   0.158 -0.4498  0.2758 -0.0641
 7443TIP3    H143744   1.479   3.621   0.184 -0.4436  1.8840  1.3688
 7443TIP3    H243745   1.585   3.588   0.081 -2.6095 -0.1264 -0.2662
 7444TIP3   OH243746   0.238   4.243  12.061 -0.8844 -0.5940 -0.0887
 7444TIP3    H143747   0.251   4.155  12.027 -0.6774 -0.4175 -0.4725
 7444TIP3    H243748   0.310   4.294  12.023 -0.6229 -0.4017  0.6433
 7445TIP3   OH243749   5.959   3.273  14.381 -0.4229 -0.3150  0.2459
 7445TIP3    H143750   5.984   3.201  14.322 -0.8732  0.3768 -0.8149
 7445TIP3    H243751   5.866   3.286  14.365 -0.1285  1.1762 -0.3335
 7446TIP3   OH243752   1.736   3.081  11.590  0.2095 -0.1991  0.0166
 7446TIP3    H143753   1.736   2.989  11.618 -0.5653 -0.3918 -0.6107
 7446TIP3    H243754   1.822   3.095  11.552 -0.3205 -1.1762 -1.5534
 7447TIP3   OH243755   2.717   1.618  15.062  0.1985  0.7551  0.3715
 7447TIP3    H143756   2.786   1.631  14.998 -0.8850 -2.7660 -1.6860
 7447TIP3    H243757   2.755   1.558  15.127 -0.2161  0.5258  0.4079
 7448TIP3   OH243758   1.948   1.373   4.844  0.4133 -0.0025  0.2811
 7448TIP3    H143759   2.018   1.308   4.835  1.0558  0.9406 -1.8010
 7448TIP3    H243760   1.993   1.457   4.845 -0.6761  0.6154 -1.0371
 7449TIP3   OH243761   2.596   5.193   2.175  0.1235  0.5689 -0.1577
 7449TIP3    H143762   2.566   5.123   2.233 -1.5337  1.7486  0.4581
 7449TIP3    H243763   2.664   5.239   2.224  0.8797 -0.3235 -0.3747
 7450TIP3   OH243764   3.553   5.397   0.231 -0.8114  0.1537 -0.5174
 7450TIP3    H143765   3.565   5.488   0.258  0.6776  0.6544 -2.6705
 7450TIP3    H243766   3.458   5.388   0.218 -1.2612  0.6176  2.1814
 7451TIP3   OH243767   6.385   4.433  12.446 -0.5208 -0.3166 -0.9570
 7451TIP3    H143768   6.397   4.519  12.486 -1.4720 -0.4962 -0.2703
 7451TIP3    H243769   6.399   4.447  12.352  1.8086  0.0920 -0.5693
 7452TIP3   OH243770   0.057   0.110  11.933 -0.4757  0.0257  0.7427
 7452TIP3    H143771   0.091   0.105  11.844 -1.7169 -0.9439  0.3023
 7452TIP3    H243772   0.069   0.201  11.959  1.0009  0.0338  0.0280
 7453TIP3   OH243773   4.640   5.775   0.294  0.3590  0.1330 -0.1436
 7453TIP3    H143774   4.710   5.731   0.343  0.2450 -0.5570 -0.5836
 7453TIP3    H243775   4.562   5.765   0.349  0.4277  0.1529 -0.0436
 7454TIP3   OH243776   2.082   3.454   1.287 -0.5124  0.0460  1.0316
 7454TIP3    H143777   2.053   3.543   1.269  2.0999  0.4882 -1.2334
 7454TIP3    H243778   2.136   3.462   1.366  1.4429  0.8510 -0.3589
 7455TIP3   OH243779   0.596   2.709   3.350 -0.6044 -0.4697 -0.1178
 7455TIP3    H143780   0.616   2.753   3.267 -1.1563 -0.0013 -0.0066
 7455TIP3    H243781   0.680   2.706   3.396 -0.6310  0.8247  0.0355
 7456TIP3   OH243782   1.073   0.753  12.806 -0.0351  0.0761 -0.2350
 7456TIP3    H143783   1.069   0.658  12.795 -2.6125  0.3473 -2.0885
 7456TIP3    H243784   0.988   0.776  12.845  1.6606  1.3320  2.8618
 7457TIP3   OH243785   6.922   1.496   0.727 -0.1171 -0.4986 -0.4291
 7457TIP3    H143786   7.007   1.464   0.698  0.2562  0.4101 -0.3520
 7457TIP3    H243787   6.929   1.499   0.822  0.1465  0.6244 -0.4814
 7458TIP3   OH243788   2.611   5.979  14.987 -0.0441 -0.2061  0.3755
 7458TIP3    H143789   2.618   5.912  15.055  1.7228 -0.2070  0.2132
 7458TIP3    H243790   2.585   6.058  15.035  2.0842  0.0139  1.2391
 7459TIP3   OH243791   7.073   4.755  11.592  0.0085 -0.0636 -0.0616
 7459TIP3    H143792   7.036   4.783  11.508 -0.0791  1.1903  0.3883
 7459TIP3    H243793   7.005   4.700  11.631 -0.2545 -0.0306 -0.4762
 7460TIP3   OH243794   6.010   4.278  12.367 -0.3472  0.2638 -0.6995
 7460TIP3    H143795   6.087   4.294  12.313 -0.2049  1.1053 -0.2646
 7460TIP3    H243796   5.948   4.346  12.340  0.5412  2.1379  1.7147
 7461TIP3   OH243797   2.338   5.122   1.237 -0.4398 -0.1567  0.2809
 7461TIP3    H143798   2.416   5.170   1.268  2.0838 -3.5794 -0.5549
 7461TIP3    H243799   2.293   5.097   1.318 -0.0206  0.7634  0.8188
 7462TIP3   OH243800   4.966   3.177  12.051  0.4124 -0.0240  0.8792
 7462TIP3    H143801   4.991   3.103  11.996 -0.4367  0.1062  0.3274
 7462TIP3    H243802   5.043   3.234  12.050  0.6033 -0.2887  0.2847
 7463TIP3   OH243803   3.430   4.907  12.735  0.1697 -0.1542  0.0606
 7463TIP3    H143804   3.339   4.920  12.760  0.4728 -1.1967  1.8307
 7463TIP3    H243805   3.477   4.980  12.774  0.1991 -0.0368 -0.1942
 7464TIP3   OH243806   6.705   3.138  10.783 -0.1352  0.1800  0.4351
 7464TIP3    H143807   6.749   3.210  10.737  0.4757  0.4441  1.4248
 7464TIP3    H243808   6.630   3.179  10.826 -1.3590 -0.2631 -1.2173
 7465TIP3   OH243809   2.174   6.492  13.841 -0.4042 -0.0051  0.3111
 7465TIP3    H143810   2.119   6.512  13.766 -1.6079 -0.4534  1.0586
 7465TIP3    H243811   2.232   6.568  13.849 -0.9978  0.5325 -0.4048
 7466TIP3   OH243812   1.784   3.217   0.964 -0.3701  0.1740  0.2809
 7466TIP3    H143813   1.858   3.244   0.910  0.2858 -2.6743 -0.3427
 7466TIP3    H243814   1.823   3.200   1.050 -0.7166  0.9352  0.5878
 7467TIP3   OH243815   0.154   6.021  12.641 -0.7898 -0.0655 -0.1377
 7467TIP3    H143816   0.077   6.062  12.602 -1.7533 -1.4116  0.3137
 7467TIP3    H243817   0.216   6.093  12.655 -2.6151  1.2869  1.0980
 7468TIP3   OH243818   6.560   2.594  13.665 -0.5623 -0.8861 -0.0934
 7468TIP3    H143819   6.570   2.677  13.619 -1.2918  0.3543  1.9590
 7468TIP3    H243820   6.640   2.585  13.717 -1.0207 -0.8525  0.6326
 7469TIP3   OH243821   6.584   5.573  14.118 -0.6893  0.0768  0.0880
 7469TIP3    H143822   6.656   5.548  14.060  0.3759  0.4437  1.2322
 7469TIP3    H243823   6.582   5.668  14.113 -1.7980  0.0048 -0.7740
 7470TIP3   OH243824   5.599   3.367  13.604 -0.0674  0.0580 -0.1021
 7470TIP3    H143825   5.516   3.400  13.640 -0.5699 -0.0542 -1.1433
 7470TIP3    H243826   5.593   3.272  13.614  0.8285  0.1752  1.7081
 7471TIP3   OH243827   0.082   6.829  14.051  0.0577 -0.0172  0.3683
 7471TIP3    H143828   0.134   6.858  13.976  2.0487  0.6425  1.9579
 7471TIP3    H243829   0.110   6.738  14.065 -0.6490 -0.2890  0.0528
 7472TIP3   OH243830   5.213   5.451  12.582  0.8179 -0.1573  0.1775
 7472TIP3    H143831   5.247   5.528  12.628  1.0190  0.1317 -0.4515
 7472TIP3    H243832   5.291   5.405  12.550  0.7622 -1.2776  1.5751
 7473TIP3   OH243833   4.129   5.161  13.959 -0.2119 -0.5964 -0.1519
 7473TIP3    H143834   4.156   5.074  13.988 -1.0361 -0.6867  0.3801
 7473TIP3    H243835   4.165   5.221  14.025 -1.6069 -0.7503  0.7654
 7474TIP3   OH243836   0.357   3.775  13.234  0.3030 -0.3176 -0.1763
 7474TIP3    H143837   0.416   3.829  13.181  1.4980  0.9569  2.3613
 7474TIP3    H243838   0.410   3.748  13.309 -0.8012 -3.6110 -0.4969
 7475TIP3   OH243839   3.797   0.719   3.100  0.2857  0.6280 -0.0363
 7475TIP3    H143840   3.791   0.754   3.011  1.4004  0.4358 -0.1905
 7475TIP3    H243841   3.811   0.796   3.155  0.4935  0.6594 -0.1312
 7476TIP3   OH243842   2.314   5.450   2.814 -0.8058 -0.4219 -0.2997
 7476TIP3    H143843   2.301   5.497   2.731  0.6458  0.6642  0.0751
 7476TIP3    H243844   2.231   5.462   2.861 -0.5905  1.4581 -0.3672
 7477TIP3   OH243845   0.498   5.718  15.352 -0.2359 -0.4442 -0.3204
 7477TIP3    H143846   0.425   5.773  15.324  1.5263  2.3810  0.4751
 7477TIP3    H243847   0.565   5.731  15.285  0.1839 -1.7049 -0.1569
 7478TIP3   OH243848   4.278   2.904  14.159  0.2856  0.4818 -0.2466
 7478TIP3    H143849   4.287   2.829  14.100  2.1401  0.1232  0.4729
 7478TIP3    H243850   4.225   2.872  14.231 -2.0435  0.9353 -1.6802
 7479TIP3   OH243851   6.263   4.801  11.823  0.4158  0.5439  0.3924
 7479TIP3    H143852   6.182   4.765  11.859 -1.4872  2.2718 -1.9179
 7479TIP3    H243853   6.286   4.873  11.882  0.2036  0.1355  0.9777
 7480TIP3   OH243854   0.907   0.635   1.178  0.2193  0.6964 -0.5043
 7480TIP3    H143855   0.984   0.692   1.179 -0.5937  1.7951 -0.1448
 7480TIP3    H243856   0.941   0.549   1.153  2.1455  0.3097  3.0974
 7481TIP3   OH243857   2.627   6.609   1.157  0.4485  0.3246 -0.8148
 7481TIP3    H143858   2.656   6.646   1.074 -1.0734  2.1079 -0.5723
 7481TIP3    H243859   2.640   6.680   1.220  3.3048 -1.5705  0.8713
 7482TIP3   OH243860   1.881   2.179  14.895  0.0716 -0.4660 -0.0893
 7482TIP3    H143861   1.858   2.152  14.806  0.2179 -1.3529  0.1352
 7482TIP3    H243862   1.950   2.244  14.884  0.2263 -0.7220 -0.6216
 7483TIP3   OH243863   0.312   2.493  13.328 -0.5376 -0.2991  0.0601
 7483TIP3    H143864   0.351   2.490  13.415 -0.6747 -0.1700  0.1257
 7483TIP3    H243865   0.337   2.410  13.287 -1.4946 -0.8847  0.6552
 7484TIP3   OH243866   6.689   7.116  14.925 -0.4033  0.6734  0.2466
 7484TIP3    H143867   6.766   7.151  14.880 -1.8146  1.4614 -1.5737
 7484TIP3    H243868   6.726   7.068  15.000  1.9823 -0.4813 -1.5855
 7485TIP3   OH243869   6.681   1.910   0.283 -0.7199 -0.6852  0.0378
 7485TIP3    H143870   6.610   1.949   0.334 -1.1427 -0.0728 -0.9960
 7485TIP3    H243871   6.750   1.976   0.283 -0.8749 -0.5165 -0.4952
 7486TIP3   OH243872   3.454   3.850  15.319  0.1651 -0.4035 -0.1048
 7486TIP3    H143873   3.483   3.835  15.409 -1.3485  1.7092  0.7924
 7486TIP3    H243874   3.455   3.946  15.310  1.8611 -0.6235 -2.8809
 7487TIP3   OH243875   2.542   0.827  13.620  0.0361  0.2106  0.0052
 7487TIP3    H143876   2.448   0.837  13.634  0.2512  0.8298  1.0632
 7487TIP3    H243877   2.550   0.783  13.535 -1.1809  0.7354 -0.3765
 7488TIP3   OH243878   5.628   3.145  15.110 -0.0858  0.9681 -0.0377
 7488TIP3    H143879   5.686   3.072  15.088 -0.2628  0.8643 -0.1666
 7488TIP3    H243880   5.686   3.218  15.128  0.1984  0.2508  2.1469
 7489TIP3   OH243881   3.818   5.421  12.280 -0.5070  0.3784  0.2673
 7489TIP3    H143882   3.882   5.420  12.208 -1.2958  1.2319 -0.4425
 7489TIP3    H243883   3.829   5.507  12.320 -2.4736  1.2538 -1.0048
 7490TIP3   OH243884   5.002   6.287  14.789 -0.0991 -0.3844 -1.2859
 7490TIP3    H143885   5.031   6.332  14.869  0.0802 -0.6029 -1.2300
 7490TIP3    H243886   4.912   6.260  14.808 -0.5939  0.9081 -1.7107
 7491TIP3   OH243887   3.040   0.933  12.400 -0.3650 -0.1578 -0.0924
 7491TIP3    H143888   3.059   1.027  12.401  0.6287 -0.3558  0.0448
 7491TIP3    H243889   2.949   0.928  12.373 -0.0584  0.8002 -1.3659
 7492TIP3   OH243890   1.279   3.938  13.912 -0.2391 -0.4240  0.5409
 7492TIP3    H143891   1.364   3.982  13.906 -0.7005  0.5138  0.9089
 7492TIP3    H243892   1.227   3.993  13.969 -1.7230 -0.0197 -1.1651
 7493TIP3   OH243893   2.088   4.771  15.088  0.2113 -0.0919  0.0898
 7493TIP3    H143894   2.111   4.812  15.171  0.3453  0.5282 -0.2436
 7493TIP3    H243895   2.101   4.678  15.102  0.1962  0.0092  0.7754
 7494TIP3   OH243896   4.382   3.540  12.105  0.1339 -0.3570  0.2121
 7494TIP3    H143897   4.364   3.455  12.145  4.0304 -1.6541 -0.5921
 7494TIP3    H243898   4.440   3.521  12.032  0.7911  2.9899 -0.2314
 7495TIP3   OH243899   4.459   4.581  14.383  0.1142  0.6741 -0.1311
 7495TIP3    H143900   4.505   4.619  14.308  0.1826  1.1979  0.1736
 7495TIP3    H243901   4.469   4.487  14.371  1.4633  0.7756  0.0433
 7496TIP3   OH243902   4.849   2.442  13.705 -0.4721  0.0275 -0.1108
 7496TIP3    H143903   4.798   2.523  13.713 -0.3428  0.3220 -1.8819
 7496TIP3    H243904   4.901   2.455  13.626  0.0571 -1.5194 -0.0328
 7497TIP3   OH243905   2.685   1.806  15.334 -0.0595  0.2045 -0.4458
 7497TIP3    H143906   2.628   1.864  15.283  0.2162 -0.6344 -1.7059
 7497TIP3    H243907   2.734   1.756  15.269  1.1508 -0.0433  0.6344
 7498TIP3   OH243908   0.256   5.242  13.704 -0.5963 -0.3858 -0.2935
 7498TIP3    H143909   0.312   5.312  13.736  0.2721 -0.3724 -1.7754
 7498TIP3    H243910   0.203   5.283  13.635 -1.8283 -0.6081  0.4958
 7499TIP3   OH243911   5.847   1.287  13.912  0.0666 -0.0043 -1.3032
 7499TIP3    H143912   5.762   1.324  13.888 -0.6653 -0.8638 -0.0850
 7499TIP3    H243913   5.904   1.362  13.920 -1.3545  0.8918  0.9240
 7500TIP3   OH243914   6.288   6.635  14.912  0.1896  0.1522 -0.0438
 7500TIP3    H143915   6.196   6.660  14.926  0.1728  0.3006 -0.4046
 7500TIP3    H243916   6.325   6.708  14.863  0.7215  0.4702  0.8306
 7501TIP3   OH243917   3.480   2.114   0.674  0.6757 -0.3223 -0.0468
 7501TIP3    H143918   3.429   2.128   0.753  0.3492 -2.3689  0.1454
 7501TIP3    H243919   3.422   2.141   0.603  0.2488 -0.2796  0.3123
 7502TIP3   OH243920   3.802   5.535   3.451 -0.1669 -0.2108  0.3228
 7502TIP3    H143921   3.765   5.612   3.496  0.3035  0.7393 -0.8795
 7502TIP3    H243922   3.826   5.475   3.521  1.3911  1.6247  1.4033
 7503TIP3   OH243923   5.890   2.743   2.170  0.0475  0.0758 -0.2985
 7503TIP3    H143924   5.899   2.814   2.234  0.3772 -0.6320  0.4503
 7503TIP3    H243925   5.798   2.746   2.143 -0.0641  0.4565  0.1285
 7504TIP3   OH243926   6.945   1.078   0.117 -0.2438 -0.3690 -0.2301
 7504TIP3    H143927   6.891   1.141   0.069 -1.2781  0.0637  1.4758
 7504TIP3    H243928   6.932   0.995   0.071  1.2933  0.6523 -2.6366
 7505TIP3   OH243929   6.688   4.328  13.420 -0.2472  0.0731  0.0866
 7505TIP3    H143930   6.772   4.289  13.442  0.7350  1.6725 -0.7358
 7505TIP3    H243931   6.624   4.259  13.436  1.1513 -0.9477  1.3356
 7506TIP3   OH243932   2.576   5.979  10.780 -0.4411  0.5786  0.0705
 7506TIP3    H143933   2.603   5.985  10.688 -0.9188 -0.8207 -0.1673
 7506TIP3    H243934   2.487   6.015  10.780 -1.3349 -1.5943 -0.4381
 7507TIP3   OH243935   1.511   6.455   1.477 -0.0782 -0.1989 -0.0739
 7507TIP3    H143936   1.564   6.465   1.556 -0.0514  0.3750 -0.1625
 7507TIP3    H243937   1.457   6.378   1.495  0.1675 -0.2767  0.3645
 7508TIP3   OH243938   1.153   5.921   3.355 -0.4375 -0.5322 -0.5694
 7508TIP3    H143939   1.207   5.861   3.407 -3.0789 -2.5770 -0.0416
 7508TIP3    H243940   1.191   5.918   3.267  1.7762 -0.0010  0.3540
 7509TIP3   OH243941   3.697   1.850  15.387  0.7670  0.0897  0.0072
 7509TIP3    H143942   3.622   1.874  15.441  0.6719  0.6976 -0.3819
 7509TIP3    H243943   3.763   1.820  15.449  0.3245 -0.1294  0.3803
 7510TIP3   OH243944   3.208   5.644  12.788  0.3527  0.6724  1.0626
 7510TIP3    H143945   3.208   5.709  12.858  0.4603  1.9074 -0.0710
 7510TIP3    H243946   3.301   5.629  12.769  0.3310  0.0643  1.4363
 7511TIP3   OH243947   5.227   2.807  12.882 -0.1719  0.4933 -0.3580
 7511TIP3    H143948   5.299   2.751  12.852 -1.1886 -0.5602 -0.9120
 7511TIP3    H243949   5.269   2.876  12.933  1.1485 -0.5917  0.0544
 7512TIP3   OH243950   2.160   1.543  13.223  0.1571 -0.0423  0.5577
 7512TIP3    H143951   2.125   1.632  13.224 -0.2203 -0.1958  1.9617
 7512TIP3    H243952   2.217   1.539  13.300 -1.7567 -1.7643  1.9358
 7513TIP3   OH243953   6.022   3.075   0.567  0.2916  0.0544  0.4080
 7513TIP3    H143954   6.061   3.162   0.553  0.5399 -0.1828 -0.4575
 7513TIP3    H243955   5.938   3.093   0.609  0.0259  0.7721 -0.3876
 7514TIP3   OH243956   2.142   6.828  12.582  0.1283  0.0434  0.1786
 7514TIP3    H143957   2.144   6.886  12.505 -0.7933  1.2719  1.0599
 7514TIP3    H243958   2.116   6.885  12.654  0.2613 -1.2604  1.2710
 7515TIP3   OH243959   5.250   2.321  11.223 -0.1331 -0.5116  0.3666
 7515TIP3    H143960   5.245   2.226  11.212  2.1938 -0.5734 -0.3140
 7515TIP3    H243961   5.260   2.356  11.135 -1.4917  0.4360  0.5613
 7516TIP3   OH243962   6.486   6.604  13.912  0.5453  0.5466  0.3458
 7516TIP3    H143963   6.552   6.583  13.978  0.4675 -1.5394 -0.2037
 7516TIP3    H243964   6.403   6.600  13.959  0.6074  0.6178  0.4619
 7517TIP3   OH243965   3.904   1.790  11.207 -0.2719  0.3849  0.4480
 7517TIP3    H143966   3.880   1.699  11.191 -0.3325  0.5381 -0.3545
 7517TIP3    H243967   3.976   1.807  11.146 -0.0767  0.7912  0.7916
 7518TIP3   OH243968   1.988   5.865  12.707  0.2758 -0.1355 -0.2621
 7518TIP3    H143969   1.899   5.831  12.702  0.0249  0.4936 -0.1462
 7518TIP3    H243970   1.981   5.943  12.763  1.0590 -0.6044  0.4921
 7519TIP3   OH243971   0.369   0.614  13.259 -0.1526  0.1800 -0.9199
 7519TIP3    H143972   0.299   0.550  13.249 -0.6811  0.6461 -0.2477
 7519TIP3    H243973   0.449   0.563  13.259 -0.4724 -0.3293 -2.0438
 7520TIP3   OH243974   0.362   0.248  14.787 -0.0297 -0.9464  0.0797
 7520TIP3    H143975   0.416   0.211  14.857  0.1362  1.7582  1.4673
 7520TIP3    H243976   0.424   0.295  14.732 -0.2373 -2.6283 -1.6206
 7521TIP3   OH243977   2.816   3.641  13.099 -0.3314  0.2192 -0.0637
 7521TIP3    H143978   2.887   3.578  13.108  0.6997  1.4240  0.3843
 7521TIP3    H243979   2.769   3.614  13.020  1.2360  0.0084 -0.9352
 7522TIP3   OH243980   6.494   6.668  13.303 -0.3729  0.0236  0.0108
 7522TIP3    H143981   6.439   6.599  13.267 -0.0223 -0.8769  1.1732
 7522TIP3    H243982   6.580   6.628  13.314 -0.2509  0.5301  0.9921
 7523TIP3   OH243983   1.723   0.028   0.313  0.3446  0.3186 -0.0635
 7523TIP3    H143984   1.629   0.014   0.327  0.2517 -0.6147 -1.4166
 7523TIP3    H243985   1.741  -0.019   0.231  1.7443  1.5172 -0.4589
 7524TIP3   OH243986   2.289   5.852  13.730 -0.7820 -0.0424  0.0950
 7524TIP3    H143987   2.256   5.925  13.782 -1.7924 -0.2355 -0.2518
 7524TIP3    H243988   2.330   5.794  13.794  3.6273  2.6679 -0.0759
 7525TIP3   OH243989   5.734   3.625  15.237  0.9508  0.0240 -0.0957
 7525TIP3    H143990   5.739   3.535  15.204  1.2502  0.5083 -1.3793
 7525TIP3    H243991   5.788   3.676  15.177 -0.7048  1.3835 -0.4765
 7526TIP3   OH243992   4.039   6.567   1.054 -0.0756  0.6571  0.2939
 7526TIP3    H143993   4.085   6.646   1.083 -1.0935  1.6390 -0.6876
 7526TIP3    H243994   3.953   6.599   1.025 -0.6400 -0.8688  0.2385
 7527TIP3   OH243995   5.638   2.784   9.708 -0.2478 -0.5127  0.2136
 7527TIP3    H143996   5.606   2.815   9.623  0.1120 -4.4401 -1.4206
 7527TIP3    H243997   5.727   2.817   9.713 -0.7357  0.9417 -0.2389
 7528TIP3   OH243998   3.208   0.247   0.249  0.0225 -0.0601  0.2702
 7528TIP3    H143999   3.283   0.259   0.191  0.2862 -0.4745  0.5264
 7528TIP3    H244000   3.205   0.326   0.302  0.7120 -0.3542  0.7538
 7529TIP3   OH244001   2.301   6.110  13.789  0.4009  0.4411 -0.6054
 7529TIP3    H144002   2.396   6.110  13.778  0.5188 -0.2012  0.3152
 7529TIP3    H244003   2.288   6.116  13.884 -0.4861  1.1310 -0.7644
 7530TIP3   OH244004   1.639   4.915  13.316 -0.4236 -0.4501 -0.0388
 7530TIP3    H144005   1.635   4.822  13.293  0.0843 -0.0874 -1.6850
 7530TIP3    H244006   1.732   4.936  13.315 -0.5135 -0.0115  0.7034
 7531TIP3   OH244007   3.116   5.421  14.521  0.1178  0.1272  0.4418
 7531TIP3    H144008   3.180   5.468  14.573  0.3201  0.6387 -0.2599
 7531TIP3    H244009   3.031   5.449  14.555  0.2533 -1.4594  2.1737
 7532TIP3   OH244010   1.098   5.798  13.486  0.1051 -0.3356  0.2832
 7532TIP3    H144011   1.140   5.874  13.525  0.5655 -0.6558  0.4100
 7532TIP3    H244012   1.155   5.773  13.413 -1.6886  1.3780 -1.7764
 7533TIP3   OH244013   7.110   3.744  13.383 -0.0510 -0.5193  0.7501
 7533TIP3    H144014   7.127   3.653  13.358 -1.2177 -0.8916  1.2828
 7533TIP3    H244015   7.089   3.788  13.301  2.5770 -0.2269  0.1778
 7534TIP3   OH244016   4.671   0.882  14.260  0.3407 -0.2700  0.5470
 7534TIP3    H144017   4.694   0.790  14.272 -1.0633 -0.9048 -1.4021
 7534TIP3    H244018   4.754   0.927  14.246  0.8221 -1.7716 -1.6667
 7535TIP3   OH244019   0.181   3.582  13.811  0.3047 -0.1906  0.3664
 7535TIP3    H144020   0.191   3.583  13.716  0.2863 -0.1543  0.3658
 7535TIP3    H244021   0.140   3.497  13.830  0.8356 -0.4449  0.3931
 7536TIP3   OH244022   4.013   6.572   1.470  0.1726  0.4032  0.3714
 7536TIP3    H144023   3.972   6.533   1.547 -0.5726 -0.0249 -0.2283
 7536TIP3    H244024   3.940   6.590   1.411  0.6276  1.7179  0.1961
 7537TIP3   OH244025   5.365   4.417   0.608 -0.2574  0.2406  0.2446
 7537TIP3    H144026   5.366   4.452   0.518  1.2973 -0.3187  0.0222
 7537TIP3    H244027   5.280   4.375   0.616 -0.0145 -0.6245 -1.3596
 7538TIP3   OH244028   0.648   0.076   0.199  0.0432  0.1618 -0.3013
 7538TIP3    H144029   0.603  -0.000   0.164  1.5113  0.1496 -2.2131
 7538TIP3    H244030   0.696   0.043   0.275 -0.2114 -0.5880 -0.4685
 7539TIP3   OH244031   4.858   4.848  14.355 -0.2064 -0.0584 -0.5028
 7539TIP3    H144032   4.797   4.838  14.429  0.7439  0.4919  0.3760
 7539TIP3    H244033   4.890   4.759  14.338  2.6947  0.2852  2.5017
 7540TIP3   OH244034   1.668   7.075  15.050  0.2617  0.0909  0.4727
 7540TIP3    H144035   1.708   7.082  15.136 -1.3061 -0.2190  1.2406
 7540TIP3    H244036   1.584   7.120  15.058 -0.0818 -0.2866 -0.7687
 7541TIP3   OH244037   4.409   2.207  15.389 -0.1285 -0.7652  0.7713
 7541TIP3    H144038   4.335   2.202  15.449 -0.3042 -1.4324  0.5151
 7541TIP3    H244039   4.482   2.239  15.442 -0.5336 -0.3771  1.0940
 7542TIP3   OH244040   3.331   6.946  10.757  0.0366  0.0867 -0.3417
 7542TIP3    H144041   3.292   6.909  10.837 -1.5130 -0.8849 -1.5281
 7542TIP3    H244042   3.331   6.874  10.695  1.7607  0.6968 -1.0636
 7543TIP3   OH244043   6.887   5.794  14.221  0.6871 -0.0797  0.0248
 7543TIP3    H144044   6.924   5.722  14.273 -1.1138 -0.9649  0.1328
 7543TIP3    H244045   6.959   5.855  14.210  2.1521 -1.7268  0.2716
 7544TIP3   OH244046   1.964   6.028  14.156 -0.2583  0.2750 -0.7739
 7544TIP3    H144047   1.977   6.109  14.108 -1.8117  0.1172 -1.4874
 7544TIP3    H244048   1.981   6.051  14.248 -0.5100  1.3430 -0.9923
 7545TIP3   OH244049   3.391   3.323  13.669  0.3397 -0.2932 -0.1705
 7545TIP3    H144050   3.414   3.233  13.648  2.4942  0.3854 -0.8388
 7545TIP3    H244051   3.469   3.374  13.646 -0.8804  1.7534  0.0878
 7546TIP3   OH244052   4.808   2.247  15.475 -0.0572 -0.0061  0.9934
 7546TIP3    H144053   4.803   2.165  15.524 -1.1902  0.3695  1.5029
 7546TIP3    H244054   4.723   2.288  15.488 -0.0087  0.5769 -0.4496
 7547TIP3   OH244055   3.546   5.674  14.739 -0.5614  0.2745 -0.6218
 7547TIP3    H144056   3.614   5.736  14.715 -0.1793  0.5557  1.1564
 7547TIP3    H244057   3.508   5.709  14.820 -1.8549 -0.6265 -0.8138
 7548TIP3   OH244058   3.027   3.772   9.778 -0.1777 -0.2836 -0.0354
 7548TIP3    H144059   3.010   3.858   9.818  0.4289  0.0243 -0.4318
 7548TIP3    H244060   3.057   3.793   9.689 -0.6165 -0.9324 -0.3384
 7549TIP3   OH244061   1.157   5.382   1.763  0.2729 -0.5254  0.0890
 7549TIP3    H144062   1.127   5.355   1.850 -2.2239  0.1405 -0.5125
 7549TIP3    H244063   1.215   5.456   1.779 -2.8527  1.8367  1.0892
 7550TIP3   OH244064   3.441   0.193   2.107 -0.2557  0.3244 -0.4201
 7550TIP3    H144065   3.364   0.152   2.144  0.3243 -1.3554 -1.0243
 7550TIP3    H244066   3.472   0.131   2.041  1.4394  1.0891 -0.3796
 7551TIP3   OH244067   0.297   1.907  14.034  0.5608  0.2655  0.3573
 7551TIP3    H144068   0.292   1.817  14.001 -0.9031  0.2462  0.6184
 7551TIP3    H244069   0.309   1.960  13.955 -1.3277  0.0729 -0.0821
 7552TIP3   OH244070   4.428   4.258  14.034  0.1526 -0.0780  0.3429
 7552TIP3    H144071   4.382   4.265  14.118  1.8124  0.9870  1.1951
 7552TIP3    H244072   4.487   4.184  14.044  2.3051  1.6997  1.1164
 7553TIP3   OH244073   1.379   6.689  10.678  0.3860 -0.2985  0.0400
 7553TIP3    H144074   1.379   6.769  10.625 -0.9568 -1.2159 -1.3761
 7553TIP3    H244075   1.455   6.699  10.735  1.4913  1.0116 -1.6024
 7554TIP3   OH244076   4.450   5.516   5.158 -0.5003  0.1270  0.4459
 7554TIP3    H144077   4.370   5.464   5.172 -0.6212  0.4653  1.0532
 7554TIP3    H244078   4.521   5.454   5.176 -0.6436  0.1428  1.0860
 7555TIP3   OH244079   0.605   1.471  11.173  0.2573 -0.4881  0.8459
 7555TIP3    H144080   0.528   1.507  11.217  1.3622  0.1907  2.2640
 7555TIP3    H244081   0.669   1.542  11.174  0.2055 -0.3076 -2.2478
 7556TIP3   OH244082   5.998   1.297  12.956 -0.7662 -0.6219  0.2490
 7556TIP3    H144083   5.943   1.304  12.878 -0.8854 -1.6336  0.2301
 7556TIP3    H244084   5.939   1.264  13.024 -0.7949  0.7709  0.9274
 7557TIP3   OH244085   5.260   2.193  13.666 -0.2121  0.3142  0.6392
 7557TIP3    H144086   5.339   2.140  13.675  0.1087  0.8482  1.0574
 7557TIP3    H244087   5.274   2.267  13.726  0.3158  2.0215 -1.5232
 7558TIP3   OH244088   5.744   3.463  13.249 -0.3773  0.1182 -0.2850
 7558TIP3    H144089   5.706   3.509  13.174 -0.1625 -0.6738 -0.8929
 7558TIP3    H244090   5.821   3.516  13.272 -1.1203  1.0206  0.1399
 7559TIP3   OH244091   5.007   3.941   1.066 -0.4286  0.4877 -0.8945
 7559TIP3    H144092   4.925   3.989   1.061 -1.3268 -0.7233  1.5071
 7559TIP3    H244093   4.981   3.850   1.081  1.3286 -0.1766 -1.6779
 7560TIP3   OH244094   5.888   0.103  11.802 -0.5326 -0.1108  0.4422
 7560TIP3    H144095   5.849   0.016  11.799 -0.1632 -0.3471  2.0171
 7560TIP3    H244096   5.962   0.098  11.742 -0.1667 -1.0623  0.9559
 7561TIP3   OH244097   2.993   3.841   0.608  0.0374  0.1743 -0.5471
 7561TIP3    H144098   3.056   3.822   0.677 -1.5004 -1.0404  0.5470
 7561TIP3    H244099   2.964   3.755   0.577 -2.0741  0.6979 -0.1075
 7562TIP3   OH244100   4.487   5.038  10.404  0.2918 -0.1895  0.1330
 7562TIP3    H144101   4.489   5.067  10.313 -2.1866  2.2627  0.7862
 7562TIP3    H244102   4.414   4.977  10.409  1.2642 -1.3675  0.2166
 7563TIP3   OH244103   4.979   3.651   1.075  0.3566 -0.7891 -0.0857
 7563TIP3    H144104   4.929   3.639   0.994  2.2733 -0.1833 -1.4051
 7563TIP3    H244105   4.917   3.630   1.145 -1.0623 -2.3036 -1.7315
 7564TIP3   OH244106   4.703   3.267  11.987 -0.2360  0.0951  0.1692
 7564TIP3    H144107   4.785   3.220  12.003 -0.5076 -0.1407  0.9034
 7564TIP3    H244108   4.663   3.221  11.913  0.4057  0.3588 -0.3389
 7565TIP3   OH244109   5.474   2.458  12.462 -0.2332  0.2573  0.1109
 7565TIP3    H144110   5.436   2.421  12.383 -0.0008  0.0312  0.1044
 7565TIP3    H244111   5.549   2.509  12.431 -1.5407  2.1485 -0.0621
 7566TIP3   OH244112   4.346   2.803  14.864 -0.2050 -0.1563 -0.1447
 7566TIP3    H144113   4.435   2.769  14.854  0.0231  0.7534 -1.3627
 7566TIP3    H244114   4.300   2.773  14.785 -0.2084  1.6685 -0.8699
 7567TIP3   OH244115   2.611   5.864  10.331 -0.8265  0.1555  0.1774
 7567TIP3    H144116   2.658   5.891  10.252  0.1123 -0.8891  0.3790
 7567TIP3    H244117   2.531   5.916  10.329 -0.1043  1.2604 -0.6626
 7568TIP3   OH244118   6.848   5.170  14.757 -0.0751  0.0819  0.1677
 7568TIP3    H144119   6.793   5.200  14.685  0.7104  1.2787  0.0516
 7568TIP3    H244120   6.937   5.193  14.730  0.3236 -0.4198  1.0492
 7569TIP3   OH244121   3.270   1.575  15.166 -0.2070 -0.2072  0.2487
 7569TIP3    H144122   3.265   1.606  15.075 -0.8196  0.6801  0.5754
 7569TIP3    H244123   3.310   1.649  15.213  0.4926 -0.8241  0.6302
 7570TIP3   OH244124   1.249   3.504  12.295  0.3473 -0.1388 -0.3255
 7570TIP3    H144125   1.280   3.569  12.233  0.7605  0.7143  0.7544
 7570TIP3    H244126   1.295   3.525  12.377  1.3041 -2.4395 -0.2301
 7571TIP3   OH244127   3.884   5.224  12.918  0.4122 -0.4462  0.4530
 7571TIP3    H144128   3.922   5.219  13.006  1.0193  0.1238  0.2295
 7571TIP3    H244129   3.950   5.271  12.867 -0.6263  0.5858  0.0651
 7572TIP3   OH244130   0.334   2.051  13.796 -0.5135 -0.2574  0.1376
 7572TIP3    H144131   0.396   2.123  13.808  0.0564 -0.7169 -0.0398
 7572TIP3    H244132   0.343   2.027  13.704 -1.7792  0.4251 -0.1695
 7573TIP3   OH244133   4.825   1.331   0.474 -0.4685 -0.7379  0.3950
 7573TIP3    H144134   4.840   1.422   0.500  0.0221 -0.1792 -1.7534
 7573TIP3    H244135   4.733   1.328   0.449  0.4458  0.2015 -3.3694
 7574TIP3   OH244136   2.245   1.461   2.553  0.4440 -0.6196  0.2890
 7574TIP3    H144137   2.216   1.420   2.634  0.2016 -0.0056  0.5092
 7574TIP3    H244138   2.331   1.498   2.573 -0.6969  1.7334  0.9912
 7575TIP3   OH244139   1.839   5.656   1.293  0.3650  0.0438  0.2114
 7575TIP3    H144140   1.754   5.614   1.296  1.4183 -2.2886 -1.2035
 7575TIP3    H244141   1.849   5.684   1.202  1.4744 -0.5189  0.1438
 7576TIP3   OH244142   3.627   0.981  10.979 -0.0338 -0.6391 -0.1595
 7576TIP3    H144143   3.593   0.894  11.000 -0.8452 -0.6207 -1.3313
 7576TIP3    H244144   3.684   0.967  10.903 -0.3810 -0.1125 -0.5234
 7577TIP3   OH244145   2.067   5.771  14.979 -0.0384  0.4534  0.3194
 7577TIP3    H144146   2.127   5.725  14.921 -0.1194  0.7749 -0.0192
 7577TIP3    H244147   1.988   5.716  14.981 -0.8285  1.4605 -1.5136
 7578TIP3   OH244148   4.947   5.629  15.529 -0.0905 -0.3557  0.2487
 7578TIP3    H144149   4.864   5.649  15.573  0.5277  0.9519  0.8560
 7578TIP3    H244150   4.952   5.533  15.528 -0.8434 -0.4189  1.6522
 7579TIP3   OH244151   3.561   2.623  12.740  0.8201  0.0781 -0.4057
 7579TIP3    H144152   3.638   2.601  12.793  0.8964  1.1631 -0.0515
 7579TIP3    H244153   3.591   2.693  12.682  0.0218  0.7267 -0.0467
 7580TIP3   OH244154   7.084   6.479  14.210  0.3882 -0.4824 -0.2276
 7580TIP3    H144155   7.073   6.497  14.303 -0.3734 -3.2463  0.2847
 7580TIP3    H244156   7.172   6.511  14.189  0.1888  1.0576  1.1807
 7581TIP3   OH244157   6.727   4.418  14.424  0.2692 -0.1113 -0.0428
 7581TIP3    H144158   6.731   4.501  14.377  3.1443  0.3796  0.9840
 7581TIP3    H244159   6.661   4.433  14.492  0.3825  1.1515 -0.1945
 7582TIP3   OH244160   3.822   4.458   3.084 -0.1375  0.0258 -0.5190
 7582TIP3    H144161   3.770   4.406   3.146  0.3797 -0.7302 -0.7169
 7582TIP3    H244162   3.812   4.548   3.115 -0.5570 -0.2529  0.1808
 7583TIP3   OH244163   4.107   2.673  15.139 -0.5030 -0.1592  0.0441
 7583TIP3    H144164   4.074   2.762  15.125  0.6914  0.2394 -0.3681
 7583TIP3    H244165   4.144   2.674  15.227  0.3344  0.0390 -0.2967
 7584TIP3   OH244166   3.434   0.224   3.702 -0.2420  0.1921 -0.3747
 7584TIP3    H144167   3.400   0.138   3.676  1.5292 -0.2668 -1.2340
 7584TIP3    H244168   3.423   0.226   3.797 -1.4815 -0.4601 -0.4947
 7585TIP3   OH244169   3.376   1.174  12.666 -0.0397 -0.6571  0.3011
 7585TIP3    H144170   3.299   1.228  12.646  0.3715 -0.6367 -1.2765
 7585TIP3    H244171   3.414   1.216  12.744 -0.0256  1.0203 -0.5749
 7586TIP3   OH244172   4.147   0.222  11.916 -0.1880 -0.5505 -0.3102
 7586TIP3    H144173   4.157   0.218  12.011  0.9226 -0.8177 -0.4246
 7586TIP3    H244174   4.110   0.308  11.899  0.2848 -0.2174  0.3283
 7587TIP3   OH244175   1.701   5.285  15.235  0.1614  0.4695  0.3831
 7587TIP3    H144176   1.693   5.354  15.169 -1.7194  2.8167  2.8844
 7587TIP3    H244177   1.711   5.204  15.186 -1.0923  2.1450 -2.7551
 7588TIP3   OH244178   6.356   2.366   0.549  0.1238  0.4249  0.3465
 7588TIP3    H144179   6.279   2.359   0.493  0.1548  1.6209  0.1310
 7588TIP3    H244180   6.326   2.336   0.635 -0.6967  1.2133  0.3475
 7589TIP3   OH244181   2.371   4.830   2.767  0.7368  0.3880 -0.3594
 7589TIP3    H144182   2.433   4.758   2.774 -2.3277 -2.3989 -0.9763
 7589TIP3    H244183   2.385   4.866   2.679 -0.4621 -2.0902 -1.5943
 7590TIP3   OH244184   6.217   1.634  10.493 -0.0206  0.5352  0.1223
 7590TIP3    H144185   6.165   1.617  10.571  0.8214  1.1781  0.8405
 7590TIP3    H244186   6.216   1.729  10.484  1.2298  0.5739  0.2926
 7591TIP3   OH244187   3.436   2.084  10.612  0.3675 -0.1608  0.4609
 7591TIP3    H144188   3.417   2.124  10.697  0.1890  0.1227  0.2856
 7591TIP3    H244189   3.352   2.051  10.582  0.0216  1.5877 -0.5714
 7592TIP3   OH244190   1.672   2.408  10.421  0.1937  0.2641  0.4026
 7592TIP3    H144191   1.715   2.436  10.340  0.0745  1.9906  0.9179
 7592TIP3    H244192   1.738   2.354  10.465  0.6623  0.2373 -0.3218
 7593TIP3   OH244193   4.193   1.347  12.047 -0.2210  0.1630  0.9431
 7593TIP3    H144194   4.166   1.439  12.039  0.3002  0.2714  0.3828
 7593TIP3    H244195   4.209   1.335  12.140 -2.5039  0.0004  1.3400
 7594TIP3   OH244196   3.361   4.243   5.049 -0.3672 -0.0235  0.0742
 7594TIP3    H144197   3.398   4.179   5.111  0.4477  1.8095  1.5548
 7594TIP3    H244198   3.276   4.207   5.025 -0.5429 -0.9751  2.0129
 7595TIP3   OH244199   4.106   3.222  15.191  0.1833 -0.4583 -0.8050
 7595TIP3    H144200   4.023   3.262  15.219 -0.7246 -3.7592  1.6376
 7595TIP3    H244201   4.171   3.258  15.251  0.0312  0.1690 -1.0174
 7596TIP3   OH244202   4.209   4.045  12.542  0.0541  0.1188 -0.0357
 7596TIP3    H144203   4.269   4.064  12.469 -0.1045  1.4174  0.1614
 7596TIP3    H244204   4.252   3.976  12.591  1.9955  1.8736  0.8024
 7597TIP3   OH244205   1.448   0.675  10.772 -0.0818 -0.3495 -0.5771
 7597TIP3    H144206   1.382   0.677  10.842 -0.4502 -1.5692 -0.8754
 7597TIP3    H244207   1.471   0.767  10.758 -0.6270 -0.0326  0.5615
 7598TIP3   OH244208   1.969   4.379   0.531  0.0778 -0.4066  0.4189
 7598TIP3    H144209   2.057   4.417   0.530  0.1062 -0.4641  0.6660
 7598TIP3    H244210   1.946   4.375   0.624  0.0166 -0.8529  0.3854
 7599TIP3   OH244211   1.448   5.057  13.464 -0.8617  0.6863 -0.2860
 7599TIP3    H144212   1.517   5.081  13.525 -1.7954 -1.5089  1.7487
 7599TIP3    H244213   1.492   5.004  13.398 -0.5338 -0.5631  0.9075
 7600TIP3   OH244214   3.780   4.217   3.425  0.1897  0.5040 -0.6605
 7600TIP3    H144215   3.835   4.296   3.423  0.9277 -0.0099 -0.9460
 7600TIP3    H244216   3.836   4.148   3.388  0.5835 -0.8255  2.3142
 7601TIP3   OH244217   3.372   0.147  12.328  1.0632 -0.5261  0.1331
 7601TIP3    H144218   3.421   0.106  12.257  0.1234 -0.0211 -0.8401
 7601TIP3    H244219   3.302   0.085  12.348 -0.0608  0.3215 -1.0011
 7602TIP3   OH244220   1.770   6.705  14.488  0.2143 -0.2458  0.0888
 7602TIP3    H144221   1.731   6.791  14.505  0.0892  0.1170 -1.9775
 7602TIP3    H244222   1.736   6.649  14.558  0.3047  1.3710  1.4684
 7603TIP3   OH244223   0.833   6.514  13.847  0.0981  0.1241  0.4021
 7603TIP3    H144224   0.854   6.594  13.896  0.6696 -0.4739  1.1374
 7603TIP3    H244225   0.912   6.495  13.796 -0.8530  1.3222 -1.5720
 7604TIP3   OH244226   3.675   0.119   1.234  0.6085 -0.3834 -0.0794
 7604TIP3    H144227   3.697   0.168   1.313  0.5660 -0.5896  0.0630
 7604TIP3    H244228   3.754   0.123   1.180  1.1630 -1.4861  0.6164
 7605TIP3   OH244229   3.632   3.010  11.790  0.1939 -0.0761  0.6475
 7605TIP3    H144230   3.690   2.934  11.801  1.0628  0.7132  1.5985
 7605TIP3    H244231   3.634   3.028  11.695  0.7996 -0.6131  0.5516
 7606TIP3   OH244232   2.924   4.032  14.108  0.1896 -0.1172  0.2354
 7606TIP3    H144233   2.958   3.964  14.050  0.3679 -0.6223  0.9356
 7606TIP3    H244234   2.829   4.022  14.103  0.2114 -0.3217  0.2305
 7607TIP3   OH244235   5.057   4.305  13.756 -0.1953 -0.0623  0.5630
 7607TIP3    H144236   5.084   4.325  13.666 -0.3218  0.7357  0.6991
 7607TIP3    H244237   5.034   4.212  13.754 -0.1761 -0.0541 -0.2249
 7608TIP3   OH244238   1.448   0.924   1.215  0.1093  0.5863 -0.3397
 7608TIP3    H144239   1.411   0.987   1.277 -0.0445  0.4133 -0.2556
 7608TIP3    H244240   1.443   0.840   1.260  1.9584  0.7772  0.2559
 7609TIP3   OH244241   1.773   6.331  11.724 -0.1645  0.4600 -0.0818
 7609TIP3    H144242   1.678   6.323  11.713 -0.0717 -1.1693  0.1362
 7609TIP3    H244243   1.788   6.303  11.815  0.5012  0.8962 -0.0603
 7610TIP3   OH244244   6.291   3.011  15.358  0.3537 -0.3011  0.1279
 7610TIP3    H144245   6.249   3.019  15.444  0.3501 -1.3105  0.2269
 7610TIP3    H244246   6.385   3.004  15.378  0.3697 -0.3383  0.0395
 7611TIP3   OH244247   1.494   3.238  12.222 -0.1368 -0.4821 -0.2891
 7611TIP3    H144248   1.557   3.302  12.257  0.0906 -0.8450 -0.0370
 7611TIP3    H244249   1.452   3.284  12.150  0.0584 -0.0569 -0.1374
 7612TIP3   OH244250   4.097   4.904  12.280  0.2485  0.0318  0.3886
 7612TIP3    H144251   4.019   4.862  12.243  0.4035 -0.8184  1.0215
 7612TIP3    H244252   4.076   4.997  12.279 -0.5898 -0.1517  0.1184
 7613TIP3   OH244253   1.055   2.826  10.679  0.1579 -0.3827  0.0681
 7613TIP3    H144254   1.111   2.832  10.756 -1.2561 -1.2138  1.1978
 7613TIP3    H244255   1.005   2.908  10.679  0.0867 -0.4260  0.0987
 7614TIP3   OH244256   1.764   2.292   4.807 -0.1147  0.3731  0.0149
 7614TIP3    H144257   1.728   2.262   4.891  1.2769  0.4162  0.6465
 7614TIP3    H244258   1.858   2.275   4.815  0.5853  3.8430 -0.0506
 7615TIP3   OH244259   5.362   2.280   0.196 -0.1002 -0.5069 -0.4565
 7615TIP3    H144260   5.272   2.255   0.176 -0.8649  0.3837  1.7666
 7615TIP3    H244261   5.355   2.362   0.245  1.8507 -0.9295  0.6219
 7616TIP3   OH244262   3.343   4.057   0.880  0.1010  0.7764  0.7851
 7616TIP3    H144263   3.309   4.126   0.822  1.3274 -0.2783 -1.2408
 7616TIP3    H244264   3.377   3.990   0.820  0.8728 -0.6128  2.7388
 7617TIP3   OH244265   2.860   2.153  10.183 -0.5305  0.0685  0.1213
 7617TIP3    H144266   2.809   2.092  10.131 -1.9866  0.7960  0.6600
 7617TIP3    H244267   2.807   2.233  10.186 -1.0694 -0.3187  3.6793
 7618TIP3   OH244268   2.678   0.617  15.321  0.0332  0.0659  0.0501
 7618TIP3    H144269   2.725   0.537  15.296  1.3344  0.8845 -0.1193
 7618TIP3    H244270   2.658   0.605  15.414 -0.7044 -0.9192 -0.2239
 7619TIP3   OH244271   5.679   3.193  10.381  0.7439 -0.4974  0.4225
 7619TIP3    H144272   5.729   3.131  10.327  1.2512  0.3839 -0.1259
 7619TIP3    H244273   5.589   3.184  10.350  0.7875 -1.0743  0.4559
 7620TIP3   OH244274   5.413   3.892  13.351  0.2731 -0.4571 -0.6064
 7620TIP3    H144275   5.396   3.893  13.256 -0.4104 -1.0704 -0.4925
 7620TIP3    H244276   5.327   3.900  13.391  0.7623  3.0182 -0.0187
 7621TIP3   OH244277   1.945   1.417  13.628 -0.5090  0.6080  0.0769
 7621TIP3    H144278   1.979   1.463  13.705 -0.6692 -0.7708  0.9829
 7621TIP3    H244279   2.012   1.351  13.608 -1.1841 -0.0414 -0.0486
 7622TIP3   OH244280   2.921   0.301   0.135  0.0462 -0.4966 -0.6154
 7622TIP3    H144281   2.978   0.352   0.192 -0.7748 -0.3485  0.0733
 7622TIP3    H244282   2.961   0.310   0.048  0.0051  1.1561 -0.4798
 7623TIP3   OH244283   5.425   4.576  13.803 -0.1592  0.2726  0.1663
 7623TIP3    H144284   5.427   4.483  13.829  0.0139  0.1175 -0.3850
 7623TIP3    H244285   5.428   4.573  13.708 -0.3312  0.8477  0.1472
 7624TIP3   OH244286   5.292   2.963   1.510  0.0146  0.8150 -0.0421
 7624TIP3    H144287   5.308   2.963   1.416 -0.2007  0.3331 -0.0775
 7624TIP3    H244288   5.293   3.056   1.534  1.0745  0.8827 -0.3402
 7625TIP3   OH244289   5.097   4.205  14.034 -0.0986  0.1739  0.1034
 7625TIP3    H144290   5.131   4.295  14.035 -2.3987  1.1041 -0.4468
 7625TIP3    H244291   5.092   4.180  14.126  0.8257  0.4985  0.2467
 7626TIP3   OH244292   3.003   6.277  14.928  0.2099  0.4572  0.0654
 7626TIP3    H144293   2.963   6.190  14.924 -0.0031  0.4054  2.6233
 7626TIP3    H244294   2.958   6.328  14.860  0.1403 -1.3225 -1.2542
 7627TIP3   OH244295   6.968   3.096  13.994  0.8092 -0.5646  0.3250
 7627TIP3    H144296   6.966   3.012  14.040  1.2288  0.0661  1.5120
 7627TIP3    H244297   7.044   3.142  14.031 -0.4400  1.0539  0.9620
 7628TIP3   OH244298   4.089   2.654  11.221 -0.2766 -0.4766 -0.1538
 7628TIP3    H144299   4.036   2.588  11.176 -1.2317  0.2615 -0.1354
 7628TIP3    H244300   4.179   2.627  11.206 -0.5035  0.2376 -3.3723
 7629TIP3   OH244301   1.304   2.417  11.818  1.1191  0.0827  0.3581
 7629TIP3    H144302   1.224   2.424  11.766  1.7159  1.8525 -0.3625
 7629TIP3    H244303   1.350   2.341  11.783 -0.3452 -1.0961  0.9383
 7630TIP3   OH244304   2.572   3.841  11.090 -0.1276 -0.2288 -0.3225
 7630TIP3    H144305   2.625   3.918  11.111 -0.5514 -0.1376  0.4480
 7630TIP3    H244306   2.542   3.857  11.001 -0.2875  0.5558 -0.1381
 7631TIP3   OH244307   3.461   4.004  12.856  0.1570  0.0628 -0.2625
 7631TIP3    H144308   3.447   3.913  12.881  0.2167  0.0685 -0.2064
 7631TIP3    H244309   3.545   4.027  12.895 -0.2517  0.3980  0.4263
 7632TIP3   OH244310   1.928   2.164  11.659 -0.5088 -0.2295 -0.4969
 7632TIP3    H144311   1.910   2.210  11.577  2.9425  1.3456 -0.4568
 7632TIP3    H244312   1.880   2.213  11.725 -1.2987 -0.0032 -1.2368
 7633TIP3   OH244313   5.310   0.861  10.721  0.5497  0.3056  0.3941
 7633TIP3    H144314   5.365   0.888  10.795 -0.4505  1.1420  0.8601
 7633TIP3    H244315   5.228   0.833  10.762  0.2380  0.1129 -0.3558
 7634TIP3   OH244316   1.678   0.882  15.301 -0.0439 -0.1375 -0.4316
 7634TIP3    H144317   1.644   0.830  15.228 -2.1382  0.8367 -0.1836
 7634TIP3    H244318   1.617   0.865  15.373 -0.4459  2.2167 -0.1878
 7635TIP3   OH244319   0.541   0.407  12.585 -0.8564  0.1724 -0.0973
 7635TIP3    H144320   0.582   0.355  12.516  0.2391  0.9319 -0.0363
 7635TIP3    H244321   0.485   0.345  12.632 -2.2153 -0.2024 -2.1107
 7636TIP3   OH244322   2.215   0.957  14.141  0.0534 -0.0620  0.1902
 7636TIP3    H144323   2.276   0.922  14.075 -0.0046 -1.4450  0.8533
 7636TIP3    H244324   2.271   0.996  14.207  0.1522  0.2739 -0.0870
 7637TIP3   OH244325   0.540   2.626  15.407 -0.0980 -0.4420  0.5375
 7637TIP3    H144326   0.601   2.570  15.358  0.9350  0.4278  0.8055
 7637TIP3    H244327   0.544   2.593  15.497 -1.5975 -1.7005  0.1768
 7638TIP3   OH244328   3.334   2.966   2.202 -0.2362  0.2503  0.2873
 7638TIP3    H144329   3.411   3.021   2.218  0.8229 -1.3053  0.7030
 7638TIP3    H244330   3.307   2.936   2.289 -0.1448 -0.7283 -0.0128
 7639TIP3   OH244331   2.793   4.911  14.073 -0.6276 -0.2220 -0.4755
 7639TIP3    H144332   2.739   4.977  14.116  0.0785  0.2689 -0.3281
 7639TIP3    H244333   2.882   4.932  14.101 -0.3337 -0.8446 -0.9477
 7640TIP3   OH244334   4.273   2.491  11.976  0.3385  0.2409  0.3544
 7640TIP3    H144335   4.189   2.453  12.001 -1.0259  2.2605 -0.9610
 7640TIP3    H244336   4.317   2.423  11.925 -0.7665 -0.5932  0.5087
 7641TIP3   OH244337   5.166   6.038  12.964  0.2021  0.7140  0.6997
 7641TIP3    H144338   5.208   6.059  12.881 -0.1416 -1.5469 -0.0881
 7641TIP3    H244339   5.237   6.001  13.018 -0.1408 -0.4067  0.3987
 7642TIP3   OH244340   0.181   1.749   1.635  0.0893  0.4366 -0.1073
 7642TIP3    H144341   0.138   1.772   1.553  1.6696  1.2832 -0.7258
 7642TIP3    H244342   0.256   1.808   1.640  0.3743 -0.0437  1.6314
 7643TIP3   OH244343   5.654   2.922   0.112 -0.2889 -0.1898 -0.3174
 7643TIP3    H144344   5.628   3.008   0.078  1.5801  1.3684  1.9711
 7643TIP3    H244345   5.734   2.901   0.064  0.6153  0.5527  0.8112
 7644TIP3   OH244346   6.636   3.556  13.425  0.1551 -0.0716  0.2387
 7644TIP3    H144347   6.672   3.631  13.378  1.3711 -0.2969  0.7906
 7644TIP3    H244348   6.573   3.593  13.486  0.5441  0.4719  0.3121
 7645TIP3   OH244349   6.821   1.109  11.173  0.0620 -0.0404 -0.0272
 7645TIP3    H144350   6.809   1.200  11.202 -0.9088 -0.1118 -0.1873
 7645TIP3    H244351   6.900   1.080  11.218 -0.1453  0.5944  0.7576
 7646TIP3   OH244352   6.082   3.600   0.290  0.1958  0.1385 -0.2807
 7646TIP3    H144353   6.036   3.624   0.371  0.6305 -0.6909  0.2246
 7646TIP3    H244354   6.093   3.683   0.243 -1.2835  0.4310 -0.1381
 7647TIP3   OH244355   4.851   2.986  14.698  0.5950  0.2029 -0.0333
 7647TIP3    H144356   4.761   2.961  14.723  1.9251 -2.0909  2.8076
 7647TIP3    H244357   4.860   2.955  14.608 -1.6192  0.9623 -0.5583
 7648TIP3   OH244358   1.107   3.052  15.455 -0.8920  0.5747 -0.2042
 7648TIP3    H144359   1.151   3.042  15.539 -0.1825 -0.1531 -0.6619
 7648TIP3    H244360   1.177   3.074  15.394 -1.3101  0.4200 -0.7387
 7649TIP3   OH244361   3.869   1.539  14.705  0.1037  0.2474  0.1081
 7649TIP3    H144362   3.824   1.526  14.789  2.3163  0.9199  1.4228
 7649TIP3    H244363   3.952   1.493  14.715  0.8087  1.1919 -1.3557
 7650TIP3   OH244364   2.965   1.908  15.274 -0.3630  0.1985 -0.3258
 7650TIP3    H144365   3.010   1.844  15.219 -1.3491 -0.6694 -0.1476
 7650TIP3    H244366   3.022   1.985  15.274  0.9093 -0.7363 -0.4207
 7651TIP3   OH244367   0.915   1.270  12.447  0.4182 -0.2468  0.8359
 7651TIP3    H144368   0.854   1.198  12.465  0.4238 -1.1897 -2.6998
 7651TIP3    H244369   0.860   1.348  12.447 -0.3731 -0.8020  0.1108
 7652TIP3   OH244370   4.312   2.812  10.541  0.1980 -0.6500 -0.2849
 7652TIP3    H144371   4.283   2.847  10.457 -0.5389 -1.0165 -0.1965
 7652TIP3    H244372   4.245   2.842  10.603  0.4358 -0.8515  0.0687
 7653TIP3   OH244373   5.564   6.885  13.808  0.2079  0.2245 -0.0359
 7653TIP3    H144374   5.629   6.817  13.796 -0.3599 -0.4397  0.6013
 7653TIP3    H244375   5.550   6.889  13.903 -2.4914 -1.3838 -0.3196
 7654TIP3   OH244376   2.896   1.640  14.849  0.0540  0.0106  0.1155
 7654TIP3    H144377   2.898   1.601  14.761 -0.2530  1.0777 -0.3652
 7654TIP3    H244378   2.893   1.734  14.834 -0.3148  0.1906  1.2743
 7655TIP3   OH244379   0.591   2.397   2.845  0.2147 -0.4639 -1.1812
 7655TIP3    H144380   0.663   2.429   2.899 -0.9507  0.0578  0.0665
 7655TIP3    H244381   0.579   2.466   2.779  0.5912 -0.3659 -1.1519
 7656TIP3   OH244382   0.058   2.103   0.750  0.3946  0.1521 -0.0714
 7656TIP3    H144383   0.005   2.067   0.679  1.8406  0.6644 -1.4204
 7656TIP3    H244384   0.113   2.169   0.708 -1.6750  3.4913  2.2275
 7657TIP3   OH244385   3.468   0.464  14.241 -0.2662 -0.3903 -0.0506
 7657TIP3    H144386   3.386   0.422  14.215  0.5171 -0.0128 -3.3111
 7657TIP3    H244387   3.536   0.418  14.193  1.2060  0.8993  0.7164
 7658TIP3   OH244388   3.945   4.039  10.981  0.2502 -0.1715 -0.4102
 7658TIP3    H144389   3.885   4.113  10.992  2.9547  1.8887  1.0435
 7658TIP3    H244390   3.993   4.058  10.900  0.8365 -0.4098 -0.1248
 7659TIP3   OH244391   1.927   0.790  13.098 -0.1756 -0.6704 -0.0385
 7659TIP3    H144392   1.868   0.792  13.173 -0.6601  1.6055 -0.4253
 7659TIP3    H244393   1.869   0.793  13.021  0.3442 -1.9299 -0.4873
 7660TIP3   OH244394   4.151   1.280  15.262  0.0511 -0.0398 -0.5742
 7660TIP3    H144395   4.201   1.288  15.343 -1.0901  1.1965  0.0430
 7660TIP3    H244396   4.172   1.193  15.228  0.2296 -0.7275  1.2676
 7661TIP3   OH244397   3.070   6.044   1.424  0.2271 -0.6377 -0.3883
 7661TIP3    H144398   3.080   5.981   1.495 -1.2203 -0.7304 -0.2446
 7661TIP3    H244399   3.131   6.014   1.357 -0.7235 -2.4650 -0.4959
 7662TIP3   OH244400   2.237   6.335  14.662 -1.0960 -0.5508 -0.4915
 7662TIP3    H144401   2.144   6.352  14.678 -1.5876 -1.3200 -2.4196
 7662TIP3    H244402   2.251   6.245  14.693 -0.5159  0.2653  1.6560
 7663TIP3   OH244403   1.653   5.626  12.995 -0.2161  0.1217 -0.5004
 7663TIP3    H144404   1.720   5.695  12.990 -0.2706  0.1027 -1.4343
 7663TIP3    H244405   1.695   5.557  13.047  0.2467  0.3914 -0.5094
 7664TIP3   OH244406   0.834   2.523  11.604 -0.6248 -0.0225 -0.1462
 7664TIP3    H144407   0.777   2.600  11.598 -1.1695 -0.4658 -0.8336
 7664TIP3    H244408   0.787   2.455  11.555 -0.8502 -1.2314  1.6977
 7665TIP3   OH244409   2.832   4.832  14.954  0.3514  0.3244  0.2214
 7665TIP3    H144410   2.760   4.793  14.905  0.6021  1.3989 -1.0440
 7665TIP3    H244411   2.825   4.793  15.041 -2.6778  1.4965  0.5873
 7666TIP3   OH244412   1.732   4.721  13.950  0.3362 -0.5922 -0.2355
 7666TIP3    H144413   1.818   4.687  13.925  2.1347  3.2381  0.2208
 7666TIP3    H244414   1.691   4.747  13.867  1.5263  1.5845 -0.1940
 7667TIP3   OH244415   6.639   5.032  12.858 -0.1439 -0.3568 -0.1706
 7667TIP3    H144416   6.720   4.997  12.821  0.2245  0.0217  0.2809
 7667TIP3    H244417   6.633   5.120  12.823 -0.4123 -0.4186 -0.2806
 7668TIP3   OH244418   1.308   3.030  12.725  0.3446 -0.1724  0.4571
 7668TIP3    H144419   1.396   3.059  12.700 -0.8266  2.3131 -0.9710
 7668TIP3    H244420   1.276   2.985  12.647 -0.4212  0.7608  0.2322
 7669TIP3   OH244421   4.770   0.985  11.883 -0.4430  0.0306  0.5570
 7669TIP3    H144422   4.835   0.997  11.813 -0.6285 -1.9641  0.0101
 7669TIP3    H244423   4.687   1.009  11.842 -0.6133 -1.5833 -0.0638
 7670TIP3   OH244424   6.125   5.373   0.337  0.1939 -0.2364 -0.5596
 7670TIP3    H144425   6.196   5.432   0.312  0.2588 -0.5876 -1.2107
 7670TIP3    H244426   6.095   5.406   0.422  0.1774  0.7790 -0.9550
 7671TIP3   OH244427   6.279   3.891  14.464 -0.3670 -0.1975 -0.6235
 7671TIP3    H144428   6.373   3.906  14.451 -0.0759 -3.5477 -2.9194
 7671TIP3    H244429   6.239   3.977  14.447  2.1779  1.0548 -0.5592
 7672TIP3   OH244430   0.151   2.523  14.873 -0.3720 -0.1739  0.4587
 7672TIP3    H144431   0.141   2.433  14.901 -1.8000 -0.6382 -1.4189
 7672TIP3    H244432   0.242   2.529  14.842 -0.1844 -0.8722  0.8836
 7673TIP3   OH244433   3.704   1.674   0.107  0.0467 -0.6182 -0.2833
 7673TIP3    H144434   3.789   1.678   0.062  0.0737  1.0068 -0.0919
 7673TIP3    H244435   3.694   1.760   0.147 -1.0579 -1.2722  0.8755
 7674TIP3   OH244436   0.803   3.279   1.215  0.4687 -0.3746 -0.0609
 7674TIP3    H144437   0.873   3.236   1.166  0.4309  0.8252 -1.2005
 7674TIP3    H244438   0.723   3.253   1.170  0.2107 -1.2462  0.8713
 7675TIP3   OH244439   2.468   2.789  13.377 -1.1064  0.2800 -0.2722
 7675TIP3    H144440   2.490   2.760  13.465  1.8576  2.0581 -0.3547
 7675TIP3    H244441   2.489   2.714  13.321  0.1721  0.2703  0.2077
 7676TIP3   OH244442   6.749   4.863  13.693  0.5036  0.1571 -0.1078
 7676TIP3    H144443   6.794   4.939  13.656 -0.0649  0.7156  0.3484
 7676TIP3    H244444   6.749   4.879  13.787 -0.4975  0.0748 -0.0928
 7677TIP3   OH244445   5.252   2.614  12.563 -0.5732 -0.0867  0.2831
 7677TIP3    H144446   5.333   2.579  12.525  0.3167 -1.7031  3.4769
 7677TIP3    H244447   5.182   2.575  12.510  0.6545 -0.5958 -1.0129
 7678TIP3   OH244448   5.926   4.757  13.859  0.4592  0.4964  0.8272
 7678TIP3    H144449   5.994   4.820  13.882  0.5605  0.2223  1.2921
 7678TIP3    H244450   5.851   4.779  13.914 -0.2621  1.5641 -0.5610
 7679TIP3   OH244451   1.833   6.290  13.770  0.5074  0.1412  0.4780
 7679TIP3    H144452   1.852   6.282  13.863 -0.5439 -0.6010  0.6302
 7679TIP3    H244453   1.846   6.383  13.751  1.8945  0.0870  1.0960
 7680TIP3   OH244454   6.566   5.075  14.284  0.1482  0.0888  0.5168
 7680TIP3    H144455   6.617   5.075  14.365  1.4707  0.0474 -0.2933
 7680TIP3    H244456   6.615   5.132  14.225 -1.3478  0.9332  0.0752
 7681TIP3   OH244457   1.193   3.042  11.509  0.1053  0.2441 -0.2489
 7681TIP3    H144458   1.112   3.014  11.467  0.6399 -2.1458  0.2647
 7681TIP3    H244459   1.174   3.041  11.603  1.0307 -1.4107 -0.0604
 7682TIP3   OH244460   3.015   5.395  13.511 -0.0910  0.8163 -0.0579
 7682TIP3    H144461   2.930   5.364  13.543  0.0856 -0.5910 -0.8988
 7682TIP3    H244462   3.072   5.393  13.588 -0.3452 -0.0233  0.1179
 7683TIP3   OH244463   3.770   0.329  15.213  0.4145  0.4516 -0.4980
 7683TIP3    H144464   3.739   0.418  15.230  0.0283  0.2827 -0.2974
 7683TIP3    H244465   3.793   0.329  15.121 -0.3629  0.5383 -0.6980
 7684TIP3   OH244466   6.264   3.414   0.365 -0.7696 -0.1994  0.2528
 7684TIP3    H144467   6.223   3.489   0.323 -0.9309 -0.5823 -0.2739
 7684TIP3    H244468   6.357   3.420   0.340 -0.8982 -0.5292 -0.3180
 7685TIP3   OH244469   1.476   4.360  14.677 -0.1459  0.3518 -0.1576
 7685TIP3    H144470   1.496   4.434  14.620  1.1895  1.0320  1.1681
 7685TIP3    H244471   1.543   4.294  14.654 -0.8571 -0.1562 -0.7929
 7686TIP3   OH244472   2.790   6.252  14.060 -0.2602  0.1230  0.2641
 7686TIP3    H144473   2.858   6.244  13.994  0.2861 -0.9722  0.9577
 7686TIP3    H244474   2.783   6.346  14.077  0.2055  0.3324 -0.7022
 7687TIP3   OH244475   2.901   4.970   2.505 -0.1131 -0.3563  0.1276
 7687TIP3    H144476   2.986   5.012   2.494 -0.3113  0.4582  1.5337
 7687TIP3    H244477   2.901   4.898   2.442  2.1820 -1.2499  1.1121
 7688TIP3   OH244478   0.083   3.323  13.755  0.1588  0.5349 -0.4887
 7688TIP3    H144479   0.030   3.246  13.732 -1.6427  1.7659 -0.5864
 7688TIP3    H244480   0.167   3.308  13.712 -0.2821 -1.2245 -0.7782
 7689TIP3   OH244481   5.541   6.925   0.333 -0.0473  0.2849 -0.4423
 7689TIP3    H144482   5.628   6.923   0.373  1.0349 -3.0214 -2.7510
 7689TIP3    H244483   5.503   6.840   0.354 -1.1557  0.1797 -2.7707
 7690TIP3   OH244484   4.230   4.623  15.413 -0.0063  0.9897 -0.3266
 7690TIP3    H144485   4.288   4.693  15.445 -0.5436  1.1131  0.3728
 7690TIP3    H244486   4.154   4.669  15.378  0.1108  0.8024 -0.8304
 7691TIP3   OH244487   5.665   3.973   2.878 -0.3732  0.0451  0.4171
 7691TIP3    H144488   5.629   3.948   2.963  2.8135 -1.8341  1.2949
 7691TIP3    H244489   5.613   3.924   2.815 -3.0375  1.7736  1.2018
 7692TIP3   OH244490   3.924   0.536  14.436  0.1755 -0.3765  0.5050
 7692TIP3    H144491   3.923   0.457  14.490  0.5681 -1.5937 -1.2121
 7692TIP3    H244492   4.005   0.528  14.384 -0.9444 -0.0175 -1.3442
 7693TIP3   OH244493   6.228   4.442  11.492 -0.0285 -0.4129  0.3868
 7693TIP3    H144494   6.195   4.521  11.534 -0.3101 -0.4640  0.2647
 7693TIP3    H244495   6.211   4.372  11.556  2.3218 -0.0337  1.4727
 7694TIP3   OH244496   6.590   1.505  14.748 -0.4299 -0.5499 -0.3140
 7694TIP3    H144497   6.671   1.501  14.800 -0.7021 -3.5839 -0.0320
 7694TIP3    H244498   6.546   1.584  14.780  1.4722  0.0472  0.9633
 7695TIP3   OH244499   4.039   0.829   0.293  0.0890 -0.3890  0.1719
 7695TIP3    H144500   4.102   0.767   0.328  0.5447  0.1540  0.3300
 7695TIP3    H244501   3.995   0.782   0.221  1.9131 -0.1901 -1.1059
 7696TIP3   OH244502   2.158   5.889   0.950  0.1925  0.1399 -0.5593
 7696TIP3    H144503   2.150   5.922   1.039 -0.3310  0.6007 -0.7743
 7696TIP3    H244504   2.078   5.838   0.935 -1.9820  3.8629 -2.3413
 7697TIP3   OH244505   0.954   5.267   0.969  0.2287 -0.0706  0.0932
 7697TIP3    H144506   0.906   5.244   0.890 -1.0536  0.4686  0.7081
 7697TIP3    H244507   1.045   5.277   0.939 -0.1360 -0.4532 -1.1902
 7698TIP3   OH244508   2.499   4.749  14.255 -0.0028 -0.2041  0.4322
 7698TIP3    H144509   2.489   4.727  14.162 -1.3200 -2.5223  1.0640
 7698TIP3    H244510   2.573   4.695  14.284 -0.8137 -0.9393  1.1511
 7699TIP3   OH244511   5.116   2.346   0.752  0.5893 -0.3269  0.1665
 7699TIP3    H144512   5.208   2.369   0.742  0.7037 -1.2603 -0.9937
 7699TIP3    H244513   5.097   2.287   0.680 -1.0248  0.1293  0.1812
 7700TIP3   OH244514   2.729   3.536   0.030  0.2652  0.3758  0.2980
 7700TIP3    H144515   2.656   3.579   0.075 -0.2474  1.0954 -1.1979
 7700TIP3    H244516   2.800   3.536   0.095 -0.8058  0.3847  1.4856
 7701TIP3   OH244517   0.286   4.783  12.825  0.4971  0.2405 -0.2094
 7701TIP3    H144518   0.205   4.741  12.853  1.2312 -0.5112  0.8392
 7701TIP3    H244519   0.266   4.819  12.738 -0.8347 -0.2650 -0.1222
 7702TIP3   OH244520   3.152   3.273   0.818  0.3880 -0.5580 -1.1414
 7702TIP3    H144521   3.227   3.289   0.760 -0.0003 -0.2404 -1.5580
 7702TIP3    H244522   3.185   3.293   0.905  1.0778 -1.3663 -1.2067
 7703TIP3   OH244523   4.791   0.871  13.452  0.0472  0.0516 -0.3977
 7703TIP3    H144524   4.741   0.921  13.388 -0.6458 -0.5137 -0.3029
 7703TIP3    H244525   4.826   0.937  13.512 -1.0820  0.4112 -0.1138
 7704TIP3   OH244526   5.725   2.327   0.725  0.4238 -0.2226  0.1488
 7704TIP3    H144527   5.674   2.373   0.658  2.7920 -0.2247 -1.7082
 7704TIP3    H244528   5.767   2.254   0.678  3.0721  0.4784  1.3139
 7705TIP3   OH244529   5.005   1.565  10.527  0.6750  0.0824 -0.1738
 7705TIP3    H144530   4.947   1.488  10.523 -0.4562  0.9433 -0.7454
 7705TIP3    H244531   5.093   1.528  10.534  0.1963 -1.2803 -1.0044
 7706TIP3   OH244532   0.505   4.959  11.029 -0.4496  0.2162  0.2254
 7706TIP3    H144533   0.578   4.988  10.974  0.5235 -1.5469  0.5391
 7706TIP3    H244534   0.526   4.993  11.116  0.6712 -1.2988  0.5831
 7707TIP3   OH244535   2.601   4.761  12.979  0.0419  0.0523  0.1181
 7707TIP3    H144536   2.576   4.801  13.063  2.1348  0.7105  0.4707
 7707TIP3    H244537   2.519   4.753  12.931 -1.3582 -1.2596  2.6058
 7708TIP3   OH244538   4.981   4.466  12.798  0.5056  0.3421  0.3882
 7708TIP3    H144539   4.906   4.408  12.783  0.0829  0.6946  1.1442
 7708TIP3    H244540   5.007   4.494  12.710 -1.3916  1.6641  0.2132
 7709TIP3   OH244541   6.675   3.865   2.356 -0.2258  0.1386 -0.7857
 7709TIP3    H144542   6.645   3.777   2.334 -0.1059 -0.0729 -0.1180
 7709TIP3    H244543   6.695   3.906   2.272 -1.2444 -0.1298 -1.1603
 7710TIP3   OH244544   5.820   3.358  15.180 -0.2204 -0.6959 -0.4061
 7710TIP3    H144545   5.906   3.373  15.218 -1.9225  1.8905  2.6610
 7710TIP3    H244546   5.819   3.415  15.102  1.3961 -2.0076 -1.4158
 7711TIP3   OH244547   2.926   4.254  14.299 -0.2769  0.1000  0.4577
 7711TIP3    H144548   2.933   4.168  14.259  0.0009 -0.0769  0.8798
 7711TIP3    H244549   2.960   4.314  14.233 -2.3266  0.1077 -0.6072
 7712TIP3   OH244550   5.500   1.964  10.109 -0.2036 -0.4695  0.4880
 7712TIP3    H144551   5.538   2.014  10.036  1.4467  0.3918  1.9279
 7712TIP3    H244552   5.405   1.970  10.094  0.0402  1.4500 -0.4467
 7713TIP3   OH244553   1.625   4.936  12.606 -0.2568  0.2621 -0.1063
 7713TIP3    H144554   1.613   5.027  12.634 -0.9262  0.5452 -1.2975
 7713TIP3    H244555   1.537   4.898  12.610 -0.0273 -0.2489  0.0938
 7714TIP3   OH244556   6.962   0.019  13.380  0.1377 -0.0869 -0.0360
 7714TIP3    H144557   6.943   0.038  13.288  1.0655 -1.6858 -0.5717
 7714TIP3    H244558   7.028  -0.050  13.378 -0.4913 -0.7970  1.8380
 7715TIP3   OH244559   2.210   1.414  10.515 -0.2121  0.4477  0.0671
 7715TIP3    H144560   2.245   1.427  10.603 -1.9547 -0.4792  0.9098
 7715TIP3    H244561   2.221   1.320  10.499 -0.2656  0.5468 -0.5623
 7716TIP3   OH244562   0.901   2.178   0.212  0.0673 -0.7609 -0.0202
 7716TIP3    H144563   0.954   2.174   0.292 -0.4215 -1.8534  0.2678
 7716TIP3    H244564   0.964   2.182   0.141  0.5411 -1.2748  0.3613
 7717TIP3   OH244565   2.538   5.330  13.430  0.4683 -0.2847  0.4941
 7717TIP3    H144566   2.493   5.285  13.358 -0.3716  1.5585 -0.1674
 7717TIP3    H244567   2.626   5.292  13.431 -0.0037 -1.4400 -0.4844
 7718TIP3   OH244568   5.311   1.650  15.344 -0.1894  0.8172 -0.5108
 7718TIP3    H144569   5.317   1.560  15.377  1.1604  1.3799  0.8202
 7718TIP3    H244570   5.345   1.704  15.415 -1.6210  2.4571 -1.0262
 7719TIP3   OH244571   2.429   3.586  13.192  0.2625  0.1809  0.4746
 7719TIP3    H144572   2.487   3.590  13.116 -0.4309 -0.6590 -0.1174
 7719TIP3    H244573   2.382   3.502  13.182 -0.6039  0.5603  1.2542
 7720TIP3   OH244574   0.505   7.157  13.998 -0.1756 -0.3028  0.4676
 7720TIP3    H144575   0.413   7.140  14.014 -0.6362  1.9788  0.4219
 7720TIP3    H244576   0.509   7.249  13.973  2.0094 -0.5849 -0.4188
 7721TIP3   OH244577   0.197   3.491  11.380  0.1047  0.2807 -0.7544
 7721TIP3    H144578   0.272   3.433  11.368 -1.2173 -1.5722 -0.2109
 7721TIP3    H244579   0.198   3.513  11.473  0.1778  0.5475 -0.8171
 7722TIP3   OH244580   1.250   4.899   1.594 -0.0377 -0.1767  0.5333
 7722TIP3    H144581   1.191   4.824   1.583  0.2222 -0.3753  0.5022
 7722TIP3    H244582   1.200   4.973   1.561 -0.1561 -0.3954  0.2205
 7723TIP3   OH244583   0.379   2.282  12.000 -0.3687  0.4144 -0.0220
 7723TIP3    H144584   0.351   2.192  12.013  1.2094 -0.1789 -0.6152
 7723TIP3    H244585   0.457   2.292  12.056  0.3350  0.9517 -1.0744
 7724TIP3   OH244586   5.803   3.414  12.543 -0.5610 -1.1510 -0.2955
 7724TIP3    H144587   5.809   3.319  12.547 -1.1489 -1.2136 -0.7920
 7724TIP3    H244588   5.752   3.431  12.464 -0.0314 -0.4060 -0.4781
 7725TIP3   OH244589   5.881   2.877  13.387  0.6359 -0.2186 -0.2714
 7725TIP3    H144590   5.903   2.787  13.361 -0.2343 -0.3096 -0.7174
 7725TIP3    H244591   5.875   2.925  13.304 -0.5105 -0.1242 -0.1373
 7726TIP3   OH244592   6.111   2.630  11.052  0.5199  0.4224  0.0784
 7726TIP3    H144593   6.121   2.535  11.046 -0.2731  0.4002 -1.2406
 7726TIP3    H244594   6.110   2.648  11.146 -0.9832 -1.0888  0.3950
 7727TIP3   OH244595   5.635   0.365  10.515  0.3212  0.0310  0.0064
 7727TIP3    H144596   5.601   0.345  10.427 -0.1899 -0.2751  0.2705
 7727TIP3    H244597   5.687   0.444  10.502 -1.7435  1.4157 -0.1609
 7728TIP3   OH244598   4.089   3.308  12.876  0.4324 -0.2866 -0.4959
 7728TIP3    H144599   4.150   3.322  12.804 -0.5604 -2.2359 -1.7732
 7728TIP3    H244600   4.145   3.287  12.951  1.3590 -2.8192 -1.8290
 7729TIP3   OH244601   3.987   3.556  14.902  0.5669  0.0871 -0.2659
 7729TIP3    H144602   3.987   3.651  14.891 -1.4255  0.0140 -1.1172
 7729TIP3    H244603   3.914   3.526  14.848  0.2277 -1.7879  1.1928
 7730TIP3   OH244604   1.295   6.000  14.559 -0.8582  0.8754 -0.0176
 7730TIP3    H144605   1.372   5.948  14.537 -2.5116 -2.3979  1.6538
 7730TIP3    H244606   1.231   5.979  14.491  0.2070  4.9347 -2.4238
 7731TIP3   OH244607   5.646   3.008  11.106 -0.5612 -0.7326 -0.2710
 7731TIP3    H144608   5.628   3.023  11.013  0.7020 -0.4814 -0.4767
 7731TIP3    H244609   5.680   2.919  11.110  1.0545 -0.1269 -0.2801
 7732TIP3   OH244610   3.339   1.253   1.962 -0.2980  0.8442  0.1135
 7732TIP3    H144611   3.423   1.282   1.996  1.6208 -0.2767 -3.3470
 7732TIP3    H244612   3.329   1.300   1.879 -0.7136 -2.5607 -1.8807
 7733TIP3   OH244613   5.886   0.154   2.059 -0.4059 -0.9512  0.1605
 7733TIP3    H144614   5.793   0.149   2.035 -0.4688 -0.9199  0.3989
 7733TIP3    H244615   5.886   0.189   2.148 -0.1802 -1.3058  0.2981
 7734TIP3   OH244616   0.312   0.895  15.433 -0.0729  0.6071  0.1364
 7734TIP3    H144617   0.267   0.811  15.426 -0.7460  1.0612 -1.0210
 7734TIP3    H244618   0.385   0.889  15.372 -0.4555  1.0589 -0.3797
 7735TIP3   OH244619   5.925   4.612  12.150 -0.4227 -0.4878 -0.7174
 7735TIP3    H144620   5.868   4.536  12.160 -1.0035  0.0882  0.4976
 7735TIP3    H244621   6.013   4.578  12.165 -0.6436 -0.9909 -0.5562
 7736TIP3   OH244622   4.534   1.665  11.347 -0.2776 -0.3542  0.3131
 7736TIP3    H144623   4.533   1.697  11.257  2.2237 -1.1333 -0.0499
 7736TIP3    H244624   4.467   1.597  11.350  1.6542 -2.4300 -1.8169
 7737TIP3   OH244625   2.024   1.814  14.745  0.2014 -1.0224  0.4584
 7737TIP3    H144626   1.933   1.826  14.772 -0.5464 -3.5784 -0.7579
 7737TIP3    H244627   2.023   1.826  14.651  1.2143 -0.6200  0.4934
 7738TIP3   OH244628   4.608   4.146  12.532  0.5235  0.3855  0.0236
 7738TIP3    H144629   4.626   4.071  12.589  2.0557  0.2524 -0.6128
 7738TIP3    H244630   4.574   4.107  12.452  1.6208  0.3339 -0.4278
 7739TIP3   OH244631   3.541   5.200  15.336  0.0150 -0.2396  0.1323
 7739TIP3    H144632   3.482   5.134  15.372 -0.8160  0.1780 -0.4546
 7739TIP3    H244633   3.577   5.244  15.413  0.4902 -1.3001  0.5225
 7740TIP3   OH244634   4.269   1.864   0.821  0.4548  0.3482  0.0617
 7740TIP3    H144635   4.333   1.879   0.890  0.6781 -0.5163  0.0430
 7740TIP3    H244636   4.234   1.777   0.839  0.5074  0.1202 -0.9132
 7741TIP3   OH244637   6.584   1.789  13.777 -0.0095 -0.2127 -0.3364
 7741TIP3    H144638   6.496   1.765  13.748 -0.1988  0.0197  0.0362
 7741TIP3    H244639   6.627   1.706  13.797 -0.7156 -0.2519  1.1223
 7742TIP3   OH244640   2.309   5.171  11.784 -0.3495  0.0458  0.8303
 7742TIP3    H144641   2.306   5.266  11.796 -1.1553  0.3526 -1.5166
 7742TIP3    H244642   2.325   5.159  11.690  1.8334 -2.1347  1.4263
 7743TIP3   OH244643   4.626   6.292  13.552  0.0010 -0.2857  0.0256
 7743TIP3    H144644   4.627   6.327  13.641  0.3464 -1.2714  0.4130
 7743TIP3    H244645   4.690   6.344  13.504 -1.0861  1.0745  0.0330
 7744TIP3   OH244646   4.411   2.279  14.023  0.0850  0.0188  0.3522
 7744TIP3    H144647   4.429   2.317  13.937  0.9563 -0.6360  0.2318
 7744TIP3    H244648   4.409   2.184  14.007 -0.5742 -0.0646  0.9071
 7745TIP3   OH244649   7.025   5.472   0.393  0.0895 -0.1618 -0.4502
 7745TIP3    H144650   6.980   5.415   0.329  0.1986  0.0354 -0.7026
 7745TIP3    H244651   7.097   5.418   0.426 -0.6506 -0.6723  0.3526
 7746TIP3   OH244652   0.628   2.122   0.352 -0.4841 -0.2842  0.2278
 7746TIP3    H144653   0.602   2.133   0.443 -1.4626  1.8965 -0.2708
 7746TIP3    H244654   0.719   2.151   0.349  0.4143 -2.8699  0.9689
 7747TIP3   OH244655   0.580   4.477   5.228 -0.0313  0.6080 -0.1338
 7747TIP3    H144656   0.595   4.429   5.309  0.6332  1.2571  0.1388
 7747TIP3    H244657   0.503   4.436   5.189 -1.5501  1.5179  1.7907
 7748TIP3   OH244658   5.042   1.562  13.455  0.2945 -0.2174  0.0187
 7748TIP3    H144659   4.970   1.583  13.396 -1.2456 -2.4535  1.0334
 7748TIP3    H244660   5.085   1.486  13.414  1.1975  0.2159  0.1514
 7749TIP3   OH244661   6.773   1.316  11.495 -0.3316  0.4424 -0.5901
 7749TIP3    H144662   6.749   1.237  11.542 -1.4599  1.0426 -0.1461
 7749TIP3    H244663   6.869   1.317  11.497 -0.3075 -1.1796 -1.0646
 7750TIP3   OH244664   4.175   2.615   2.224  0.0431 -0.2615  0.1193
 7750TIP3    H144665   4.115   2.650   2.160 -0.4991  0.6787  1.1258
 7750TIP3    H244666   4.165   2.520   2.217 -0.9054 -0.1317 -0.3306
 7751TIP3   OH244667   4.412   0.878  11.115  0.8436 -1.0676 -0.0781
 7751TIP3    H144668   4.402   0.789  11.080 -0.1332 -1.4849  1.2179
 7751TIP3    H244669   4.424   0.865  11.210  4.9692 -0.0774 -0.3397
 7752TIP3   OH244670   3.918   1.463  11.224  0.4980  0.2260  0.2601
 7752TIP3    H144671   3.849   1.494  11.166 -0.0652 -2.2935 -0.5065
 7752TIP3    H244672   3.999   1.481  11.177  0.0880 -0.9286 -0.9393
 7753TIP3   OH244673   5.383   3.103  11.794 -0.2287 -0.5163 -0.1799
 7753TIP3    H144674   5.461   3.064  11.834  0.4638  2.6826  1.8446
 7753TIP3    H244675   5.410   3.124  11.705  0.9024 -0.3915  0.1743
 7754TIP3   OH244676   3.358   6.533  14.905  0.1537  0.0746 -0.1078
 7754TIP3    H144677   3.398   6.447  14.910 -0.3073 -0.1535 -0.3092
 7754TIP3    H244678   3.317   6.536  14.818  0.0734  0.4490 -0.0592
 7755TIP3   OH244679   5.287   1.985  14.797 -0.5299 -0.4438 -0.0359
 7755TIP3    H144680   5.298   1.935  14.716  0.1387 -0.2502 -0.0715
 7755TIP3    H244681   5.375   1.992  14.833 -0.6485  0.5184  0.0828
 7756TIP3   OH244682   6.760   2.922  13.668 -0.4038 -1.0612 -0.3581
 7756TIP3    H144683   6.774   2.903  13.761 -0.7985 -1.1846 -0.3243
 7756TIP3    H244684   6.750   3.017  13.664 -0.5642 -1.0734 -0.2509
 7757TIP3   OH244685   5.323   2.042  12.814 -0.5551  0.6378  0.3844
 7757TIP3    H144686   5.323   1.958  12.860 -0.7998  0.4043 -0.0510
 7757TIP3    H244687   5.391   2.093  12.859 -1.1699  0.6076  1.3670
 7758TIP3   OH244688   5.587   4.532   2.530  0.5639  0.8160  0.6332
 7758TIP3    H144689   5.635   4.613   2.548  0.4252  1.0735 -0.1567
 7758TIP3    H244690   5.511   4.560   2.478  0.0662  0.2874  1.0634
 7759TIP3   OH244691   3.430   3.508  10.148  0.2573 -0.0293  0.4027
 7759TIP3    H144692   3.460   3.451  10.077 -0.0273  0.1210  0.1597
 7759TIP3    H244693   3.438   3.597  10.113 -2.3097 -0.0691 -0.3968
 7760TIP3   OH244694   4.543   3.154  11.788  0.2045 -0.2122 -0.0541
 7760TIP3    H144695   4.484   3.214  11.742 -1.9614 -1.4169  1.0246
 7760TIP3    H244696   4.551   3.079  11.730 -0.1204 -0.4586  0.2142
 7761TIP3   OH244697   6.888   2.965  14.763 -0.4936  0.2736 -0.2292
 7761TIP3    H144698   6.829   3.031  14.800 -1.7251 -0.2129 -1.2869
 7761TIP3    H244699   6.937   2.932  14.838 -0.4398  1.8286  0.4227
 7762TIP3   OH244700   6.625   3.620  15.319  0.2756  0.3711  0.6338
 7762TIP3    H144701   6.561   3.577  15.375  0.6214  0.8878  1.4418
 7762TIP3    H244702   6.710   3.587  15.350  0.5510  1.7069  1.3433
 7763TIP3   OH244703   2.411   2.156  13.528 -0.1191  0.2335  0.1253
 7763TIP3    H144704   2.343   2.207  13.573  1.3232  1.9135  0.4360
 7763TIP3    H244705   2.374   2.139  13.441 -1.2164  0.5202  0.5208
 7764TIP3   OH244706   2.100   5.003   4.085  0.0703 -0.0467  0.5916
 7764TIP3    H144707   2.007   4.987   4.067  0.7049 -0.9802 -2.1048
 7764TIP3    H244708   2.125   5.069   4.021  1.8231 -1.5661 -0.3482
 7765TIP3   OH244709   5.915   6.549   0.562  0.2138 -0.2520 -0.0306
 7765TIP3    H144710   5.836   6.497   0.575  1.1128 -1.2861  1.4222
 7765TIP3    H244711   5.898   6.599   0.482 -0.9768 -2.2223 -1.0600
 7766TIP3   OH244712   0.265   3.393   1.045  0.1365  0.0654 -0.5259
 7766TIP3    H144713   0.277   3.318   0.987  0.9176  0.2319 -0.5889
 7766TIP3    H244714   0.239   3.355   1.129  1.0872 -0.3086 -0.4010
 7767TIP3   OH244715   3.075   6.037  15.157 -0.1164  0.2287 -0.3420
 7767TIP3    H144716   3.035   6.039  15.070  1.6327  2.0495 -1.1262
 7767TIP3    H244717   3.092   6.129  15.178 -0.6544 -0.1755  2.0001
 7768TIP3   OH244718   2.224   1.621  14.872 -0.1793  0.0230  0.2389
 7768TIP3    H144719   2.255   1.690  14.931  1.9073 -1.0963  0.5093
 7768TIP3    H244720   2.181   1.558  14.929  1.4624 -0.8466  0.5702
 7769TIP3   OH244721   6.509   0.699   9.776  0.6436 -0.0061 -0.2578
 7769TIP3    H144722   6.580   0.642   9.746  0.1703 -0.8589  0.2045
 7769TIP3    H244723   6.430   0.655   9.746  0.2605  0.1861  0.4692
 7770TIP3   OH244724   6.286   4.391  13.840 -0.0680 -0.0073 -0.1100
 7770TIP3    H144725   6.372   4.358  13.817 -0.2762  0.0518 -0.9679
 7770TIP3    H244726   6.234   4.382  13.760 -0.3534  1.6158 -0.1117
 7771TIP3   OH244727   5.280   0.594  13.730  0.0891  0.0924 -0.6446
 7771TIP3    H144728   5.371   0.569  13.742  0.0899  0.0753 -0.6882
 7771TIP3    H244729   5.277   0.686  13.756 -0.5609 -0.7944  2.6134
 7772TIP3   OH244730   3.970   3.394   0.434  0.3185  0.3135  0.1709
 7772TIP3    H144731   4.026   3.435   0.500  1.7935 -2.8455  0.9926
 7772TIP3    H244732   3.977   3.451   0.358  2.1170  1.6896  1.3081
 7773TIP3   OH244733   4.622   5.132  12.405  0.1963 -0.0582  0.6824
 7773TIP3    H144734   4.562   5.058  12.395 -0.5881  0.5587  0.7668
 7773TIP3    H244735   4.644   5.135  12.498  0.4312 -0.3413  0.6359
 7774TIP3   OH244736   4.845   1.036  12.918 -0.0472 -0.7677  0.2525
 7774TIP3    H144737   4.931   1.001  12.892  0.3222 -0.5975  1.2066
 7774TIP3    H244738   4.798   0.960  12.952  0.2127 -0.6357  0.9356
 7775TIP3   OH244739   4.365   2.845   0.222  0.0473  0.3323  0.2503
 7775TIP3    H144740   4.414   2.763   0.234 -1.7035 -0.6434  1.0121
 7775TIP3    H244741   4.391   2.877   0.136  1.3670 -0.6170  0.2895
 7776TIP3   OH244742   0.278   6.890  13.840  0.3420  0.6648 -0.4501
 7776TIP3    H144743   0.322   6.813  13.804 -0.0300 -0.1384  0.7484
 7776TIP3    H244744   0.349   6.946  13.871  0.5956  0.5352 -0.7925
 7777TIP3   OH244745   6.882   2.777  12.774  0.7285 -0.3053  0.3768
 7777TIP3    H144746   6.920   2.758  12.860  1.4575  2.7356  0.7821
 7777TIP3    H244747   6.939   2.845  12.737 -0.9709  0.1571 -1.4868
 7778TIP3   OH244748   6.676   3.529  14.797 -0.5632  0.5620 -0.0810
 7778TIP3    H144749   6.654   3.618  14.825 -1.9926  0.5752 -1.2004
 7778TIP3    H244750   6.593   3.481  14.803  0.0442 -0.5165 -0.1732
 7779TIP3   OH244751   0.233   2.112  10.181 -0.0929 -0.0492  0.0586
 7779TIP3    H144752   0.325   2.140  10.184 -0.3123  0.8069 -0.7653
 7779TIP3    H244753   0.198   2.135  10.267  0.0888  0.9890 -0.1393
 7780TIP3   OH244754   1.307   3.988  11.208  0.2672  0.2624  0.3085
 7780TIP3    H144755   1.215   4.012  11.212  0.0551 -0.3538 -0.6643
 7780TIP3    H244756   1.346   4.027  11.286 -0.4579  1.9952 -0.1946
 7781TIP3   OH244757   6.029   2.843  14.887 -0.2429  0.0375  0.1563
 7781TIP3    H144758   6.001   2.753  14.870 -1.3283  0.2893  0.5592
 7781TIP3    H244759   6.048   2.879  14.800  1.0779 -0.8542  0.0621
 7782TIP3   OH244760   3.013   2.424  11.385 -0.3420 -0.2453  1.0652
 7782TIP3    H144761   2.959   2.457  11.457 -0.6548 -1.5948  1.4650
 7782TIP3    H244762   3.062   2.352  11.424  2.7435  1.7516  1.0749
 7783TIP3   OH244763   5.294   2.423   1.180 -0.4563  0.2617  0.1551
 7783TIP3    H144764   5.205   2.393   1.158 -0.0685 -0.3607 -0.6234
 7783TIP3    H244765   5.288   2.455   1.269 -1.1493 -1.1184  0.6126
 7784TIP3   OH244766   4.294   6.120   5.134 -0.1332  0.3987  0.0825
 7784TIP3    H144767   4.386   6.100   5.151 -0.1885 -0.7753 -0.9359
 7784TIP3    H244768   4.281   6.096   5.043 -1.2812  1.2054  0.0343
 7785TIP3   OH244769   3.485   4.952  14.658  0.2659 -0.1292  0.0798
 7785TIP3    H144770   3.426   4.911  14.595 -0.0873  0.8950 -0.2514
 7785TIP3    H244771   3.453   4.922  14.743 -1.2259  1.0486 -0.0495
 7786TIP3   OH244772   5.280   3.651  14.153 -0.6876  0.0564  0.0526
 7786TIP3    H144773   5.233   3.671  14.071 -0.3147  0.1727 -0.1346
 7786TIP3    H244774   5.227   3.583  14.195 -0.5443 -0.4691 -0.5992
 7787TIP3   OH244775   1.046   1.127   2.986  0.1801  0.2296  0.4005
 7787TIP3    H144776   1.012   1.089   3.067 -0.9103  1.1274  0.3731
 7787TIP3    H244777   0.971   1.133   2.928  0.8755 -0.0215 -0.5401
 7788TIP3   OH244778   4.885   0.908   1.017  0.0002  0.4644 -0.0003
 7788TIP3    H144779   4.856   0.877   0.931  1.2331  0.3715 -0.4004
 7788TIP3    H244780   4.914   0.998   1.002 -0.6099  0.7435  0.5000
 7789TIP3   OH244781   0.737   1.090  14.727  0.4850  0.1847  0.1979
 7789TIP3    H144782   0.818   1.068  14.680 -0.4104 -0.6417 -0.9782
 7789TIP3    H244783   0.765   1.107  14.817  1.9739 -0.0392 -0.2165
 7790TIP3   OH244784   5.666   4.463  11.056 -0.2338  1.0732  0.2221
 7790TIP3    H144785   5.733   4.461  10.988  1.9438  0.6206  2.3316
 7790TIP3    H244786   5.651   4.371  11.078 -1.3632  1.1860 -0.0161
 7791TIP3   OH244787   4.443   3.515   0.893 -0.1838 -0.2037  0.2060
 7791TIP3    H144788   4.359   3.472   0.910 -0.5189 -0.2274 -1.4114
 7791TIP3    H244789   4.491   3.453   0.838 -1.2032  1.9623 -3.2939
 7792TIP3   OH244790   2.572   1.216   3.508 -0.2477  0.2217 -0.1896
 7792TIP3    H144791   2.512   1.144   3.490  0.0687  0.2952 -1.6006
 7792TIP3    H244792   2.649   1.198   3.454  0.8314  0.3473  1.2899
 7793TIP3   OH244793   5.832   3.124  13.748 -0.0308 -0.6291  0.1275
 7793TIP3    H144794   5.885   3.045  13.733  1.2643  0.2618 -0.1406
 7793TIP3    H244795   5.775   3.129  13.672  2.7453  0.9061 -1.9411
 7794TIP3   OH244796   5.900   0.516   0.006  0.2046 -0.0097  0.5091
 7794TIP3    H144797   5.892   0.544   0.097  2.3261  1.7884  0.1882
 7794TIP3    H244798   5.864   0.589  -0.045  2.1996  0.5052 -0.2039
 7795TIP3   OH244799   6.506   2.728  14.520 -0.3011  0.4579 -0.2602
 7795TIP3    H144800   6.423   2.743  14.476 -0.1068  2.5919  0.0474
 7795TIP3    H244801   6.567   2.706  14.450 -0.8932 -0.1272 -0.5932
 7796TIP3   OH244802   3.212   4.570  12.772  0.4220 -0.4106 -0.3276
 7796TIP3    H144803   3.247   4.497  12.822  0.5427 -0.8650 -1.0592
 7796TIP3    H244804   3.277   4.586  12.704 -0.8862 -1.4688 -1.9013
 7797TIP3   OH244805   3.079   0.732  15.252  0.0929 -0.2756 -1.1534
 7797TIP3    H144806   3.148   0.775  15.201  2.2738 -0.3760  1.5875
 7797TIP3    H244807   3.084   0.640  15.226  0.5426 -0.1600 -1.4888
 7798TIP3   OH244808   6.411   6.022   0.466 -0.1121  0.1949  0.2250
 7798TIP3    H144809   6.464   6.029   0.386 -0.2508 -0.5532  0.0622
 7798TIP3    H244810   6.475   6.020   0.537  0.1878 -2.2560 -0.0606
 7799TIP3   OH244811   4.715   2.926  15.033  0.5100  0.7743 -0.6990
 7799TIP3    H144812   4.793   2.944  14.980  1.4551  0.8816  0.6883
 7799TIP3    H244813   4.663   3.006  15.027  1.0030  1.0890 -0.7916
 7800TIP3   OH244814   2.415   4.685   0.037 -0.2489  0.0318 -0.7159
 7800TIP3    H144815   2.432   4.761  -0.019  0.7027 -0.3988 -1.0116
 7800TIP3    H244816   2.414   4.611  -0.023 -1.0169 -0.2114 -0.4016
 7801TIP3   OH244817   6.475   2.041  13.740  0.0285  0.7283  0.2922
 7801TIP3    H144818   6.474   2.002  13.652  0.8263 -0.4424  0.7877
 7801TIP3    H244819   6.540   1.989  13.788 -1.2645  0.5837  1.9269
 7802TIP3   OH244820   6.866   1.231  11.771 -0.2592 -0.5078  0.2937
 7802TIP3    H144821   6.856   1.319  11.806 -0.0908 -0.5245  0.3831
 7802TIP3    H244822   6.939   1.237  11.710 -0.3110 -0.5629  0.2266
 7803TIP3   OH244823   7.118   2.776  12.581 -0.3278  0.0115  0.0545
 7803TIP3    H144824   7.046   2.718  12.558  0.2296 -0.8858  0.5735
 7803TIP3    H244825   7.075   2.858  12.607 -1.0832  0.0759 -1.3288
 7804TIP3   OH244826   3.377   4.456  15.450  0.2795  0.1744 -0.0838
 7804TIP3    H144827   3.421   4.541  15.446  0.2547  0.1520 -0.8717
 7804TIP3    H244828   3.314   4.464  15.522 -0.2145  1.0490 -0.6151
 7805TIP3   OH244829   6.307   3.614  14.530 -0.4597 -0.4782  0.1534
 7805TIP3    H144830   6.300   3.704  14.499  0.5816 -1.0758 -1.9318
 7805TIP3    H244831   6.262   3.613  14.614 -1.8849  1.6103 -0.5636
 7806TIP3   OH244832   5.767   1.028  10.083  0.2446 -0.1027  0.3243
 7806TIP3    H144833   5.771   1.051   9.990  0.2530 -0.2376  0.2926
 7806TIP3    H244834   5.746   0.935  10.084 -0.9163  0.1492  0.4728
 7807TIP3   OH244835   2.216   0.265  12.588 -0.0696 -0.2846 -0.3672
 7807TIP3    H144836   2.290   0.307  12.544 -0.3045  0.1543 -0.3398
 7807TIP3    H244837   2.145   0.329  12.583 -0.3812 -0.6128 -0.1881
 7808TIP3   OH244838   6.967   0.636   0.946 -0.9176  0.2318  0.0232
 7808TIP3    H144839   6.911   0.708   0.921 -1.0390 -0.2969 -1.2560
 7808TIP3    H244840   6.996   0.597   0.863 -0.5186 -0.9163  0.6793
 7809TIP3   OH244841   5.492   6.214   0.578  0.3888  0.0275  0.8969
 7809TIP3    H144842   5.399   6.227   0.595  0.2823  0.8179 -0.2326
 7809TIP3    H244843   5.495   6.167   0.495  0.9905 -0.4605  1.1899
 7810TIP3   OH244844   2.925   1.191   0.900 -0.0647 -0.1522  0.1601
 7810TIP3    H144845   2.949   1.256   0.833  1.0786  0.6635  1.3213
 7810TIP3    H244846   3.005   1.182   0.953  0.3433 -3.7404 -0.9433
 7811TIP3   OH244847   6.677   4.469  11.838 -0.1097  0.1994  0.1727
 7811TIP3    H144848   6.599   4.421  11.809 -0.3118  0.6300  0.0125
 7811TIP3    H244849   6.721   4.409  11.898  0.4328 -0.8176 -1.1907
 7812TIP3   OH244850   3.864   4.185   1.368  0.3825 -0.0525 -1.0239
 7812TIP3    H144851   3.769   4.180   1.374  0.4289  0.9372  1.1171
 7812TIP3    H244852   3.894   4.101   1.404  0.3708  1.3354  2.4347
 7813TIP3   OH244853   5.756   2.489  15.494  0.4836  0.2610 -0.0366
 7813TIP3    H144854   5.845   2.480  15.461 -0.1336 -0.5136 -1.5636
 7813TIP3    H244855   5.734   2.402  15.528 -0.5099 -0.2458 -1.8786
 7814TIP3   OH244856   6.738   0.073  14.412  0.1470 -0.1415 -0.4149
 7814TIP3    H144857   6.678   0.146  14.395 -1.0770 -0.6523  1.6277
 7814TIP3    H244858   6.708   0.035  14.494  2.5095 -1.1975  0.0194
 7815TIP3   OH244859   4.929   3.928   0.772  0.3445 -0.6068  0.4028
 7815TIP3    H144860   4.836   3.906   0.767  0.6730 -1.5772 -2.2456
 7815TIP3    H244861   4.931   4.023   0.780 -0.8674 -0.4764 -0.6788
 7816TIP3   OH244862   4.559   6.066   0.964  0.1574  0.4440  0.0617
 7816TIP3    H144863   4.549   5.992   0.905  0.0719  0.2010  0.3806
 7816TIP3    H244864   4.513   6.040   1.044 -1.4685  1.5745 -0.4888
 7817TIP3   OH244865   2.825   0.375  14.240 -0.1098  0.0685 -0.3154
 7817TIP3    H144866   2.810   0.380  14.146 -1.2249 -1.4525 -0.2401
 7817TIP3    H244867   2.738   0.387  14.279  0.2231 -0.0788  0.4850
 7818TIP3   OH244868   5.980   1.324   0.491  0.0343  0.4764  0.2991
 7818TIP3    H144869   5.978   1.273   0.410 -0.8080 -1.5948  1.5658
 7818TIP3    H244870   6.031   1.270   0.551 -3.0240 -0.1437  2.4623
 7819TIP3   OH244871   2.235   2.797   2.061 -0.0788  0.7002  0.4434
 7819TIP3    H144872   2.312   2.754   2.098 -0.8737 -1.3930 -0.2644
 7819TIP3    H244873   2.191   2.836   2.137 -0.1389 -1.0177  1.3143
 7820TIP3   OH244874   6.508   1.643   2.115 -0.2181  0.1544 -0.5164
 7820TIP3    H144875   6.554   1.689   2.186 -1.6537  0.8284  0.0096
 7820TIP3    H244876   6.543   1.683   2.035 -0.4938  1.2562 -0.1019
 7821TIP3   OH244877   4.926   1.091  14.933 -0.1169  0.1545 -0.0232
 7821TIP3    H144878   4.962   1.003  14.929 -0.1706  0.1220  0.2556
 7821TIP3    H244879   4.858   1.092  14.865 -0.5823 -0.2277  0.4387
 7822TIP3   OH244880   0.602   1.702  15.053  0.1192 -0.2854 -0.2708
 7822TIP3    H144881   0.567   1.779  15.098  1.6835  1.5034 -2.0102
 7822TIP3    H244882   0.529   1.672  14.998 -0.1175  0.7118 -0.5120
 7823TIP3   OH244883   4.870   3.576  12.987  0.1849 -0.1399  0.4000
 7823TIP3    H144884   4.909   3.616  13.065 -0.2899 -1.2931  1.2401
 7823TIP3    H244885   4.815   3.505  13.021  0.1316 -0.7856 -0.9952
 7824TIP3   OH244886   3.544   1.414  14.397  0.5827 -0.4895  0.1466
 7824TIP3    H144887   3.503   1.335  14.433 -0.6352 -0.5370 -1.3131
 7824TIP3    H244888   3.522   1.483  14.460 -0.6703 -0.7655  0.0255
 7825TIP3   OH244889   5.048   4.169   3.315 -0.0749 -0.5197 -0.0358
 7825TIP3    H144890   5.135   4.153   3.279  0.3690  0.8040  0.4041
 7825TIP3    H244891   5.051   4.133   3.404  1.4307  3.2242  1.5287
 7826TIP3   OH244892   3.841   2.516   2.106  0.1277  0.6208 -0.1112
 7826TIP3    H144893   3.869   2.453   2.171  0.2168 -0.5487 -1.2622
 7826TIP3    H244894   3.921   2.541   2.060  0.1346  1.7787  0.4929
 7827TIP3   OH244895   3.194   3.101   2.013  0.7790  0.5993  0.0861
 7827TIP3    H144896   3.213   3.040   2.084 -1.8024  2.3830  2.3984
 7827TIP3    H244897   3.155   3.046   1.945 -1.5531 -0.4358  2.1457
 7828TIP3   OH244898   6.823   2.563  13.761 -0.5842 -0.3627  0.2284
 7828TIP3    H144899   6.849   2.651  13.733 -0.1787 -0.3852  0.5333
 7828TIP3    H244900   6.860   2.554  13.848 -2.5483  0.0236  1.1372
 7829TIP3   OH244901   6.579   3.035  15.441  0.3622 -0.5858 -0.0313
 7829TIP3    H144902   6.584   3.122  15.481  0.5355 -0.5030 -0.2361
 7829TIP3    H244903   6.634   2.980  15.498  1.0044 -0.3630 -0.4350
 7830TIP3   OH244904   2.114   2.749  13.293 -0.6153 -0.0030  0.3731
 7830TIP3    H144905   2.162   2.823  13.330 -0.8156 -0.5498  1.7723
 7830TIP3    H244906   2.081   2.782  13.209  0.2400  1.1203  0.4567
 7831TIP3   OH244907   4.390   5.445   0.623 -0.2182  0.3394 -0.1470
 7831TIP3    H144908   4.362   5.358   0.592 -0.8969 -0.1799  1.8265
 7831TIP3    H244909   4.477   5.430   0.661 -0.1443  0.6018 -0.2148
 7832TIP3   OH244910   1.929   2.791  15.368  0.2388  0.0713 -0.2745
 7832TIP3    H144911   1.841   2.764  15.394  0.5166 -1.6326 -1.0879
 7832TIP3    H244912   1.915   2.870  15.315 -0.5584  1.6458  2.2041
 7833TIP3   OH244913   3.311   5.271  14.392  0.3765 -0.1324 -0.2494
 7833TIP3    H144914   3.247   5.296  14.459 -1.5799 -0.9928 -1.7442
 7833TIP3    H244915   3.313   5.175  14.395  2.3556 -0.0897  0.4431
 7834TIP3   OH244916   1.124   1.902  11.164  0.1643 -0.0767 -0.3891
 7834TIP3    H144917   1.196   1.851  11.201  0.9589 -0.3396 -2.2563
 7834TIP3    H244918   1.103   1.859  11.081 -0.0002  1.8771 -1.3989
 7835TIP3   OH244919   5.661   2.872   1.091  0.2063 -0.0700  0.7035
 7835TIP3    H144920   5.722   2.903   1.157 -1.3431  0.0011  2.1548
 7835TIP3    H244921   5.603   2.812   1.139  0.8080 -2.2696 -1.2112
 7836TIP3   OH244922   5.137   3.999  13.873 -0.2575  0.5719 -0.2821
 7836TIP3    H144923   5.111   3.939  13.942 -0.0765  0.1043 -0.6154
 7836TIP3    H244924   5.138   4.085  13.915 -1.3916  0.4679 -0.0339
 7837TIP3   OH244925   2.018   1.516  14.730 -0.3049  0.5547 -0.3644
 7837TIP3    H144926   2.027   1.523  14.635 -1.8323  2.0802 -0.4065
 7837TIP3    H244927   2.033   1.605  14.763 -1.0814  0.2943  0.7205
 7838TIP3   OH244928   0.619   3.562   0.324  0.3217  0.6612 -0.2494
 7838TIP3    H144929   0.674   3.578   0.247 -1.1142  1.3073 -1.1579
 7838TIP3    H244930   0.620   3.645   0.371  1.1814  0.2728  0.4297
 7839TIP3   OH244931   4.495   3.961  14.078 -0.3680  0.2782 -0.1493
 7839TIP3    H144932   4.493   3.932  13.986  1.6463  0.0798 -0.1733
 7839TIP3    H244933   4.481   3.881  14.128 -1.1774  0.3354 -0.2846
 7840TIP3   OH244934   4.969   2.719  12.935  0.4238 -0.2681  0.0723
 7840TIP3    H144935   5.059   2.732  12.906  0.2997 -2.2928 -1.3647
 7840TIP3    H244936   4.970   2.635  12.981 -1.1957 -1.7112 -2.3731
 7841TIP3   OH244937   6.553   2.514   1.257  0.0392  0.3374  0.1276
 7841TIP3    H144938   6.535   2.598   1.215  4.1619  1.3461  0.1836
 7841TIP3    H244939   6.570   2.454   1.184  0.9127  0.5150  0.1830
 7842TIP3   OH244940   5.297   2.512  14.439 -0.2052 -0.3035 -0.2907
 7842TIP3    H144941   5.366   2.445  14.441 -2.2326 -2.4686 -1.2212
 7842TIP3    H244942   5.264   2.514  14.529 -0.6713 -1.1585 -0.4323
 7843TIP3   OH244943   1.516   4.785  15.154 -0.0894 -0.3734  0.6451
 7843TIP3    H144944   1.464   4.720  15.107 -1.3125  0.7888  0.3517
 7843TIP3    H244945   1.456   4.858  15.169  0.6946 -0.1037  2.7123
 7844TIP3   OH244946   5.301   1.290  11.641  0.1254 -0.0392  0.2808
 7844TIP3    H144947   5.309   1.377  11.679 -0.0586 -0.5164  1.4231
 7844TIP3    H244948   5.387   1.251  11.653 -0.6262 -1.0990  2.4920
 7845TIP3   OH244949   6.807   2.399  11.409 -0.1184 -0.0244  0.6071
 7845TIP3    H144950   6.756   2.356  11.341 -0.0744  0.7137  0.0960
 7845TIP3    H244951   6.770   2.367  11.491 -0.5560 -0.4687  0.2384
 7846TIP3   OH244952   3.906   1.109  14.261  0.6356 -0.3306  0.1776
 7846TIP3    H144953   3.910   1.088  14.354 -1.0527 -1.2917  0.0582
 7846TIP3    H244954   3.849   1.186  14.256  1.6452  0.4211  0.0296
 7847TIP3   OH244955   4.223   1.575  14.128 -0.5661 -0.1460 -0.2775
 7847TIP3    H144956   4.178   1.491  14.133 -0.6960 -0.1321 -1.1748
 7847TIP3    H244957   4.153   1.640  14.118 -0.3512 -0.1337 -1.7563
 7848TIP3   OH244958   3.681   4.243   0.263 -0.4810  0.1156  0.0511
 7848TIP3    H144959   3.696   4.240   0.358  1.5733 -0.5327 -0.2709
 7848TIP3    H244960   3.740   4.311   0.231  1.5410 -2.1776 -1.2108
 7849TIP3   OH244961   3.761   4.127  12.086 -0.7743 -0.4627 -0.4983
 7849TIP3    H144962   3.826   4.177  12.135 -1.2529  0.3438 -0.6732
 7849TIP3    H244963   3.701   4.193  12.052 -1.1606 -1.1236 -1.1119
 7850TIP3   OH244964   5.502   2.762  11.501 -0.1036 -0.3162 -0.6967
 7850TIP3    H144965   5.560   2.706  11.449  1.3213 -0.3023  0.8381
 7850TIP3    H244966   5.441   2.800  11.437  2.2163  0.4598 -2.5204
 7851TIP3   OH244967   0.239   5.266  15.459  1.4507 -0.0729  0.3834
 7851TIP3    H144968   0.237   5.344  15.404  2.4313 -0.9361 -0.8960
 7851TIP3    H244969   0.215   5.194  15.401 -0.9530 -0.5684  1.8869
 7852TIP3   OH244970   3.849   3.891  11.929  0.1484 -0.6057  0.9394
 7852TIP3    H144971   3.855   3.820  11.993 -0.4299 -1.6514 -0.1380
 7852TIP3    H244972   3.829   3.969  11.981 -1.2745 -1.6098  1.9380
 7853TIP3   OH244973   4.760   3.518  13.256 -0.3089  0.3178  0.0478
 7853TIP3    H144974   4.706   3.572  13.314 -1.8273 -2.3255  1.1575
 7853TIP3    H244975   4.704   3.445  13.231  1.4279 -0.3318 -2.1187
 7854TIP3   OH244976   4.707   4.751  13.503 -0.9392 -0.2043 -0.4745
 7854TIP3    H144977   4.728   4.657  13.507 -0.7417 -0.1455  0.0097
 7854TIP3    H244978   4.667   4.764  13.418 -1.3367 -0.8099 -0.3797
 7855TIP3   OH244979   3.280   2.831  14.793 -0.0886  0.4488 -0.1850
 7855TIP3    H144980   3.337   2.808  14.719  0.0219  1.5301 -0.4472
 7855TIP3    H244981   3.236   2.912  14.765 -0.5539  0.4887  0.6571
 7856TIP3   OH244982   2.772   1.276  13.524 -0.3872 -0.3502 -0.4812
 7856TIP3    H144983   2.822   1.313  13.451 -0.0868 -0.3601 -0.2838
 7856TIP3    H244984   2.702   1.339  13.541 -0.5664 -0.4375 -0.8956
 7857TIP3   OH244985   6.021   6.074  11.797 -0.0714 -0.7483  0.4554
 7857TIP3    H144986   6.087   6.034  11.853 -1.1172  0.8100  2.9435
 7857TIP3    H244987   6.021   6.167  11.823 -1.6507 -0.2849 -1.0769
 7858TIP3   OH244988   4.098   4.184  11.295 -0.6235  0.4942 -0.1596
 7858TIP3    H144989   4.152   4.149  11.224 -0.7576 -1.1154  0.4978
 7858TIP3    H244990   4.078   4.274  11.268  1.3594  0.7205 -0.9787
 7859TIP3   OH244991   6.876   1.955   0.045  0.5701 -0.4238 -0.1602
 7859TIP3    H144992   6.921   2.000  -0.027  0.3903 -0.1227 -0.0844
 7859TIP3    H244993   6.940   1.890   0.075  0.9747  0.0283 -0.0287
 7860TIP3   OH244994   0.020   6.796   1.189 -0.5110  0.8139  0.5909
 7860TIP3    H144995  -0.069   6.764   1.197 -0.2617  0.5456  2.6155
 7860TIP3    H244996   0.018   6.884   1.225 -0.1020  1.1049 -0.0673
 7861TIP3   OH244997   6.196   2.289  14.321 -0.4963  0.2263 -0.4972
 7861TIP3    H144998   6.153   2.289  14.236 -1.7580 -0.2297  0.1225
 7861TIP3    H244999   6.146   2.225  14.373  2.8293 -2.7102 -0.7058
 7862TIP3   OH245000   5.282   6.772  15.200 -0.3745 -0.0507  0.5126
 7862TIP3    H145001   5.206   6.752  15.145  0.2762 -1.6572  0.1536
 7862TIP3    H245002   5.261   6.856  15.241 -2.6183 -0.7638  0.8987
 7863TIP3   OH245003   3.406   5.633  14.174  0.5926  0.2998  0.1046
 7863TIP3    H145004   3.448   5.645  14.089  0.8357  1.3067  0.3642
 7863TIP3    H245005   3.316   5.664  14.161  0.3645 -0.4037 -0.0273
 7864TIP3   OH245006   3.556   5.240   2.436 -0.4025  0.5138  0.2146
 7864TIP3    H145007   3.619   5.292   2.385  0.2737 -1.1757 -0.7085
 7864TIP3    H245008   3.483   5.300   2.451  0.8568  2.0968  0.1725
 7865TIP3   OH245009   6.368   3.617  11.985  0.4783 -0.4792  0.3929
 7865TIP3    H145010   6.322   3.582  11.909  1.7930 -0.4525 -0.4310
 7865TIP3    H245011   6.315   3.692  12.012  0.8279  0.4720 -1.4687
 7866TIP3   OH245012   4.374   1.292   1.965  0.0974  0.1890  0.2909
 7866TIP3    H145013   4.428   1.360   1.924  0.1450  0.7138  1.2016
 7866TIP3    H245014   4.287   1.305   1.928 -0.4284  2.2067  2.0733
 7867TIP3   OH245015   5.700   5.635   1.458 -0.1383 -0.2761  0.4400
 7867TIP3    H145016   5.610   5.613   1.480  0.2826 -3.1189 -0.3670
 7867TIP3    H245017   5.705   5.623   1.363  1.0025  0.1318  0.4365
 7868TIP3   OH245018   4.092   1.279  12.624 -0.1058  0.3858 -0.7444
 7868TIP3    H145019   4.134   1.213  12.678  0.8505 -0.3405 -2.3523
 7868TIP3    H245020   4.012   1.302  12.672 -0.0041 -1.2848  0.2593
 7869TIP3   OH245021   4.989   4.264  13.032 -0.0123 -0.1316  0.5559
 7869TIP3    H145022   4.998   4.324  12.958 -1.4569 -0.2731  0.2499
 7869TIP3    H245023   4.895   4.253  13.042  0.2129 -3.5677 -0.3990
 7870TIP3   OH245024   0.481   2.602  13.546  0.0103 -0.4354 -0.4188
 7870TIP3    H145025   0.517   2.672  13.492  0.4720  0.0049  0.4608
 7870TIP3    H245026   0.433   2.648  13.616  0.7395 -0.9933  0.4478
 7871TIP3   OH245027   2.441   3.649  11.687 -0.0529  0.8121 -0.2984
 7871TIP3    H145028   2.534   3.665  11.671 -0.1437  2.3767  0.6672
 7871TIP3    H245029   2.410   3.605  11.608  1.6004 -0.0908 -0.4583
 7872TIP3   OH245030   2.188   0.148  14.551  0.0063  0.7747 -0.6171
 7872TIP3    H145031   2.280   0.139  14.573 -0.7215 -2.1903  1.4520
 7872TIP3    H245032   2.183   0.127  14.458  1.1560 -1.1183 -0.2677
 7873TIP3   OH245033   5.483   3.769  11.551  0.1506 -0.2549  0.1805
 7873TIP3    H145034   5.576   3.781  11.565  0.4165 -2.8982  0.9298
 7873TIP3    H245035   5.441   3.831  11.611  1.3923  1.0624 -0.2840
 7874TIP3   OH245036   4.344   1.311  12.260 -0.0760 -0.1154 -0.3800
 7874TIP3    H145037   4.396   1.391  12.251 -0.2686 -0.0747 -1.1920
 7874TIP3    H245038   4.338   1.296  12.355  0.6047  0.4071 -0.2495
 7875TIP3   OH245039   5.300   3.217  14.903  0.0394 -0.0538 -0.0325
 7875TIP3    H145040   5.238   3.145  14.898 -0.0342 -0.0889  1.1959
 7875TIP3    H245041   5.365   3.198  14.835 -0.9401 -0.3455 -0.8993
 7876TIP3   OH245042   6.037   3.843   1.594 -0.2359  0.3532  0.1576
 7876TIP3    H145043   5.988   3.917   1.630  0.4381  1.1027 -0.4427
 7876TIP3    H245044   6.035   3.857   1.500 -0.2929 -0.5218  0.0303
 7877TIP3   OH245045   6.501   4.781   9.834  1.0125  0.0643 -0.0042
 7877TIP3    H145046   6.464   4.712   9.779 -2.6567  1.7815  0.1754
 7877TIP3    H245047   6.458   4.770   9.918 -0.5150  3.2201 -0.2991
 7878TIP3   OH245048   1.103   1.907  13.582 -0.2651  0.1117 -0.6855
 7878TIP3    H145049   1.131   1.844  13.516 -1.9091 -1.8285  0.4541
 7878TIP3    H245050   1.184   1.951  13.607  0.6405 -0.2727 -2.7607
 7879TIP3   OH245051   5.452   0.068  13.989 -0.0546  0.4221  0.3219
 7879TIP3    H145052   5.371   0.058  13.939  2.3784 -3.5336 -3.2612
 7879TIP3    H245053   5.449  -0.001  14.055  0.2421  0.4381  0.3544
 7880TIP3   OH245054   4.764   6.348  11.826  0.1438  0.5606  0.2041
 7880TIP3    H145055   4.840   6.335  11.770  1.1105  1.2072  1.3351
 7880TIP3    H245056   4.706   6.275  11.807  2.3796 -1.6186  1.4855
 7881TIP3   OH245057   3.456   3.879  14.194 -0.0596 -0.5162 -0.3085
 7881TIP3    H145058   3.428   3.864  14.285 -2.9439 -2.9043 -1.5148
 7881TIP3    H245059   3.375   3.876  14.143  1.3044  2.4222 -2.8441
 7882TIP3   OH245060   3.056   7.117   2.888 -0.0596  0.2957 -0.1063
 7882TIP3    H145061   3.044   7.061   2.965  0.8598  1.3450  0.8081
 7882TIP3    H245062   3.151   7.126   2.879 -0.1849  1.0827 -0.7022
 7883TIP3   OH245063   1.712   1.352  13.175  0.1502  0.2962  0.0362
 7883TIP3    H145064   1.764   1.395  13.242 -0.3936  0.9189  0.0582
 7883TIP3    H245065   1.621   1.373  13.198 -0.0491  0.2641 -0.7268
 7884TIP3   OH245066   6.337   0.964  10.239 -0.6050  0.2397  0.0511
 7884TIP3    H145067   6.410   0.905  10.224 -1.5563 -0.4134 -2.3526
 7884TIP3    H245068   6.261   0.906  10.249 -0.7676  0.8791  3.0404
 7885TIP3   OH245069   0.056   0.746  11.867  0.2528  0.1065 -0.1567
 7885TIP3    H145070   0.079   0.838  11.876 -0.0400  0.1564  0.0867
 7885TIP3    H245071   0.138   0.703  11.843  0.9134  0.1014  1.9766
 7886TIP3   OH245072   4.234   3.046  12.528 -0.5362 -0.4210  0.1810
 7886TIP3    H145073   4.301   2.992  12.488  0.1521  1.1569 -0.8263
 7886TIP3    H245074   4.152   3.015  12.489 -0.1241 -0.5494 -0.5919
 7887TIP3   OH245075   2.580   6.641  10.762 -0.2922  0.1864  0.3823
 7887TIP3    H145076   2.650   6.627  10.698 -0.1567 -2.2430  0.9934
 7887TIP3    H245077   2.594   6.730  10.794  0.1320  1.1461 -2.3393
 7888TIP3   OH245078   6.847   3.199  12.807  0.6701  0.3194 -0.4491
 7888TIP3    H145079   6.919   3.262  12.816  0.6358  0.3489 -0.3691
 7888TIP3    H245080   6.774   3.252  12.773  1.4947 -0.2875 -3.2804
 7889TIP3   OH245081   1.380   6.045  13.287 -0.8649 -0.6225  0.1334
 7889TIP3    H145082   1.361   5.962  13.331 -2.1091  0.2010  1.1922
 7889TIP3    H245083   1.331   6.040  13.205  0.0204 -1.4203 -0.3542
 7890TIP3   OH245084   3.641   5.890  13.730  0.1997  0.2048 -0.3161
 7890TIP3    H145085   3.732   5.903  13.703  0.6016 -0.0632  0.8747
 7890TIP3    H245086   3.637   5.925  13.819 -0.3848 -1.5831  0.3802
 7891TIP3   OH245087   3.138   4.732   1.179  0.4320  0.4191 -0.2855
 7891TIP3    H145088   3.116   4.643   1.150  0.5177 -0.0029  0.9241
 7891TIP3    H245089   3.157   4.779   1.098 -0.5571 -0.4078 -1.0168
 7892TIP3   OH245090   4.474   0.664  12.542  0.6030  0.3648  0.1231
 7892TIP3    H145091   4.399   0.716  12.570 -0.0725 -0.7439  0.4252
 7892TIP3    H245092   4.477   0.673  12.447 -0.7933 -0.7249 -0.0457
 7893TIP3   OH245093   0.423   4.329   0.942 -0.5643 -0.2431 -0.5178
 7893TIP3    H145094   0.404   4.236   0.954  1.0714 -0.6876 -1.2976
 7893TIP3    H245095   0.432   4.363   1.032  0.0290 -1.0825 -0.2574
 7894TIP3   OH245096   5.747   3.791   1.365  0.0682  0.1513 -0.2226
 7894TIP3    H145097   5.783   3.733   1.298 -1.3322  0.3130 -1.1357
 7894TIP3    H245098   5.803   3.868   1.363 -0.9062  0.8439 -2.3642
 7895TIP3   OH245099   2.437   1.303  15.285 -0.1921  0.3307  0.1830
 7895TIP3    H145100   2.429   1.218  15.329 -1.4538 -0.4701 -1.5177
 7895TIP3    H245101   2.507   1.291  15.221  0.5835  1.0217  0.8838
 7896TIP3   OH245102   3.420   3.552   0.840 -0.1123 -0.2544 -0.8177
 7896TIP3    H145103   3.369   3.495   0.897 -0.7178  0.0803 -1.0249
 7896TIP3    H245104   3.361   3.574   0.767 -0.2634  1.5048 -0.1960
 7897TIP3   OH245105   5.185   1.615  14.239  0.1578 -0.3384 -0.0744
 7897TIP3    H145106   5.243   1.683  14.204 -0.6145  0.7430  0.7265
 7897TIP3    H245107   5.111   1.663  14.275 -1.6269 -1.7535 -1.7674
 7898TIP3   OH245108   1.410   0.052   2.332  1.3308 -0.3056 -0.3183
 7898TIP3    H145109   1.488   0.015   2.291  1.9936  1.3014 -0.5355
 7898TIP3    H245110   1.398   0.000   2.412  2.9745 -0.1671  0.0255
 7899TIP3   OH245111   0.162   2.811   0.668  0.0939 -0.3631 -0.3927
 7899TIP3    H145112   0.093   2.850   0.722  0.1275 -1.3244  0.3596
 7899TIP3    H245113   0.132   2.825   0.578 -0.9708 -0.5425 -0.0797
 7900TIP3   OH245114   2.234   2.164   0.505 -0.0014  0.2251 -0.2027
 7900TIP3    H145115   2.187   2.245   0.485 -2.0053 -0.9970 -0.5660
 7900TIP3    H245116   2.291   2.149   0.430 -1.1753  0.2074 -1.1015
 7901TIP3   OH245117   4.871   6.868  13.719  0.0401  0.4108  0.2382
 7901TIP3    H145118   4.849   6.929  13.649  0.7169 -1.7363 -1.8696
 7901TIP3    H245119   4.929   6.918  13.777 -0.7414  2.2818 -0.5410
 7902TIP3   OH245120   2.555   3.391  13.663 -0.1247 -0.5415  0.7396
 7902TIP3    H145121   2.568   3.455  13.593  0.7242 -1.5379 -0.0101
 7902TIP3    H245122   2.642   3.379  13.701 -0.2775 -1.3140  0.8422
 7903TIP3   OH245123   2.356   4.104  14.877 -0.1616 -0.3203 -0.1699
 7903TIP3    H145124   2.439   4.142  14.847 -0.5817 -0.2717 -1.2993
 7903TIP3    H245125   2.317   4.067  14.798  0.0617 -2.8018  0.8593
 7904TIP3   OH245126   1.396   3.973  15.075  0.1813  0.5086  0.0000
 7904TIP3    H145127   1.464   4.015  15.022  0.1130  0.0621 -0.4411
 7904TIP3    H245128   1.314   3.998  15.033  0.1650 -0.4615 -0.5457
 7905TIP3   OH245129   5.025   1.695  15.336  0.3942 -0.2189  0.2663
 7905TIP3    H145130   5.119   1.688  15.356  0.9982  1.4988 -1.8487
 7905TIP3    H245131   4.997   1.604  15.326  2.3741 -0.7047 -1.3790
 7906TIP3   OH245132   2.392   3.424   0.880  0.0754  0.3245 -0.2607
 7906TIP3    H145133   2.389   3.354   0.946  1.2485  0.0477 -0.4958
 7906TIP3    H245134   2.357   3.500   0.926 -0.3882 -0.2006  0.2715
 7907TIP3   OH245135   6.102   4.566  15.178 -0.0064  0.6152  0.1260
 7907TIP3    H145136   6.072   4.485  15.220 -2.0962  0.1204 -2.2271
 7907TIP3    H245137   6.131   4.539  15.091 -0.1539  2.3025 -0.4696
 7908TIP3   OH245138   3.787   2.997  14.638 -0.2464 -0.3190 -0.5854
 7908TIP3    H145139   3.774   3.083  14.598  3.4110  0.0537 -1.1252
 7908TIP3    H245140   3.816   2.941  14.565 -1.6141 -1.7601 -0.0379
 7909TIP3   OH245141   3.348   1.356  11.837  0.0282  0.3131 -0.4283
 7909TIP3    H145142   3.424   1.325  11.788  0.3491  1.5380 -0.7275
 7909TIP3    H245143   3.322   1.437  11.793 -0.3847  0.8284  0.7328
 7910TIP3   OH245144   1.599   1.998  10.105  0.2205 -0.0830  0.3503
 7910TIP3    H145145   1.547   2.011  10.184 -0.5298  0.0907 -0.1749
 7910TIP3    H245146   1.536   2.000  10.034  1.1155  1.4992 -0.4001
 7911TIP3   OH245147   4.302   2.152  12.275 -0.2139 -0.2158 -0.1231
 7911TIP3    H145148   4.290   2.156  12.180  2.7585  1.3940 -0.5027
 7911TIP3    H245149   4.241   2.085  12.304 -2.7549  0.7877 -2.8826
 7912TIP3   OH245150   0.453   0.030  14.314  0.2826 -0.5995  0.6421
 7912TIP3    H145151   0.374  -0.019  14.289  0.2433 -0.6480  0.8585
 7912TIP3    H245152   0.452   0.029  14.410 -0.3160  0.7744  0.6674
 7913TIP3   OH245153   0.162   4.179   1.041  0.4472 -0.3092  0.4501
 7913TIP3    H145154   0.211   4.101   1.013  0.9431 -0.1838  0.9697
 7913TIP3    H245155   0.170   4.239   0.967  0.1702 -0.7053  0.0964
 7914TIP3   OH245156   0.273   6.337  15.396  0.0825  0.0463 -0.3360
 7914TIP3    H145157   0.343   6.366  15.454 -0.6909  3.5068 -1.0470
 7914TIP3    H245158   0.304   6.359  15.308 -0.0340 -2.4624 -1.0588
 7915TIP3   OH245159   4.792   2.893  11.917  0.0935 -0.1360 -0.0008
 7915TIP3    H145160   4.879   2.877  11.955  0.1573  0.6830  0.2062
 7915TIP3    H245161   4.762   2.807  11.889  1.3063 -0.3265 -0.7693
 7916TIP3   OH245162   6.994   5.914   0.742 -0.0909 -0.2920 -0.0847
 7916TIP3    H145163   7.011   5.938   0.651 -0.1495 -1.2704 -0.3539
 7916TIP3    H245164   7.059   5.846   0.761  0.4752  0.4954  0.8678
 7917TIP3   OH245165   5.764   2.890  12.082 -0.2855 -0.6752 -0.1562
 7917TIP3    H145166   5.736   2.970  12.037  0.0178  1.0446  2.5899
 7917TIP3    H245167   5.813   2.842  12.016 -0.9926  1.1232 -2.0560
 7918TIP3   OH245168   6.239   3.998  11.612  0.3864 -0.3901  0.0225
 7918TIP3    H145169   6.153   3.967  11.641 -1.2175  4.1704  0.4874
 7918TIP3    H245170   6.251   3.959  11.526 -2.6498 -0.2238 -0.5100
 7919TIP3   OH245171   6.015   4.293  15.258  0.0643 -0.2037 -0.0248
 7919TIP3    H145172   5.966   4.326  15.333  1.0806 -0.5707  0.8024
 7919TIP3    H245173   6.014   4.198  15.267 -1.3986 -0.3448 -1.4938
 7920TIP3   OH245174   2.950   4.635   3.156  0.8658 -0.0957  0.9286
 7920TIP3    H145175   2.952   4.729   3.136 -3.9465  0.0141  0.1491
 7920TIP3    H245176   2.925   4.631   3.248  0.6154 -0.6007  0.8387
 7921TIP3   OH245177   3.029   2.401   4.808  0.0433  0.9708  0.0782
 7921TIP3    H145178   2.997   2.440   4.889 -0.0756 -0.5301  0.7777
 7921TIP3    H245179   2.950   2.390   4.755  0.1435  2.1064 -0.3179
 7922TIP3   OH245180   5.932   2.067  11.848 -0.0117 -0.1596 -0.0337
 7922TIP3    H145181   6.013   2.068  11.899 -0.3655 -1.5023  0.5721
 7922TIP3    H245182   5.949   2.005  11.777 -0.1560  0.3417 -0.5145
 7923TIP3   OH245183   3.836   6.721  11.717  0.4615  0.0835 -0.1042
 7923TIP3    H145184   3.902   6.674  11.668  0.9968  0.3859  0.3237
 7923TIP3    H245185   3.761   6.728  11.658  1.2571  0.8388 -1.0336
 7924TIP3   OH245186   2.159   2.946   0.488  0.3474  0.2958  0.1451
 7924TIP3    H145187   2.238   2.999   0.485 -1.1525  2.5277 -0.5206
 7924TIP3    H245188   2.185   2.868   0.538  3.1860  0.5648 -0.8449
 7925TIP3   OH245189   5.026   6.297  11.732  0.1781 -0.1015 -0.2721
 7925TIP3    H145190   5.021   6.213  11.779  0.1446  0.7758  1.3376
 7925TIP3    H245191   5.119   6.311  11.718  0.1574 -0.6247 -0.9414
 7926TIP3   OH245192   0.544   3.709  14.282 -0.8202  0.2900  0.0098
 7926TIP3    H145193   0.477   3.758  14.234 -0.8908  0.3549  0.1742
 7926TIP3    H245194   0.555   3.757  14.364 -1.3726 -0.3479  0.4629
 7927TIP3   OH245195   5.318   5.673  12.703  0.0439 -0.3217 -0.0639
 7927TIP3    H145196   5.349   5.708  12.787  0.8059  2.0968 -1.3366
 7927TIP3    H245197   5.256   5.738  12.671  0.9528 -0.4418 -2.1249
 7928TIP3   OH245198   4.453   0.611  10.998  0.1324 -0.5679 -0.0872
 7928TIP3    H145199   4.498   0.557  10.933  1.2895  1.1601 -0.7753
 7928TIP3    H245200   4.432   0.551  11.069  3.4464 -1.4872  0.1929
 7929TIP3   OH245201   6.603   1.724  12.076 -0.2736  0.5837  0.1997
 7929TIP3    H145202   6.566   1.787  12.138  0.0115 -0.0063  0.9826
 7929TIP3    H245203   6.531   1.664  12.056 -0.8449  1.7599 -1.3624
 7930TIP3   OH245204   3.257   5.909  15.466 -0.2266  0.1316  0.1492
 7930TIP3    H145205   3.230   5.995  15.434  2.4976  0.4246 -1.4541
 7930TIP3    H245206   3.343   5.923  15.505 -0.4128 -1.5940  1.2422
 7931TIP3   OH245207   6.552   3.886  14.386  0.1122  0.2647 -0.0255
 7931TIP3    H145208   6.606   3.942  14.330 -0.7508  1.4640  0.3106
 7931TIP3    H245209   6.616   3.832  14.433  1.0406  1.5440  0.2411
 7932TIP3   OH245210   3.232   0.682  14.524  0.0948  0.7091 -0.4347
 7932TIP3    H145211   3.248   0.620  14.595  0.9607  0.0343 -1.1964
 7932TIP3    H245212   3.164   0.641  14.471  0.1749  0.7265 -0.5520
 7933TIP3   OH245213   5.055   3.270   0.073  0.7039  0.0268  0.0610
 7933TIP3    H145214   5.137   3.222   0.068  1.4445  1.3214 -0.3884
 7933TIP3    H245215   5.059   3.333   0.001 -1.0369 -0.4475 -0.4753
 7934TIP3   OH245216   5.196   5.410   0.439  0.1261  0.2933 -0.3177
 7934TIP3    H145217   5.283   5.417   0.479 -0.9322 -0.5950  2.2165
 7934TIP3    H245218   5.183   5.316   0.428  0.6655  0.5353 -3.4542
 7935TIP3   OH245219   0.684   1.427  11.532 -0.0638 -0.7868  0.1592
 7935TIP3    H145220   0.611   1.482  11.505 -1.1829 -2.1179  0.4156
 7935TIP3    H245221   0.762   1.475  11.505 -0.8724  2.5001  3.2961
 7936TIP3   OH245222   2.316   2.493  14.518  0.3688  0.0237  0.3310
 7936TIP3    H145223   2.272   2.574  14.546 -0.5851 -0.2341 -0.3672
 7936TIP3    H245224   2.391   2.523  14.466 -0.6031  0.4669 -0.8391
 7937TIP3   OH245225   1.224   4.594   9.815 -0.4421 -0.0598 -0.4205
 7937TIP3    H145226   1.272   4.609   9.733  0.6611  0.0715  0.2344
 7937TIP3    H245227   1.198   4.502   9.812 -2.5495  0.5714 -2.0270
 7938TIP3   OH245228   0.424   4.060   0.947 -0.4467  0.0955  0.2664
 7938TIP3    H145229   0.443   3.978   0.993  1.2065  0.0229 -0.5276
 7938TIP3    H245230   0.409   4.033   0.856 -0.2266  0.6431  0.0694
 7939TIP3   OH245231   1.918   2.156   3.872  0.7832 -0.0259 -0.2797
 7939TIP3    H145232   1.982   2.088   3.894 -0.1662 -0.3924  1.5026
 7939TIP3    H245233   1.876   2.176   3.956 -1.2334  0.3871 -1.3617
 7940TIP3   OH245234   0.415   3.289  15.426  0.4098  0.2079  0.3292
 7940TIP3    H145235   0.466   3.334  15.493  1.8984 -0.8805 -0.0285
 7940TIP3    H245236   0.351   3.237  15.474  0.9224  0.0763  0.8711
 7941TIP3   OH245237   2.972   4.683   0.324 -0.0157  0.1454 -0.2459
 7941TIP3    H145238   3.031   4.682   0.399  2.5241  1.4434 -2.1445
 7941TIP3    H245239   3.030   4.676   0.248 -2.4885 -0.7444 -2.1221
 7942TIP3   OH245240   1.864   5.618  12.387 -0.2415 -0.0090  0.2017
 7942TIP3    H145241   1.898   5.541  12.432 -0.3000  0.1828  0.5688
 7942TIP3    H245242   1.797   5.583  12.328  1.2405 -0.5081 -1.2409
 7943TIP3   OH245243   0.236   0.906  11.619  0.0245 -0.2667  0.0935
 7943TIP3    H145244   0.259   0.996  11.644 -0.5081  0.2088 -1.0767
 7943TIP3    H245245   0.296   0.851  11.668  0.4897  0.7504  0.6718
 7944TIP3   OH245246   0.886   2.089  12.174  0.2965 -0.0429  0.0325
 7944TIP3    H145247   0.824   2.028  12.214 -0.2916 -0.5346 -1.5858
 7944TIP3    H245248   0.964   2.084  12.229 -0.5322 -0.6165  1.1639
 7945TIP3   OH245249   6.220   1.215   0.194  0.2184 -0.1555 -0.0323
 7945TIP3    H145250   6.209   1.150   0.264 -0.4521  0.9294  0.8946
 7945TIP3    H245251   6.152   1.192   0.130  1.4108 -1.6917 -0.7703
 7946TIP3   OH245252   0.456   6.044  12.962  0.5989  0.0177 -0.0514
 7946TIP3    H145253   0.375   6.003  12.934 -0.4776  1.4361  0.8976
 7946TIP3    H245254   0.517   6.030  12.889 -1.1219  0.7268 -1.6567
 7947TIP3   OH245255   2.159   0.027  10.065 -0.2805 -0.0875 -0.0277
 7947TIP3    H145256   2.136   0.100  10.121 -0.4941 -1.2173  1.3990
 7947TIP3    H245257   2.096  -0.042  10.088  1.2868 -1.4655  0.2511
 7948TIP3   OH245258   3.326   6.207  15.345  0.2244 -0.4727 -0.4904
 7948TIP3    H145259   3.389   6.204  15.273 -0.8781  1.8438 -1.6036
 7948TIP3    H245260   3.285   6.293  15.337 -1.4279 -1.0325  1.6290
 7949TIP3   OH245261   5.254   2.886   0.726 -0.2296 -0.1726 -0.0597
 7949TIP3    H145262   5.295   2.971   0.711  1.2154 -0.7487  0.5538
 7949TIP3    H245263   5.296   2.852   0.805 -0.6099 -1.5641 -0.4414
 7950TIP3   OH245264   0.921   4.310   0.184  0.1207 -0.1882 -0.2814
 7950TIP3    H145265   0.881   4.384   0.139 -1.4064 -0.4373  0.6145
 7950TIP3    H245266   0.868   4.299   0.263  1.4556 -1.0788  0.5141
 7951TIP3   OH245267   4.994   2.662   1.242 -0.2756  0.0561  0.1379
 7951TIP3    H145268   4.975   2.617   1.324  0.2919 -1.0808 -0.3428
 7951TIP3    H245269   5.080   2.701   1.255  0.3480 -1.1410 -0.3311
 7952TIP3   OH245270   2.605   4.038  14.522 -0.3645 -0.4924  0.7688
 7952TIP3    H145271   2.555   4.089  14.586  0.0867 -0.1075  0.8106
 7952TIP3    H245272   2.689   4.082  14.516  0.3149 -1.6878  1.3954
 7953TIP3   OH245273   0.958   4.253  14.914  0.0112 -0.5607  0.4252
 7953TIP3    H145274   1.017   4.300  14.855  0.9996 -1.1805  0.9140
 7953TIP3    H245275   0.929   4.177  14.862  0.6620 -0.9554  0.6366
 7954TIP3   OH245276   5.792   1.156  10.720 -0.1675  0.2906 -0.1547
 7954TIP3    H145277   5.772   1.127  10.809 -0.1811  0.5436 -0.0720
 7954TIP3    H245278   5.849   1.089  10.684 -0.5531 -0.0551 -0.1208
 7955TIP3   OH245279   4.669   4.082  11.959 -0.0692 -0.1889 -0.5452
 7955TIP3    H145280   4.760   4.089  11.930 -0.8345  2.1134 -2.5662
 7955TIP3    H245281   4.632   4.013  11.903  0.4005 -1.0694  0.2222
 7956TIP3   OH245282   5.065   1.777  11.168 -0.4012 -0.6585  0.1923
 7956TIP3    H145283   5.001   1.717  11.207 -0.2321 -1.8552 -1.3346
 7956TIP3    H245284   5.075   1.747  11.078  1.0625  0.5576 -0.0789
 7957TIP3   OH245285   3.944   0.083  14.133  0.0006  0.0168 -0.4641
 7957TIP3    H145286   3.979  -0.005  14.149  0.5404 -0.1688 -2.4306
 7957TIP3    H245287   3.997   0.140  14.189  0.8101 -0.7249 -0.4527
 7958TIP3   OH245288   1.516   0.332  11.790  0.4453 -0.0826  0.1909
 7958TIP3    H145289   1.440   0.280  11.815  0.4937 -0.2593 -0.0216
 7958TIP3    H245290   1.479   0.412  11.752  0.3530 -0.3959 -0.3981
 7959TIP3   OH245291   6.518   1.436   2.716  0.0315 -0.2129  0.2245
 7959TIP3    H145292   6.480   1.350   2.735 -0.0114 -0.7081 -1.9720
 7959TIP3    H245293   6.497   1.452   2.624  3.8893  0.1662 -0.6864
 7960TIP3   OH245294   5.999   5.408   3.261  0.4619  0.1637  0.4198
 7960TIP3    H145295   6.064   5.412   3.332  1.0587  0.5544 -0.1430
 7960TIP3    H245296   5.915   5.398   3.306  0.7268  1.4841  1.2507
 7961TIP3   OH245297   0.505   1.621  10.935  0.1604 -0.0180  0.0685
 7961TIP3    H145298   0.425   1.646  10.888  1.9740  0.5796 -2.7981
 7961TIP3    H245299   0.541   1.704  10.967  0.4767 -0.1385  0.0203
 7962TIP3   OH245300   2.191   4.870  14.719  0.0200  0.9753 -0.1729
 7962TIP3    H145301   2.107   4.825  14.713  0.8979 -0.5951 -1.1671
 7962TIP3    H245302   2.236   4.826  14.791  1.2869 -0.4825 -1.8089
 7963TIP3   OH245303   2.694   7.007  14.632  0.1913  0.5440 -0.0622
 7963TIP3    H145304   2.681   6.969  14.719 -1.7924  2.9742  0.7561
 7963TIP3    H245305   2.732   7.093  14.649 -0.9191  1.3358 -1.5576
 7964TIP3   OH245306   6.998   2.630  10.857 -0.1800 -0.4718 -0.1859
 7964TIP3    H145307   6.904   2.633  10.839 -0.1793  1.4462 -0.0427
 7964TIP3    H245308   7.006   2.581  10.938 -1.3502  1.7611  1.3252
 7965TIP3   OH245309   1.251   2.337  13.632 -0.1935 -0.3894  0.2549
 7965TIP3    H145310   1.224   2.387  13.709 -1.3331 -1.9024  0.8546
 7965TIP3    H245311   1.268   2.404  13.566 -0.2425  0.8737  1.4970
 7966TIP3   OH245312   3.873   4.258  15.098  0.2219  0.6985 -0.2437
 7966TIP3    H145313   3.811   4.213  15.154 -0.4844  1.2744 -0.5587
 7966TIP3    H245314   3.878   4.205  15.019  1.0393  0.0121  0.2632
 7967TIP3   OH245315   2.542   3.539  10.787 -0.3478  0.3414  0.6496
 7967TIP3    H145316   2.545   3.484  10.709 -1.0671  1.6878 -0.3462
 7967TIP3    H245317   2.499   3.484  10.853  2.3694 -1.6602  0.8484
 7968TIP3   OH245318   0.025   6.712  13.537  0.2141 -0.2888 -0.1553
 7968TIP3    H145319  -0.038   6.697  13.466 -0.6245  0.5821  0.3910
 7968TIP3    H245320  -0.024   6.691  13.617  0.2911  1.3362  0.3434
 7969TIP3   OH245321   3.846   1.660  11.925  0.2848 -0.2173 -0.2499
 7969TIP3    H145322   3.756   1.680  11.901  0.3002 -0.1366 -0.2389
 7969TIP3    H245323   3.858   1.568  11.900 -0.2692 -0.6829  1.1303
 7970TIP3   OH245324   6.320   3.471   0.995 -0.0232 -0.1941 -0.0134
 7970TIP3    H145325   6.368   3.426   1.064 -1.3539 -2.4461 -0.4932
 7970TIP3    H245326   6.387   3.517   0.944  1.1819 -0.2208  1.5283
 7971TIP3   OH245327   3.027   6.866   1.294  0.1166 -0.1308 -0.2975
 7971TIP3    H145328   3.013   6.811   1.217  1.2829  0.0854 -0.6667
 7971TIP3    H245329   3.084   6.936   1.264  0.2164  0.2039  0.6555
 7972TIP3   OH245330   3.415   0.423   2.764  0.0757 -0.2246 -0.1813
 7972TIP3    H145331   3.487   0.470   2.806 -1.2020  2.7598 -1.2287
 7972TIP3    H245332   3.417   0.451   2.673  0.6153 -3.9328 -1.3673
 7973TIP3   OH245333   5.805   6.472  11.177  0.2230  0.3375  0.5831
 7973TIP3    H145334   5.795   6.564  11.151  0.1029  0.4498  1.0293
 7973TIP3    H245335   5.809   6.474  11.272  0.4476 -0.1002  0.5845
 7974TIP3   OH245336   4.239   6.496  14.420  0.1586  0.1876 -0.5011
 7974TIP3    H145337   4.241   6.402  14.406 -0.2827  0.0505  0.3432
 7974TIP3    H245338   4.146   6.517  14.432  0.1913  0.8180 -1.2747
 7975TIP3   OH245339   4.274   5.480  14.654  0.0839 -0.7536  0.6366
 7975TIP3    H145340   4.216   5.535  14.706 -0.2549  2.2291 -2.6769
 7975TIP3    H245341   4.359   5.523  14.660  0.7928 -2.1882  1.2487
 7976TIP3   OH245342   0.837   5.041   2.308 -0.1054  0.2489  0.6169
 7976TIP3    H145343   0.898   5.068   2.240 -2.0113  0.4031 -1.0622
 7976TIP3    H245344   0.802   5.122   2.343  0.0069  0.1312  1.0107
 7977TIP3   OH245345   1.953   2.374  12.316 -0.0112 -0.6661 -0.1902
 7977TIP3    H145346   2.023   2.438  12.301  0.6280 -1.5939 -1.2954
 7977TIP3    H245347   1.896   2.385  12.240  0.0673 -1.3536 -0.3485
 7978TIP3   OH245348   6.095   0.402   0.488 -0.2383  0.5857 -0.3465
 7978TIP3    H145349   6.039   0.380   0.563  1.8845  0.4841  1.2474
 7978TIP3    H245350   6.174   0.440   0.527 -0.2790  3.1997 -2.6871
 7979TIP3   OH245351   6.010   1.809  10.901  0.0835 -0.0463 -0.2396
 7979TIP3    H145352   6.093   1.799  10.947  0.5909 -1.7371 -1.4374
 7979TIP3    H245353   5.945   1.766  10.957  0.3003 -0.1100 -0.0390
 7980TIP3   OH245354   3.018   2.786   1.008  0.1666 -0.3712  0.0122
 7980TIP3    H145355   3.085   2.807   1.073  1.6647 -0.1716 -1.5651
 7980TIP3    H245356   2.984   2.871   0.980 -2.3257 -0.5077  2.3410
 7981TIP3   OH245357   7.135   6.368  15.034  0.2372  0.1331 -0.3330
 7981TIP3    H145358   7.167   6.308  15.100  1.8458  0.6561 -0.6160
 7981TIP3    H245359   7.194   6.444  15.039 -1.1588  1.2724 -0.6282
 7982TIP3   OH245360   1.733   5.008   2.700  0.3728  0.1800  0.3281
 7982TIP3    H145361   1.763   4.934   2.753  1.0419  0.7029  0.6924
 7982TIP3    H245362   1.805   5.024   2.639  1.2638  2.0202  1.7923
 7983TIP3   OH245363   6.696   7.114  13.110 -0.0790  0.3376  0.6129
 7983TIP3    H145364   6.647   7.035  13.132 -0.3077  0.0567 -0.8438
 7983TIP3    H245365   6.631   7.172  13.071  0.5383  0.3689 -0.3840
 7984TIP3   OH245366   0.703   3.836  11.098  0.5375 -0.0826 -0.3513
 7984TIP3    H145367   0.724   3.817  11.190  1.8050 -0.4254 -0.7029
 7984TIP3    H245368   0.787   3.832  11.053 -0.2320 -0.9910 -1.7242
 7985TIP3   OH245369   6.778   1.125  14.669 -0.0670  0.5214 -0.4432
 7985TIP3    H145370   6.837   1.162  14.735  0.7735 -1.8910  0.1990
 7985TIP3    H245371   6.820   1.145  14.586  1.0097 -0.0110 -0.0463
 7986TIP3   OH245372   5.081   2.234   0.161 -0.5768 -0.1100  0.1066
 7986TIP3    H145373   5.006   2.261   0.215 -0.5751 -0.1745  0.1416
 7986TIP3    H245374   5.069   2.139   0.150 -1.2847  0.1077 -1.0914
 7987TIP3   OH245375   0.789   7.103  10.385  0.2265  0.4929 -0.3594
 7987TIP3    H145376   0.801   7.120  10.291  0.2354 -0.8308 -0.6106
 7987TIP3    H245377   0.878   7.097  10.420  0.2545 -0.8681 -0.6289
 7988TIP3   OH245378   3.046   1.216  14.601 -0.0601  0.4422 -0.2420
 7988TIP3    H145379   3.013   1.138  14.556 -0.1842  0.2787  0.1300
 7988TIP3    H245380   3.063   1.186  14.691 -1.3070  1.1474  0.2402
 7989TIP3   OH245381   4.569   0.339   3.935 -0.2310  0.3369  0.2806
 7989TIP3    H145382   4.486   0.324   3.981 -0.6443  1.8256  0.0248
 7989TIP3    H245383   4.582   0.433   3.940  1.1839  0.1642 -0.1535
 7990TIP3   OH245384   1.060   4.477   0.605 -0.5041  0.0789  0.0510
 7990TIP3    H145385   0.976   4.437   0.630  0.8338 -1.6040  1.9880
 7990TIP3    H245386   1.050   4.569   0.631 -2.2747  0.2497 -1.1082
 7991TIP3   OH245387   5.337   0.703   1.829 -0.7312 -0.0067 -0.2072
 7991TIP3    H145388   5.401   0.639   1.859 -0.3818  0.2544 -0.3821
 7991TIP3    H245389   5.369   0.731   1.743 -1.3951 -0.2979 -0.5532
 7992TIP3   OH245390   1.214   1.696  13.446  0.3124  0.1631  0.0888
 7992TIP3    H145391   1.304   1.666  13.435 -0.1788 -1.0925 -0.4991
 7992TIP3    H245392   1.168   1.622  13.485 -0.2740  1.1036  1.2207
 7993TIP3   OH245393   6.830   2.260  13.145  0.1194  0.4285  0.0618
 7993TIP3    H145394   6.761   2.301  13.198  0.3924  2.5441 -1.1247
 7993TIP3    H245395   6.793   2.176  13.119 -1.5930  1.0592  0.3491
 7994TIP3   OH245396   5.903   3.575  14.449  0.5367 -0.2300  0.4445
 7994TIP3    H145397   5.947   3.601  14.530 -0.7808  0.1742  1.0480
 7994TIP3    H245398   5.918   3.480  14.443  0.7469 -0.2423  1.0938
 7995TIP3   OH245399   5.098   5.119   2.350  0.1079 -0.6024 -0.9053
 7995TIP3    H145400   5.190   5.092   2.350  0.2758 -0.0301 -1.5160
 7995TIP3    H245401   5.077   5.132   2.443  0.7740 -0.2928 -0.7975
 7996TIP3   OH245402   5.390   4.763  15.539  0.2417  0.1613 -0.1241
 7996TIP3    H145403   5.435   4.847  15.528 -0.3245  0.3955 -0.6465
 7996TIP3    H245404   5.369   4.735  15.450 -1.6275  0.5844  0.1664
 7997TIP3   OH245405   4.543   6.926   0.691 -0.6665  0.0897 -0.1646
 7997TIP3    H145406   4.614   6.978   0.653 -1.4123  1.0909 -0.2161
 7997TIP3    H245407   4.482   6.912   0.619 -0.0425 -1.6342 -0.3688
 7998TIP3   OH245408   4.923   2.883  14.468 -0.3048 -0.6102 -0.4608
 7998TIP3    H145409   4.988   2.925  14.413 -2.3659  0.3488 -2.2360
 7998TIP3    H245410   4.919   2.793  14.437  1.7137 -1.2907  1.1315
 7999TIP3   OH245411   0.464   3.677  10.652  0.8300 -0.0594  0.1639
 7999TIP3    H145412   0.482   3.590  10.618  2.7790 -0.0538  1.1658
 7999TIP3    H245413   0.484   3.672  10.745  1.1701  1.5131  0.1910
 8000TIP3   OH245414   4.598   0.268  12.105 -0.1872 -1.1274 -0.5507
 8000TIP3    H145415   4.628   0.357  12.086 -3.0774  0.2440  0.9047
 8000TIP3    H245416   4.529   0.252  12.041 -2.2062 -0.8413  1.4694
 8001TIP3   OH245417   2.286   6.538  14.232 -0.0024 -0.9942 -0.1839
 8001TIP3    H145418   2.267   6.599  14.304 -2.4303 -1.5350 -0.3240
 8001TIP3    H245419   2.300   6.454  14.275  2.4119 -0.5717 -0.0698
 8002TIP3   OH245420   5.569   5.077  14.954  0.1371 -0.1823  0.4234
 8002TIP3    H145421   5.482   5.076  14.993  0.1527 -0.9590  0.4436
 8002TIP3    H245422   5.605   4.990  14.973  0.9563  0.1694  0.5136
 8003TIP3   OH245423   1.228   2.464  13.935 -0.7105 -0.4347  0.0667
 8003TIP3    H145424   1.211   2.558  13.930  2.1360  0.0687 -1.5942
 8003TIP3    H245425   1.289   2.455  14.008 -0.0404 -0.8017 -0.5284
 8004TIP3   OH245426   1.106   5.298  13.927  0.6213 -0.5023 -0.0711
 8004TIP3    H145427   1.036   5.354  13.893  1.2819 -0.6367 -1.6802
 8004TIP3    H245428   1.164   5.358  13.975 -0.7206 -0.4342  1.5125
 8005TIP3   OH245429   6.386   6.892  12.581 -0.1206 -0.6682 -0.4821
 8005TIP3    H145430   6.410   6.875  12.672 -0.8590 -1.0402 -0.3528
 8005TIP3    H245431   6.305   6.841  12.567  0.0391 -0.6934 -1.3697
 8006TIP3   OH245432   0.537   2.056  14.157 -0.3841 -0.0052 -0.3687
 8006TIP3    H145433   0.448   2.021  14.168 -0.0905 -0.7340 -0.2569
 8006TIP3    H245434   0.534   2.143  14.196 -0.7001 -0.5433  0.8429
 8007TIP3   OH245435   4.318   1.669  11.875 -0.1405  0.0472 -0.2521
 8007TIP3    H145436   4.397   1.652  11.925  0.8415  0.8598 -1.4975
 8007TIP3    H245437   4.335   1.632  11.788 -0.9272  0.6254 -0.6653
 8008TIP3   OH245438   6.687   4.537  12.401 -0.2703 -0.2358  0.3732
 8008TIP3    H145439   6.738   4.614  12.376 -0.1833 -0.0122  1.2298
 8008TIP3    H245440   6.744   4.488  12.461 -0.5986 -0.5964  0.3948
 8009TIP3   OH245441   5.049   7.151  12.937 -0.0560  0.5411  0.4932
 8009TIP3    H145442   5.142   7.171  12.923 -0.3342  1.1747 -0.4718
 8009TIP3    H245443   5.006   7.236  12.937 -0.8925  0.1177 -0.9586
 8010TIP3   OH245444   6.919   0.863  14.106  0.3672  0.2043  1.1816
 8010TIP3    H145445   6.973   0.784  14.114 -1.8029 -1.3411  0.8641
 8010TIP3    H245446   6.829   0.832  14.110 -0.6133  2.2569 -2.2745
 8011TIP3   OH245447   0.498   3.363   1.317  0.3599  0.1403 -0.3669
 8011TIP3    H145448   0.499   3.312   1.236  0.7715  0.5489 -0.6210
 8011TIP3    H245449   0.562   3.318   1.373  2.3147  1.5800 -1.3532
 8012TIP3   OH245450   5.157   0.346  10.845  0.2842 -0.1823 -0.6173
 8012TIP3    H145451   5.178   0.253  10.838  2.3437  0.2672 -0.6797
 8012TIP3    H245452   5.121   0.369  10.760  4.1681  0.1220 -2.2581
 8013TIP3   OH245453   0.432   1.468  14.034 -0.2386  0.6256 -0.3230
 8013TIP3    H145454   0.411   1.375  14.025 -0.2743  0.5218  0.7086
 8013TIP3    H245455   0.419   1.486  14.127 -0.2505  1.6718 -0.5212
 8014TIP3   OH245456   4.641   1.243  12.358 -0.5819  0.0375  0.3403
 8014TIP3    H145457   4.692   1.164  12.372 -0.2759  0.1482 -0.1603
 8014TIP3    H245458   4.658   1.268  12.267 -3.6809 -1.4608 -0.7244
 8015TIP3   OH245459   2.307   3.283  11.204 -0.5210 -0.5021 -0.4417
 8015TIP3    H145460   2.313   3.196  11.243 -1.9758 -1.0954 -1.5128
 8015TIP3    H245461   2.214   3.306  11.208 -0.1270  1.1105  0.0437
 8016TIP3   OH245462   4.051   0.504  13.591  0.2371 -0.2494  0.5433
 8016TIP3    H145463   3.975   0.559  13.569  0.0853 -0.5510  0.3068
 8016TIP3    H245464   4.119   0.531  13.530  0.0875 -0.4928  0.2718
 8017TIP3   OH245465   2.800   6.714  13.432  0.1509  0.4269  0.0117
 8017TIP3    H145466   2.777   6.675  13.347  3.1451  0.4060 -0.8534
 8017TIP3    H245467   2.890   6.687  13.446  0.5607  2.7046  1.9340
 8018TIP3   OH245468   3.835   5.802   3.937  0.0252  0.4960  0.6046
 8018TIP3    H145469   3.842   5.870   3.870 -0.8775  0.6575  0.6602
 8018TIP3    H245470   3.906   5.741   3.917 -1.5251 -0.5939 -1.8451
 8019TIP3   OH245471   1.869   4.692  13.507 -0.7595  0.3057 -0.7854
 8019TIP3    H145472   1.964   4.697  13.503 -0.6805 -0.6085 -0.0769
 8019TIP3    H245473   1.842   4.774  13.550 -0.2909  0.5318 -0.9277
 8020TIP3   OH245474   3.168   3.207   0.400 -0.2005  0.3162 -0.0922
 8020TIP3    H145475   3.216   3.163   0.470  1.1994  1.6907 -0.1550
 8020TIP3    H245476   3.080   3.220   0.436 -0.4662 -1.9992  0.1171
 8021TIP3   OH245477   7.035   1.906   5.207  0.1087  0.1977  0.2426
 8021TIP3    H145478   6.950   1.900   5.252  0.5173 -1.3826  0.8654
 8021TIP3    H245479   7.055   1.815   5.183 -0.3488  1.0251 -3.6459
 8022TIP3   OH245480   4.883   3.038  13.849 -0.7226 -0.4411  0.1434
 8022TIP3    H145481   4.822   2.975  13.889  0.0588 -0.3009  1.5864
 8022TIP3    H245482   4.827   3.103  13.808 -1.5768  0.5199  2.7667
 8023TIP3   OH245483   2.312   2.759  14.491 -0.1053 -0.1359  0.3795
 8023TIP3    H145484   2.406   2.744  14.484  0.1592  0.9172  1.3676
 8023TIP3    H245485   2.297   2.841  14.444 -0.7349 -0.9572 -0.8523
 8024TIP3   OH245486   4.915   3.572  12.208  0.3601  0.1238 -0.1404
 8024TIP3    H145487   4.905   3.638  12.277  1.0770  0.1595 -0.0677
 8024TIP3    H245488   4.953   3.619  12.134  1.1716 -0.2804  0.0240
 8025TIP3   OH245489   6.475   5.120  13.911 -0.5937  0.1484  0.2658
 8025TIP3    H145490   6.475   5.211  13.939  1.4837  1.2227 -2.9485
 8025TIP3    H245491   6.403   5.080  13.959  0.1651  2.7984  3.8140
 8026TIP3   OH245492   6.040   4.397  14.437 -0.6677 -0.1210 -0.2010
 8026TIP3    H145493   6.009   4.370  14.350 -3.1417  0.1269  0.5615
 8026TIP3    H245494   6.003   4.484  14.450 -1.4263 -0.6729  1.5939
 8027TIP3   OH245495   3.441   4.852  11.184 -0.6133  0.2934  0.2124
 8027TIP3    H145496   3.454   4.817  11.272  0.1056 -1.8443 -0.7301
 8027TIP3    H245497   3.380   4.792  11.142  0.1938  0.4702 -1.2362
 8028TIP3   OH245498   2.690   6.103  14.267 -0.1200  0.1186 -0.0796
 8028TIP3    H145499   2.747   6.045  14.318  1.1094  1.0296 -0.3777
 8028TIP3    H245500   2.751   6.157  14.217 -1.2828  0.5371 -1.0552
 8029TIP3   OH245501   0.753   5.999  12.314 -0.3805  0.0519 -0.1174
 8029TIP3    H145502   0.762   5.915  12.269  5.3296  0.3774  0.0785
 8029TIP3    H245503   0.747   6.063  12.244 -1.4279 -0.2196 -0.2861
 8030TIP3   OH245504   6.217   0.270  14.642 -0.1840 -0.0327 -0.2687
 8030TIP3    H145505   6.204   0.255  14.548 -0.6829 -1.3572 -0.0009
 8030TIP3    H245506   6.129   0.278  14.678 -0.1725 -3.1155  0.6195
 8031TIP3   OH245507   5.001   3.356  13.358  0.0215  0.0569  0.4491
 8031TIP3    H145508   4.912   3.370  13.324  0.8793  0.9656 -1.5069
 8031TIP3    H245509   5.016   3.262  13.348  0.2418  0.2921 -1.7561
 8032TIP3   OH245510   6.744   3.702   0.445  0.6769 -0.5449 -0.1962
 8032TIP3    H145511   6.661   3.740   0.474  1.1704  0.2670  0.1830
 8032TIP3    H245512   6.775   3.651   0.519  1.3262  0.5165  0.2851
 8033TIP3   OH245513   5.996   2.212   0.049 -0.1578  0.1453  0.1270
 8033TIP3    H145514   5.945   2.175  -0.023 -0.8911  0.4454  0.4823
 8033TIP3    H245515   5.936   2.275   0.091  0.0835 -0.3926  1.3092
 8034TIP3   OH245516   7.037   2.254   0.592 -0.0160  0.1268 -0.1621
 8034TIP3    H145517   6.945   2.277   0.587  0.7679  3.3993 -0.4561
 8034TIP3    H245518   7.061   2.268   0.684  0.0652 -1.2681  0.0367
 8035TIP3   OH245519   1.942   2.304  10.639 -0.4166  0.1591  0.1062
 8035TIP3    H145520   2.025   2.268  10.672  1.0101  1.0638 -2.3764
 8035TIP3    H245521   1.913   2.364  10.708  2.1566  1.4976  0.1139
 8036TIP3   OH245522   6.748   4.982  13.955  0.2608  0.3673  0.5208
 8036TIP3    H145523   6.730   4.931  14.034  0.6152 -0.9384 -0.2258
 8036TIP3    H245524   6.688   5.056  13.960 -0.7888 -0.5204  1.2546
 8037TIP3   OH245525   4.655   3.161  13.770  0.5123  0.1258  0.5811
 8037TIP3    H145526   4.613   3.151  13.855 -2.2868 -0.2598 -0.7844
 8037TIP3    H245527   4.594   3.214  13.719  0.5154 -2.4277 -2.2555
 8038TIP3   OH245528   4.970   0.251  15.494  0.3299 -0.1153 -0.4670
 8038TIP3    H145529   4.999   0.260  15.403  0.8393 -0.6039 -0.3535
 8038TIP3    H245530   4.875   0.244  15.487  0.2616  1.0690 -0.8639
 8039TIP3   OH245531   6.233   5.351  11.233 -0.2303  0.2415  0.1854
 8039TIP3    H145532   6.320   5.318  11.253 -0.6416 -2.0359 -1.5696
 8039TIP3    H245533   6.179   5.325  11.308  0.3188  0.5144  0.6738
 8040TIP3   OH245534   4.686   3.041   0.300  0.3461 -0.0697  0.2994
 8040TIP3    H145535   4.721   3.019   0.214 -0.4144  2.8874 -0.8151
 8040TIP3    H245536   4.759   3.082   0.346 -0.5897  2.9556 -0.7968
 8041TIP3   OH245537   5.714   3.814   0.758  0.1918 -0.3255  0.0500
 8041TIP3    H145538   5.745   3.796   0.669  0.8290 -2.9160  0.7446
 8041TIP3    H245539   5.619   3.813   0.750  0.2362  0.4650 -0.7668
 8042TIP3   OH245540   0.235   6.179  14.066  0.3839 -0.0176 -0.3379
 8042TIP3    H145541   0.294   6.241  14.023 -0.0211  0.9459  0.4837
 8042TIP3    H245542   0.240   6.201  14.159 -0.4945 -0.5962 -0.1468
 8043TIP3   OH245543   0.300   1.437  13.055 -0.0445 -0.3243 -0.1456
 8043TIP3    H145544   0.354   1.381  13.111 -0.4369 -0.3246  0.2341
 8043TIP3    H245545   0.266   1.504  13.113  1.3464  0.9986 -0.8293
 8044TIP3   OH245546   5.777   6.306  11.456  0.6377  0.1751 -0.1606
 8044TIP3    H145547   5.770   6.211  11.466  1.3002  0.2842  1.4778
 8044TIP3    H245548   5.865   6.321  11.421  0.1054  0.1286 -1.5737
 8045TIP3   OH245549   2.533   1.790  11.177  0.5968 -0.2003 -0.4145
 8045TIP3    H145550   2.608   1.785  11.118  0.3105 -0.6036 -0.7382
 8045TIP3    H245551   2.470   1.845  11.130 -0.2671 -1.8304 -1.1676
 8046TIP3   OH245552   4.055   5.375   0.161 -0.4905 -0.1205 -0.6960
 8046TIP3    H145553   3.998   5.341   0.092 -2.8738 -0.5484  1.4266
 8046TIP3    H245554   3.995   5.410   0.227  1.7081 -0.1793  1.4117
 8047TIP3   OH245555   1.637   4.780  11.194 -0.3044  0.0061  0.3386
 8047TIP3    H145556   1.668   4.805  11.107 -1.1776  0.7448  0.2350
 8047TIP3    H245557   1.653   4.686  11.199  0.4851  0.0939 -0.3123
 8048TIP3   OH245558   3.914   2.530  10.978  0.7055 -0.7468 -0.2324
 8048TIP3    H145559   3.916   2.472  10.902 -1.4652 -1.0569 -0.0793
 8048TIP3    H245560   3.855   2.487  11.040  0.5892  0.6750  0.6707
 8049TIP3   OH245561   0.715   5.123   0.792 -0.0001  0.5084 -0.0180
 8049TIP3    H145562   0.632   5.124   0.744 -0.2149 -2.4072  0.1864
 8049TIP3    H245563   0.692   5.156   0.879 -1.3227 -1.6546  0.5040
 8050TIP3   OH245564   4.265   5.836  14.343  0.5299 -0.3926  0.5090
 8050TIP3    H145565   4.327   5.765  14.327  1.0769  0.0043  0.8425
 8050TIP3    H245566   4.257   5.840  14.438  0.1823 -0.2709  0.4783
 8051TIP3   OH245567   6.330   1.258  14.868  0.2340  0.2075 -0.1176
 8051TIP3    H145568   6.415   1.243  14.827  1.3383  1.4844  1.6503
 8051TIP3    H245569   6.326   1.195  14.940  0.8460  1.9440  1.4613
 8052TIP3   OH245570   2.389   2.144  10.509 -0.0508 -0.0004  0.1901
 8052TIP3    H145571   2.441   2.075  10.467 -1.9315 -1.2924 -0.0996
 8052TIP3    H245572   2.421   2.147  10.599  0.2498 -1.0773  0.1276
 8053TIP3   OH245573   3.672   4.755  12.742 -0.9278 -0.4148 -0.6545
 8053TIP3    H145574   3.725   4.807  12.803 -0.3124 -2.0944  0.2597
 8053TIP3    H245575   3.588   4.801  12.737 -1.9479 -1.6240  3.4933
 8054TIP3   OH245576   6.257   2.008   0.340 -0.0970 -0.2034  0.1513
 8054TIP3    H145577   6.281   2.056   0.261  0.9733 -0.4131  0.3419
 8054TIP3    H245578   6.341   1.993   0.385 -0.4706 -1.9351  0.2691
 8055TIP3   OH245579   1.088   3.204  12.788 -0.2967  0.4600 -0.2517
 8055TIP3    H145580   1.020   3.137  12.795  0.5994 -0.6238 -1.6425
 8055TIP3    H245581   1.168   3.155  12.773  0.4220  1.8311 -0.9562
 8056TIP3   OH245582   2.537   3.592   0.393 -0.7234  0.3306 -0.5081
 8056TIP3    H145583   2.607   3.655   0.377 -0.2340 -0.0431  0.2099
 8056TIP3    H245584   2.511   3.606   0.484 -0.4738 -0.6571 -0.2827
 8057TIP3   OH245585   5.752   4.470  14.098 -0.3296 -0.2809  0.5610
 8057TIP3    H145586   5.741   4.457  14.004  1.2758 -0.5829  0.4080
 8057TIP3    H245587   5.705   4.397  14.138 -0.8392 -0.2681 -0.0139
 8058TIP3   OH245588   6.560   0.068  12.285  0.7145 -0.2433 -0.3728
 8058TIP3    H145589   6.642   0.065  12.235  0.2827 -0.3048 -1.0883
 8058TIP3    H245590   6.495   0.101  12.223 -0.0853 -1.4691 -0.2053
 8059TIP3   OH245591   0.749   5.704  14.214 -0.1017 -0.0541 -0.0150
 8059TIP3    H145592   0.672   5.667  14.170  1.2068 -1.6055 -1.0249
 8059TIP3    H245593   0.760   5.650  14.292  0.3681 -0.2455 -0.2160
 8060TIP3   OH245594   5.628   5.873  12.693 -0.3579  0.7723 -0.0907
 8060TIP3    H145595   5.704   5.877  12.635 -0.0035 -1.0690  0.2292
 8060TIP3    H245596   5.579   5.954  12.674 -1.2339 -0.6439 -4.3107
 8061TIP3   OH245597   0.355   0.034   3.607  0.7283  0.3740  0.2072
 8061TIP3    H145598   0.411   0.052   3.532 -2.6429 -0.1377 -2.5545
 8061TIP3    H245599   0.305   0.114   3.620  0.9947  0.3250  1.7126
 8062TIP3   OH245600   0.795   3.202  12.968  0.2364 -0.6739 -0.3326
 8062TIP3    H145601   0.780   3.156  12.886  0.2046 -1.3284  0.0306
 8062TIP3    H245602   0.743   3.154  13.032 -1.3684  1.0700 -0.3035
 8063TIP3   OH245603   0.547   0.006   3.852 -0.6056 -0.0703 -0.4787
 8063TIP3    H145604   0.637   0.006   3.818  0.0153  0.7804  1.1309
 8063TIP3    H245605   0.492   0.000   3.774  0.8207  0.7992 -1.5688
 8064TIP3   OH245606   5.436   6.986  13.129 -0.2402 -0.4608  0.1507
 8064TIP3    H145607   5.369   6.919  13.144 -1.9870  1.3147  0.4712
 8064TIP3    H245608   5.421   7.016  13.040  0.6516 -0.6214 -0.0571
 8065TIP3   OH245609   2.422   6.447   1.032 -0.4252  0.0123 -0.4093
 8065TIP3    H145610   2.485   6.463   1.103 -1.1534  0.1417  0.2142
 8065TIP3    H245611   2.377   6.530   1.021 -0.8607 -0.2331 -0.4838
 8066TIP3   OH245612   5.905   1.563  13.318 -0.3821 -0.5641  0.3338
 8066TIP3    H145613   5.811   1.581  13.317 -0.6521 -2.0018 -1.8904
 8066TIP3    H245614   5.942   1.622  13.252 -0.0017 -1.5620 -0.3381
 8067TIP3   OH245615   3.144   7.146  11.564  0.4308 -0.6384  0.1637
 8067TIP3    H145616   3.132   7.054  11.590  0.4566 -0.4594  0.8270
 8067TIP3    H245617   3.059   7.173  11.531  0.2468 -0.7182  0.5625
 8068TIP3   OH245618   7.023   6.726  14.650 -0.6966 -0.2647 -0.3749
 8068TIP3    H145619   6.959   6.777  14.600  0.3721  1.1122 -0.3754
 8068TIP3    H245620   7.059   6.663  14.588  0.5890  1.3994 -1.3670
 8069TIP3   OH245621   1.165   4.310  15.445 -0.2812  0.2992  0.3440
 8069TIP3    H145622   1.093   4.371  15.429 -0.6477 -0.3273 -0.4043
 8069TIP3    H245623   1.174   4.262  15.364  2.7023  2.1250 -0.4765
 8070TIP3   OH245624   0.877   5.320  12.175  0.0952  0.0356 -0.3697
 8070TIP3    H145625   0.848   5.237  12.139  0.3256 -0.2677  0.1297
 8070TIP3    H245626   0.893   5.376  12.099 -0.9334 -0.0802 -0.6667
 8071TIP3   OH245627   3.199   4.123  15.062 -0.1016  0.4863  0.5041
 8071TIP3    H145628   3.166   4.033  15.065 -0.5322  0.6680  1.7047
 8071TIP3    H245629   3.174   4.160  15.147 -0.1223  1.8051 -0.0612
 8072TIP3   OH245630   5.290   4.561  14.319  0.3496 -0.0327  0.2540
 8072TIP3    H145631   5.302   4.591  14.229  0.6058 -0.2850  0.2012
 8072TIP3    H245632   5.372   4.517  14.340 -0.2905 -1.3197  0.0801
 8073TIP3   OH245633   0.997   4.489  13.386  0.5570 -0.2162 -0.0079
 8073TIP3    H145634   0.964   4.433  13.457  2.5272  1.0793  2.0039
 8073TIP3    H245635   1.063   4.435  13.343 -0.2938 -0.8282 -0.5632
 8074TIP3   OH245636   4.597   5.578  10.636  0.9881  0.3693  0.0696
 8074TIP3    H145637   4.543   5.634  10.693  1.3076 -0.0475  0.7949
 8074TIP3    H245638   4.567   5.599  10.547  0.5977  1.1565  0.3740
 8075TIP3   OH245639   5.730   1.175   0.582  0.6154 -0.0057 -0.1617
 8075TIP3    H145640   5.669   1.112   0.620  1.6490 -0.3571  0.9645
 8075TIP3    H245641   5.772   1.217   0.658  3.4234 -1.3999 -0.8673
 8076TIP3   OH245642   2.724   3.430  15.051 -0.1489  0.0067  0.0352
 8076TIP3    H145643   2.738   3.421  14.956 -2.1353 -0.6344 -0.2266
 8076TIP3    H245644   2.727   3.524  15.066 -1.3428  0.2264 -0.9522
 8077TIP3   OH245645   0.355   5.380  12.750  0.3115 -0.2685 -0.1515
 8077TIP3    H145646   0.296   5.305  12.756 -0.8769  0.6601  0.1013
 8077TIP3    H245647   0.373   5.390  12.657  0.0844 -0.5767 -0.2291
 8078TIP3   OH245648   3.349   4.256   3.214 -0.4537  0.4885 -0.8633
 8078TIP3    H145649   3.324   4.270   3.122  0.7470  0.5385 -1.1894
 8078TIP3    H245650   3.444   4.263   3.214 -0.3835 -0.4174  0.2430
 8079TIP3   OH245651   5.165   4.742  14.519 -0.2570 -0.5378 -0.5963
 8079TIP3    H145652   5.089   4.691  14.545  0.6561 -0.7247  1.8093
 8079TIP3    H245653   5.233   4.676  14.499 -0.3436 -0.3458 -1.5578
 8080TIP3   OH245654   1.739   3.426  10.905  0.7735 -0.3380 -0.7363
 8080TIP3    H145655   1.685   3.488  10.856 -0.1745 -0.0486  0.6294
 8080TIP3    H245656   1.698   3.422  10.991  3.1602  0.1893  0.4764
 8081TIP3   OH245657   1.906   3.271  11.816  0.0816 -0.1927  0.1123
 8081TIP3    H145658   1.819   3.293  11.785  0.2429  2.6246  1.4330
 8081TIP3    H245659   1.893   3.199  11.878 -1.3395  0.3150  0.4127
 8082TIP3   OH245660   1.930   0.525  14.200  0.1890 -0.2413 -0.1554
 8082TIP3    H145661   1.897   0.448  14.247 -0.1024 -0.0746 -0.0846
 8082TIP3    H245662   1.853   0.581  14.189  0.8913  1.2195  2.0678
 8083TIP3   OH245663   4.984   4.829  11.443  0.0022  0.5973 -0.0788
 8083TIP3    H145664   5.062   4.881  11.420  0.7050 -1.1081 -1.7162
 8083TIP3    H245665   4.994   4.748  11.392 -2.6242  0.1592  0.0605
 8084TIP3   OH245666   1.460   2.112  12.496  0.3948 -0.0618 -0.3420
 8084TIP3    H145667   1.410   2.030  12.503  1.4062 -0.7443 -0.8899
 8084TIP3    H245668   1.394   2.181  12.503 -0.5379 -0.9322 -0.3544
 8085TIP3   OH245669   2.763   4.545   2.204 -0.4823  0.5036  0.1329
 8085TIP3    H145670   2.800   4.471   2.253 -1.5029  1.2109  2.0095
 8085TIP3    H245671   2.805   4.540   2.118  0.0658 -1.7770  0.5082
 8086TIP3   OH245672   1.232   0.209  11.288  0.2399 -0.1584  0.1510
 8086TIP3    H145673   1.200   0.120  11.273  0.3272 -0.4788  1.7013
 8086TIP3    H245674   1.316   0.197  11.334  0.8578  0.7081 -0.7430
 8087TIP3   OH245675   0.312   0.573   0.465 -0.2265 -0.7582 -0.5606
 8087TIP3    H145676   0.220   0.549   0.458 -0.5287  0.0979  0.3504
 8087TIP3    H245677   0.354   0.498   0.507 -0.9881 -0.1076  1.4081
 8088TIP3   OH245678   5.180   0.647  15.287 -0.5427  0.2678 -0.0284
 8088TIP3    H145679   5.231   0.593  15.226 -0.4814 -0.1331  0.3796
 8088TIP3    H245680   5.216   0.628  15.373  0.9193  2.5507 -0.0698
 8089TIP3   OH245681   0.152   0.632  12.149 -0.3320 -0.0247  0.2693
 8089TIP3    H145682   0.060   0.620  12.172 -0.8693  0.3917 -1.5971
 8089TIP3    H245683   0.170   0.723  12.170 -0.8291  0.3642 -0.9532
 8090TIP3   OH245684   5.728   4.596  15.382  0.2223 -0.0216 -0.0706
 8090TIP3    H145685   5.705   4.648  15.459  0.8855  0.5672 -0.2581
 8090TIP3    H245686   5.741   4.507  15.415 -1.3710 -0.1699  0.1825
 8091TIP3   OH245687   5.433   2.185   1.160 -0.1297  0.3531 -0.3130
 8091TIP3    H145688   5.486   2.194   1.239 -0.0251  0.8064 -0.4345
 8091TIP3    H245689   5.376   2.262   1.160  0.5936  0.8975 -1.2217
 8092TIP3   OH245690   0.944   2.471  15.140  0.1542 -0.7735  0.1185
 8092TIP3    H145691   1.026   2.479  15.188 -0.0743  0.9892  0.2487
 8092TIP3    H245692   0.966   2.419  15.063  1.4248 -0.1833  0.0676
 8093TIP3   OH245693   4.263   3.049  13.862 -0.2492  0.0336 -0.1289
 8093TIP3    H145694   4.218   3.072  13.943 -2.6363  0.4390 -1.5333
 8093TIP3    H245695   4.317   3.126  13.843  0.3483 -0.0727  1.0712
 8094TIP3   OH245696   0.949   6.410  15.441  0.5930 -0.5474  0.1279
 8094TIP3    H145697   0.916   6.449  15.522 -0.8883 -0.6493 -0.4182
 8094TIP3    H245698   1.027   6.462  15.419  0.3158  0.2331  0.9674
 8095TIP3   OH245699   1.795   4.353  12.235 -0.1775  0.4103 -0.6010
 8095TIP3    H145700   1.885   4.384  12.247  0.3862 -2.0386  2.2071
 8095TIP3    H245701   1.803   4.280  12.174 -0.3651  0.7883 -1.0705
 8096TIP3   OH245702   5.792   5.639   0.209  0.6641 -0.7774  0.5599
 8096TIP3    H145703   5.814   5.660   0.118  0.0626 -2.1102  0.0989
 8096TIP3    H245704   5.860   5.682   0.261  0.4066  0.8876 -0.4541
 8097TIP3   OH245705   0.813   0.370  15.242 -0.3698  0.4095 -0.2968
 8097TIP3    H145706   0.840   0.437  15.178 -0.0157 -0.3612 -0.9640
 8097TIP3    H245707   0.719   0.362  15.230 -0.1605 -0.4528 -1.4321
 8098TIP3   OH245708   7.092   3.871  13.136  0.0660 -0.1910  0.2711
 8098TIP3    H145709   7.074   3.943  13.075 -0.7931 -0.6036  0.0211
 8098TIP3    H245710   7.171   3.829  13.102 -0.7199 -0.7595 -0.8914
 8099TIP3   OH245711   3.470   1.392  15.003 -0.9128 -0.4404 -0.7196
 8099TIP3    H145712   3.406   1.330  14.969  0.8233 -1.8982 -1.4442
 8099TIP3    H245713   3.462   1.386  15.098 -3.5692  1.2662 -0.7980
 8100TIP3   OH245714   2.632   2.938   0.034  0.2337 -0.2838 -0.2911
 8100TIP3    H145715   2.565   2.929  -0.035 -1.2596 -0.9115  1.2067
 8100TIP3    H245716   2.662   2.849   0.050 -0.2474 -0.2781  0.6595
 8101TIP3   OH245717   3.282   6.205  14.919  0.2328  0.2395 -0.4855
 8101TIP3    H145718   3.187   6.211  14.926 -0.1304  0.4513 -4.6175
 8101TIP3    H245719   3.315   6.261  14.989 -2.6531  0.5531  0.6826
 8102TIP3   OH245720   5.949   1.911  13.387 -0.3789 -0.2096 -0.9358
 8102TIP3    H145721   5.905   1.993  13.363 -0.0303  0.3826  0.4033
 8102TIP3    H245722   5.959   1.865  13.304  0.7688  1.7834 -1.9482
 8103TIP3   OH245723   6.396   5.906  13.584  0.2493  0.0901  0.2645
 8103TIP3    H145724   6.427   5.845  13.517  3.7828  1.4620  0.5305
 8103TIP3    H245725   6.363   5.981  13.534 -0.8933 -0.5939 -0.0079
 8104TIP3   OH245726   0.002   4.733  12.911 -0.2499  0.1867  0.3037
 8104TIP3    H145727   0.027   4.641  12.922 -1.3090 -0.2634 -1.0197
 8104TIP3    H245728  -0.087   4.739  12.945 -0.4218  0.5943 -0.2097
 8105TIP3   OH245729   4.120   3.053   0.346  0.3744 -0.4558 -0.6353
 8105TIP3    H145730   4.088   2.972   0.306 -1.7387 -0.4606  1.0160
 8105TIP3    H245731   4.049   3.082   0.403  1.4824  2.0683 -0.4705
 8106TIP3   OH245732   5.553   0.596   1.253  0.3324 -0.6550  0.3489
 8106TIP3    H145733   5.609   0.596   1.331 -0.2995  0.6701  0.8257
 8106TIP3    H245734   5.528   0.688   1.242 -0.9313 -1.0838 -0.4398
 8107TIP3   OH245735   4.841   3.407  10.368  0.4599  0.2113 -0.4097
 8107TIP3    H145736   4.813   3.493  10.400 -2.9992 -1.0513  0.1504
 8107TIP3    H245737   4.830   3.413  10.273 -0.7400  0.1007 -0.2907
 8108TIP3   OH245738   2.477   4.370  10.086  0.1851  0.4438  0.1138
 8108TIP3    H145739   2.456   4.463  10.097 -1.6289  0.0367  0.3577
 8108TIP3    H245740   2.406   4.337  10.031 -0.2063 -1.1604  1.5450
 8109TIP3   OH245741   2.326   1.125   3.098  0.2379 -0.3665  0.0475
 8109TIP3    H145742   2.285   1.039   3.105 -1.1947  0.0500 -2.4419
 8109TIP3    H245743   2.349   1.133   3.005  3.2210  0.6760  0.8243
 8110TIP3   OH245744   0.975   3.894  11.040  0.0063  0.0155  0.2516
 8110TIP3    H145745   1.006   3.977  11.001 -1.5005  0.0952 -0.8319
 8110TIP3    H245746   1.000   3.827  10.976 -0.3136 -0.1515  0.3013
 8111TIP3   OH245747   1.921   5.692   0.042 -0.5026  0.3046  0.5535
 8111TIP3    H145748   1.931   5.722  -0.048  1.6845 -2.5257 -0.2107
 8111TIP3    H245749   1.847   5.631   0.039  1.1380 -1.7231  0.1027
 8112TIP3   OH245750   4.295   3.917  11.550 -0.0520 -0.0012  0.4729
 8112TIP3    H145751   4.229   3.913  11.620  0.1711  2.7814  0.8754
 8112TIP3    H245752   4.244   3.922  11.469 -0.3534  1.6392  0.7531
 8113TIP3   OH245753   2.438   6.393  13.972 -0.3339  0.2122 -0.1318
 8113TIP3    H145754   2.410   6.439  14.051 -1.2555 -1.4351  0.5240
 8113TIP3    H245755   2.364   6.403  13.912 -0.6878 -0.6922  0.1422
 8114TIP3   OH245756   0.210   2.149  13.461  0.5955 -0.0683  0.4453
 8114TIP3    H145757   0.281   2.092  13.490  1.1196 -0.5442 -1.6797
 8114TIP3    H245758   0.231   2.168  13.370 -1.4890  0.6183  0.0931
 8115TIP3   OH245759   0.280   3.774  14.210  0.3411 -0.0066  0.0744
 8115TIP3    H145760   0.234   3.733  14.283 -0.1542  1.3623  0.5579
 8115TIP3    H245761   0.222   3.845  14.182  1.6732  1.1017  0.0273
 8116TIP3   OH245762   1.469   5.139  15.314  0.4036 -0.5953 -0.1275
 8116TIP3    H145763   1.561   5.159  15.298  0.4346 -0.2413  0.4730
 8116TIP3    H245764   1.470   5.092  15.398 -0.1016  0.7242  0.6402
 8117TIP3   OH245765   4.748   5.610   0.667  0.3514  0.3859 -0.3060
 8117TIP3    H145766   4.840   5.618   0.693  0.1572  2.4135 -0.1605
 8117TIP3    H245767   4.729   5.517   0.676  2.5115 -0.1291 -0.7612
 8118TIP3   OH245768   1.159   4.085  14.529 -0.1697 -0.5890  0.1159
 8118TIP3    H145769   1.078   4.081  14.477 -0.0427  0.4308 -0.1704
 8118TIP3    H245770   1.145   4.158  14.590  0.5261 -0.4179  0.0788
 8119TIP3   OH245771   0.341   0.608   3.809  0.6359 -0.0295 -0.1695
 8119TIP3    H145772   0.321   0.516   3.826  1.3584  0.3510  2.9325
 8119TIP3    H245773   0.397   0.635   3.881  0.2591  2.9241 -0.9011
 8120TIP3   OH245774   6.887   4.729  12.930 -0.2238  0.2327  0.1947
 8120TIP3    H145775   6.797   4.732  12.962 -1.4280 -2.6695 -2.5793
 8120TIP3    H245776   6.886   4.782  12.850  0.3753 -0.2619 -0.1454
 8121TIP3   OH245777   5.131   2.332  12.080 -0.4300  0.3841 -0.2287
 8121TIP3    H145778   5.046   2.328  12.123 -0.6920  0.5512 -0.7226
 8121TIP3    H245779   5.123   2.274  12.004 -0.3942  1.0685 -0.7682
 8122TIP3   OH245780   5.439   5.078   0.477  0.0033 -0.8398 -0.0426
 8122TIP3    H145781   5.359   5.125   0.452 -0.2098  0.4423  2.8302
 8122TIP3    H245782   5.504   5.146   0.487  1.0656 -1.7274 -0.8282
 8123TIP3   OH245783   3.163   7.111  14.488  0.1749 -0.3212 -0.1197
 8123TIP3    H145784   3.159   7.136  14.581  2.0822  0.4045 -0.2188
 8123TIP3    H245785   3.082   7.063  14.473 -0.4298  0.0676  1.7830
 8124TIP3   OH245786   2.004   7.034   0.951  0.3302 -0.0666 -0.2962
 8124TIP3    H145787   1.959   6.999   1.029  0.5499  2.0484  0.8232
 8124TIP3    H245788   1.977   6.976   0.880 -3.0489  0.2498  0.6026
 8125TIP3   OH245789   0.925   2.785  12.441  0.3331  0.1247  0.2022
 8125TIP3    H145790   0.862   2.791  12.513  0.4797 -0.4134  0.3795
 8125TIP3    H245791   0.902   2.704  12.396  1.5836 -0.6511  0.9297
 8126TIP3   OH245792   0.087   3.040  12.864  0.4143 -0.1772 -0.2276
 8126TIP3    H145793   0.154   3.092  12.910  2.5640 -3.5287  0.5949
 8126TIP3    H245794   0.131   3.011  12.784 -1.2711  0.4677 -1.4095
 8127TIP3   OH245795   2.177   5.963   0.030  0.4315 -0.5432  0.3237
 8127TIP3    H145796   2.166   5.869   0.016  1.0220 -0.7031  0.8947
 8127TIP3    H245797   2.129   5.982   0.110 -0.1774 -0.2487 -0.1101
 8128TIP3   OH245798   6.998   5.482   0.849 -0.2726  0.0633  0.1619
 8128TIP3    H145799   7.052   5.549   0.806 -0.6208 -1.4040 -2.6834
 8128TIP3    H245800   7.060   5.413   0.873 -0.4287 -0.1963 -0.1799
 8129TIP3   OH245801   2.125   5.237  10.518  0.4959 -0.2815 -0.0471
 8129TIP3    H145802   2.130   5.332  10.520  0.0551 -0.2696  1.4998
 8129TIP3    H245803   2.216   5.208  10.512  0.9093  0.2218  2.8582
 8130TIP3   OH245804   5.525   1.114   0.005 -0.5756  0.5060 -0.4070
 8130TIP3    H145805   5.496   1.205   0.017  0.8350  1.2417 -2.3531
 8130TIP3    H245806   5.444   1.063   0.005 -1.6348  2.1290 -2.3006
 8131TIP3   OH245807   4.512   3.645   1.119  0.6282  0.1321 -0.4867
 8131TIP3    H145808   4.518   3.582   1.191 -0.6090  0.7275  0.1357
 8131TIP3    H245809   4.472   3.595   1.047  0.7068 -0.1026 -0.3697
 8132TIP3   OH245810   2.025   3.602  13.275  0.3626 -0.0961  0.0279
 8132TIP3    H145811   2.035   3.580  13.367  0.1224 -0.1844  0.0334
 8132TIP3    H245812   1.932   3.617  13.263  0.5758  1.4257  0.1374
 8133TIP3   OH245813   0.359   3.702   1.865 -0.8395 -0.0499 -0.5920
 8133TIP3    H145814   0.303   3.779   1.876  0.4180  0.9865 -1.2472
 8133TIP3    H245815   0.348   3.677   1.773 -0.8766 -0.3494 -0.5058
 8134TIP3   OH245816   7.032   6.350   2.178 -0.4901 -0.2716 -0.4924
 8134TIP3    H145817   7.086   6.393   2.112 -2.3635  0.2728 -1.7421
 8134TIP3    H245818   6.963   6.413   2.197 -1.2940 -1.3499  0.2611
 8135TIP3   OH245819   5.012   2.147  12.987 -0.4379  0.2617  0.0645
 8135TIP3    H145820   5.011   2.237  13.020 -0.6011  0.2177  0.1764
 8135TIP3    H245821   5.042   2.095  13.061 -0.9168  0.1492  0.1790
 8136TIP3   OH245822   3.144   3.530  12.379 -0.1996 -0.0733  0.5789
 8136TIP3    H145823   3.205   3.465  12.344 -0.8716  1.0644 -2.8734
 8136TIP3    H245824   3.063   3.481  12.396 -0.5371 -0.2686 -1.5091
 8137TIP3   OH245825   1.584   6.578  13.467  0.4831  0.3617 -0.3429
 8137TIP3    H145826   1.581   6.646  13.534 -0.6242 -0.9954  1.0378
 8137TIP3    H245827   1.656   6.521  13.495 -0.1359 -0.3378 -0.1530
 8138TIP3   OH245828   3.217   6.107   0.299 -0.1547 -0.3013  0.2156
 8138TIP3    H145829   3.226   6.049   0.223 -1.5489 -1.7068  1.0758
 8138TIP3    H245830   3.137   6.157   0.281 -1.2224 -1.5566  1.3001
 8139TIP3   OH245831   5.855   4.254  14.965  0.2228 -0.8619  0.0291
 8139TIP3    H145832   5.790   4.229  15.030  0.8282 -0.6637  0.7133
 8139TIP3    H245833   5.805   4.299  14.897  0.0205  1.7784  1.8726
 8140TIP3   OH245834   0.987   0.689  11.902  0.0239  0.6580  0.0405
 8140TIP3    H145835   0.933   0.612  11.924  0.4217  0.6498  1.0161
 8140TIP3    H245836   1.041   0.703  11.980  2.1774  0.0352 -1.2978
 8141TIP3   OH245837   1.333   0.907  12.548  0.0072  0.1493 -0.1980
 8141TIP3    H145838   1.386   0.987  12.553  0.7379 -0.3388 -0.0569
 8141TIP3    H245839   1.356   0.859  12.627  0.5516 -0.8058 -0.9321
 8142TIP3   OH245840   3.223   5.241   1.376 -0.0387 -0.3916  0.2041
 8142TIP3    H145841   3.139   5.284   1.391  0.0743 -0.8955  2.5353
 8142TIP3    H245842   3.205   5.148   1.387  0.6351 -0.5656 -0.1688
 8143TIP3   OH245843   3.968   5.571  14.397  0.4617  0.0937 -0.3474
 8143TIP3    H145844   3.934   5.596  14.311  0.0405  0.3926 -0.0969
 8143TIP3    H245845   3.969   5.653  14.446  0.1698 -0.1780  0.1133
 8144TIP3   OH245846   0.655   7.060  14.882 -0.6724  0.5907 -0.2273
 8144TIP3    H145847   0.715   7.081  14.954  1.5757 -1.2721 -1.5004
 8144TIP3    H245848   0.601   6.988  14.916  0.5654 -0.4674 -0.4592
 8145TIP3   OH245849   3.603   7.090   0.191  0.2022  0.8317  0.2164
 8145TIP3    H145850   3.652   7.131   0.120  0.7732  2.0257  1.2760
 8145TIP3    H245851   3.521   7.140   0.195 -0.6321 -0.4073 -0.7770
 8146TIP3   OH245852   3.427   5.548  11.393  0.7099 -0.0920 -0.2537
 8146TIP3    H145853   3.514   5.508  11.392  0.2787 -1.0519 -1.0753
 8146TIP3    H245854   3.380   5.503  11.322 -1.3722 -1.6577  2.0246
 8147TIP3   OH245855   7.109   6.490  11.789 -0.0997  0.2479 -0.0123
 8147TIP3    H145856   7.093   6.575  11.832  1.5454  1.4699 -1.7261
 8147TIP3    H245857   7.170   6.511  11.718 -0.6992 -2.1879 -1.2669
 8148TIP3   OH245858   6.326   1.137  12.833  0.0999  0.1969  0.8026
 8148TIP3    H145859   6.402   1.179  12.874  1.0699  0.3039 -1.0462
 8148TIP3    H245860   6.262   1.208  12.823  0.6056  0.5950  0.3693
 8149TIP3   OH245861   0.445   6.332  12.946  0.3030  0.2299  0.1877
 8149TIP3    H145862   0.441   6.237  12.935  1.7144  0.2111 -0.2446
 8149TIP3    H245863   0.420   6.367  12.860 -0.3573  0.2622  0.3870
 8150TIP3   OH245864   5.577   5.511  12.646  0.2401 -0.5623  0.0008
 8150TIP3    H145865   5.524   5.591  12.647  0.1113 -0.6450 -0.2234
 8150TIP3    H245866   5.523   5.447  12.600 -0.9230 -1.6475  2.7362
 8151TIP3   OH245867   0.033   5.315  10.378  0.3056 -0.0368  0.4150
 8151TIP3    H145868   0.006   5.405  10.396 -2.0531 -0.5052 -0.5764
 8151TIP3    H245869   0.020   5.305  10.283  1.7651 -1.0369  0.3044
 8152TIP3   OH245870   3.170   4.578  13.856 -0.0616 -0.3121  0.1443
 8152TIP3    H145871   3.126   4.594  13.773 -0.9869  3.5900  1.2999
 8152TIP3    H245872   3.259   4.610  13.844 -0.0851 -0.0872  0.5462
 8153TIP3   OH245873   3.291   4.649   0.492 -0.0333 -0.1134 -0.4395
 8153TIP3    H145874   3.242   4.674   0.571 -1.1819 -2.7252 -0.2791
 8153TIP3    H245875   3.377   4.689   0.503 -0.4704  0.2660  1.7247
 8154TIP3   OH245876   2.256   6.376  11.299  0.1850  0.4610 -1.0646
 8154TIP3    H145877   2.342   6.392  11.260  0.3041  2.5792 -0.0248
 8154TIP3    H245878   2.219   6.463  11.312  0.4871 -0.0096  4.2198
 8155TIP3   OH245879   3.210   0.144  11.961  0.7864  0.1918 -0.4150
 8155TIP3    H145880   3.166   0.223  11.927  1.2510  1.7413  2.4135
 8155TIP3    H245881   3.301   0.154  11.934  0.5731 -0.0875 -1.2519
 8156TIP3   OH245882   5.069   3.282  12.984 -0.0016  0.3628 -0.3635
 8156TIP3    H145883   5.137   3.276  13.050  1.2133 -1.8370 -1.7704
 8156TIP3    H245884   5.115   3.300  12.902 -1.2536  0.5522 -1.0505
 8157TIP3   OH245885   3.762   5.216  13.361  0.2430 -0.1139 -0.7378
 8157TIP3    H145886   3.784   5.294  13.412  0.1875  0.0750 -1.0003
 8157TIP3    H245887   3.842   5.197  13.312  0.3576 -0.4035 -0.4449
 8158TIP3   OH245888   2.361   0.456   3.063 -0.8834 -0.1512 -0.1860
 8158TIP3    H145889   2.283   0.445   3.008 -0.0494  0.0486 -1.4315
 8158TIP3    H245890   2.397   0.368   3.071 -0.8425 -0.1349 -0.1906
 8159TIP3   OH245891   5.403   5.259  12.896  0.7101 -0.1632 -0.3579
 8159TIP3    H145892   5.400   5.304  12.980 -0.3553 -1.4064  0.2816
 8159TIP3    H245893   5.496   5.241  12.882  0.7154 -1.6184  1.4462
 8160TIP3   OH245894   3.338   3.912  13.242  0.1095 -0.5696  0.7631
 8160TIP3    H145895   3.248   3.888  13.220  0.0888 -0.9631  1.2623
 8160TIP3    H245896   3.356   3.865  13.324  1.5227 -2.3678 -0.5115
 8161TIP3   OH245897   0.589   6.117  14.502  0.2946 -0.3223 -0.3492
 8161TIP3    H145898   0.549   6.120  14.589 -0.0191  1.7149 -0.5549
 8161TIP3    H245899   0.517   6.091  14.443 -0.4671  2.1239 -0.5418
 8162TIP3   OH245900   6.921   6.377   1.812  0.1530  0.1892  0.1564
 8162TIP3    H145901   6.950   6.413   1.728 -1.0663 -1.5574 -1.0392
 8162TIP3    H245902   6.863   6.445   1.848  0.6230  0.9130 -0.4359
 8163TIP3   OH245903   0.196   0.389   1.491  0.3002  0.1391  0.1003
 8163TIP3    H145904   0.156   0.427   1.412  3.6481  1.1934 -1.1607
 8163TIP3    H245905   0.125   0.387   1.555 -2.6997 -1.4023 -3.1238
 8164TIP3   OH245906   4.629   4.796   2.716 -0.3678 -0.1680  0.0414
 8164TIP3    H145907   4.693   4.732   2.748  0.8192  0.7982 -0.3366
 8164TIP3    H245908   4.592   4.834   2.795  2.0070  1.6679  0.3361
 8165TIP3   OH245909   6.942   6.845   0.846 -0.4176  0.0723 -0.0751
 8165TIP3    H145910   7.031   6.813   0.856 -0.3580 -0.3781 -1.8315
 8165TIP3    H245911   6.887   6.779   0.888  0.0445  0.0775  0.5336
 8166TIP3   OH245912   5.794   1.862  13.650  0.2639 -0.3174 -0.1242
 8166TIP3    H145913   5.836   1.836  13.568 -1.6647 -1.6565 -0.7238
 8166TIP3    H245914   5.766   1.952  13.634  0.7913 -0.2288 -0.5705
 8167TIP3   OH245915   5.994   4.070  14.762  0.2500  0.8233  0.0002
 8167TIP3    H145916   6.030   4.147  14.718 -1.3756  1.5295 -0.0973
 8167TIP3    H245917   5.955   4.104  14.843  0.4401 -0.0484  0.4703
 8168TIP3   OH245918   5.185   0.319   1.512  0.0832 -0.7906  0.2134
 8168TIP3    H145919   5.137   0.265   1.449  0.3148 -3.0573  1.9252
 8168TIP3    H245920   5.119   0.377   1.549  0.0613  1.0584 -2.5443
 8169TIP3   OH245921   1.990   6.625  14.316  0.0790  0.1955  0.4823
 8169TIP3    H145922   1.922   6.651  14.378 -1.5657 -3.1312  0.1618
 8169TIP3    H245923   1.979   6.684  14.242 -1.4735  0.6367  1.0513
 8170TIP3   OH245924   2.664   4.033  13.459  0.4453  0.3838 -0.1676
 8170TIP3    H145925   2.686   3.975  13.386 -0.2737 -2.0588  1.5008
 8170TIP3    H245926   2.582   3.998  13.494  0.1436  2.2472  1.0565
 8171TIP3   OH245927   2.090   1.656  14.239 -0.2699  0.1655 -0.3680
 8171TIP3    H145928   2.013   1.608  14.209  1.4525 -1.6579 -2.0028
 8171TIP3    H245929   2.139   1.675  14.158  2.7274 -1.7746  0.8948
 8172TIP3   OH245930   0.125   2.276  12.742  0.3290 -0.6878 -0.5687
 8172TIP3    H145931   0.050   2.332  12.723  0.4699 -0.9191 -1.8402
 8172TIP3    H245932   0.110   2.197  12.691  2.0007 -0.2634 -1.7603
 8173TIP3   OH245933   4.999   5.028  13.017  0.4707 -0.2290  0.2209
 8173TIP3    H145934   4.913   5.047  12.979  0.3629  0.3938  0.7683
 8173TIP3    H245935   5.061   5.054  12.950  0.2065 -1.6142 -0.5730
 8174TIP3   OH245936   4.634   3.632   1.508 -0.1731  0.3785  0.1580
 8174TIP3    H145937   4.694   3.680   1.565 -0.2704  0.4630  0.1901
 8174TIP3    H245938   4.586   3.701   1.461  0.5705  0.3142 -0.7281
 8175TIP3   OH245939   0.970   5.447   1.563  0.3508  0.0493 -0.1166
 8175TIP3    H145940   1.020   5.452   1.644  0.8824 -3.1317 -0.2019
 8175TIP3    H245941   0.879   5.457   1.591  0.6669  1.0955  0.5825
 8176TIP3   OH245942   0.149   0.047  14.815 -0.2299 -0.2985 -1.0227
 8176TIP3    H145943   0.194   0.127  14.790  0.1714  0.0225  0.6830
 8176TIP3    H245944   0.056   0.065  14.795 -0.1173  0.5055 -0.8530
 8177TIP3   OH245945   6.192   0.751   1.239  0.3758 -0.2147 -0.3610
 8177TIP3    H145946   6.217   0.818   1.302 -1.6140  0.5978 -0.4253
 8177TIP3    H245947   6.226   0.669   1.276 -0.2027  0.3431  1.4382
 8178TIP3   OH245948   2.582   1.967  12.432 -0.1092 -0.3082  0.0848
 8178TIP3    H145949   2.653   2.026  12.410 -0.9707  0.8332  0.3325
 8178TIP3    H245950   2.621   1.904  12.492  1.1951 -0.9242 -1.3542
 8179TIP3   OH245951   1.029   1.653   1.487  0.5715 -0.7906  0.2879
 8179TIP3    H145952   0.955   1.592   1.480 -0.2730  0.2359  0.1181
 8179TIP3    H245953   1.051   1.674   1.396  0.7464 -0.7118  0.3484
 8180TIP3   OH245954   6.697   4.764  11.876 -0.2624  0.1824  0.2905
 8180TIP3    H145955   6.682   4.670  11.871  0.0004  0.1747 -0.3295
 8180TIP3    H245956   6.617   4.799  11.916 -0.5008 -0.2607  0.2013
 8181TIP3   OH245957   0.759   4.952   1.061 -0.2549  0.5376 -0.4287
 8181TIP3    H145958   0.827   4.890   1.087  0.0963  1.6211  1.3164
 8181TIP3    H245959   0.762   4.952   0.965 -0.4460 -2.3058 -0.4706
 8182TIP3   OH245960   2.054   0.337   0.811  0.2823  0.1008  0.5044
 8182TIP3    H145961   2.020   0.408   0.865 -0.2782  0.6270 -0.5371
 8182TIP3    H245962   2.111   0.379   0.747  1.1413 -0.5485  0.8274
 8183TIP3   OH245963   7.073   2.039   9.837 -0.2342  0.5226  0.1473
 8183TIP3    H145964   7.061   1.957   9.883 -0.2520  1.6587  2.2399
 8183TIP3    H245965   7.092   2.014   9.747  0.5954 -1.7839  0.9403
 8184TIP3   OH245966   2.163   6.787  15.281  0.1048  0.1356  0.2440
 8184TIP3    H145967   2.068   6.791  15.296  0.3218 -0.7798  2.0079
 8184TIP3    H245968   2.172   6.786  15.186 -1.8155 -2.9805  0.0444
 8185TIP3   OH245969   2.393   3.048  13.366  0.4126 -0.3180  0.1604
 8185TIP3    H145970   2.433   3.082  13.287  0.1399  2.5531  1.1947
 8185TIP3    H245971   2.409   2.954  13.363  2.7855  0.1101 -1.9204
 8186TIP3   OH245972   1.051   3.991   1.004 -0.7270  0.1931  0.6477
 8186TIP3    H145973   1.045   4.027   1.092 -1.5163  1.4071  0.1141
 8186TIP3    H245974   1.030   3.898   1.014 -0.8565  0.3406  1.7228
 8187TIP3   OH245975   1.518   0.187   1.674  0.1069 -0.5127 -0.0669
 8187TIP3    H145976   1.502   0.143   1.757  1.6038 -0.7266  0.1145
 8187TIP3    H245977   1.605   0.226   1.683 -1.4687  3.2313  0.0903
 8188TIP3   OH245978   3.086   5.563   0.317  0.2893  0.0379 -0.5634
 8188TIP3    H145979   3.010   5.581   0.263  1.5761  1.8650 -1.8436
 8188TIP3    H245980   3.150   5.630   0.291  1.3024  0.3116  2.4913
 8189TIP3   OH245981   6.747   0.209   0.364  0.1544 -0.3498 -0.3360
 8189TIP3    H145982   6.827   0.260   0.350  0.2393 -0.3543  0.1464
 8189TIP3    H245983   6.776   0.118   0.357  0.2640 -0.3576  0.2591
 8190TIP3   OH245984   0.076   5.979  14.595 -0.0388  0.0509  0.0490
 8190TIP3    H145985   0.066   6.053  14.535 -0.2373  1.5017  1.8337
 8190TIP3    H245986   0.130   5.917  14.546  0.5780  1.5879 -1.3010
 8191TIP3   OH245987   5.180   5.091  15.490 -0.3622 -0.0010 -0.3597
 8191TIP3    H145988   5.275   5.081  15.493 -0.1400  1.8412 -0.5289
 8191TIP3    H245989   5.162   5.134  15.407 -1.4505 -1.2113 -0.7753
 8192TIP3   OH245990   0.845   1.009  12.661 -0.2605 -0.4511 -0.6733
 8192TIP3    H145991   0.934   1.011  12.624 -0.1587 -2.0188 -0.5695
 8192TIP3    H245992   0.843   1.082  12.722  1.0583 -0.5711 -0.4650
 8193TIP3   OH245993   5.679   5.638   2.584 -0.0586 -0.6382 -0.7424
 8193TIP3    H145994   5.768   5.648   2.619 -0.5941 -0.0214  0.4378
 8193TIP3    H245995   5.632   5.587   2.650 -1.0599  0.4756 -0.5910
 8194TIP3   OH245996   4.436   2.163  14.720  0.5215  0.3329 -0.4338
 8194TIP3    H145997   4.379   2.131  14.651 -2.0942 -0.9863  2.2299
 8194TIP3    H245998   4.488   2.086  14.745  0.0282  0.2532  0.3835
 8195TIP3   OH245999   3.176   2.158   2.249  0.3164  0.6491  0.0611
 8195TIP3    H146000   3.251   2.164   2.309 -0.5633 -1.4268  1.4044
 8195TIP3    H246001   3.103   2.197   2.298 -0.5251 -1.5204  0.5714
 8196TIP3   OH246002   3.159   5.034   4.803  0.8510  0.1017  0.5050
 8196TIP3    H146003   3.131   4.968   4.865 -1.0410  1.2924  0.9573
 8196TIP3    H246004   3.218   5.090   4.853 -2.4309  2.3983  1.9759
 8197TIP3   OH246005   5.312   4.056  14.519  0.5125  0.5059  0.4356
 8197TIP3    H146006   5.343   4.146  14.505 -0.8293  0.8809 -0.3070
 8197TIP3    H246007   5.388   4.001  14.504  1.6900  1.5869  2.1801
 8198TIP3   OH246008   6.290   2.033   4.971 -0.5392  0.1746  0.0450
 8198TIP3    H146009   6.261   2.106   4.916 -3.9494 -0.7989  0.3893
 8198TIP3    H246010   6.238   1.958   4.941  0.4848 -1.3283  1.8949
 8199TIP3   OH246011   4.366   1.268  14.134 -0.4603  0.1352 -0.0534
 8199TIP3    H146012   4.360   1.347  14.188 -1.8102  1.5703 -2.2507
 8199TIP3    H246013   4.437   1.218  14.174 -0.0975  2.0806  1.8548
 8200TIP3   OH246014   4.287   6.764  12.552 -0.7666  0.4896 -0.3492
 8200TIP3    H146015   4.296   6.854  12.585  0.7542  1.0853 -2.3057
 8200TIP3    H246016   4.368   6.721  12.577 -0.7152  0.2022 -0.9912
 8201TIP3   OH246017   7.037   0.493  10.654  0.0989 -0.1331  0.8357
 8201TIP3    H146018   7.070   0.432  10.720  0.6756  0.0436  0.7175
 8201TIP3    H246019   7.116   0.533  10.617 -0.2838  1.0618  1.2706
 8202TIP3   OH246020   5.674   3.945   0.383 -0.4145 -0.5565 -0.1277
 8202TIP3    H146021   5.639   3.947   0.293 -4.0825  0.6306  1.2059
 8202TIP3    H246022   5.664   3.854   0.411 -1.5282 -0.4495 -0.1425
 8203TIP3   OH246023   2.507   0.390   1.470  0.9949 -0.3367  0.3701
 8203TIP3    H146024   2.557   0.369   1.549  2.0674  2.4109  0.4457
 8203TIP3    H246025   2.423   0.422   1.503  1.1807  0.1447  0.3742
 8204TIP3   OH246026   1.513   4.357   0.200 -0.0900 -0.2660  0.0457
 8204TIP3    H146027   1.450   4.286   0.185  1.3882 -1.3390 -1.2549
 8204TIP3    H246028   1.459   4.433   0.221 -1.7427 -1.5814  0.6544
 8205TIP3   OH246029   3.225   1.846  11.196  0.1409  0.2578 -0.2059
 8205TIP3    H146030   3.276   1.916  11.236  0.0812  1.3941 -2.0707
 8205TIP3    H246031   3.273   1.824  11.116 -0.1912 -1.3906  0.0295
 8206TIP3   OH246032   3.482   7.083   1.856 -0.6204 -0.0795  0.5438
 8206TIP3    H146033   3.457   7.009   1.911 -0.3309 -0.5260  0.0866
 8206TIP3    H246034   3.402   7.105   1.808 -0.6424 -0.2586  0.4973
 8207TIP3   OH246035   2.611   6.337   3.054 -0.4550  0.5572 -0.0152
 8207TIP3    H146036   2.686   6.309   3.001  0.4301  1.5073  0.6957
 8207TIP3    H246037   2.550   6.264   3.050  0.8564 -0.5675  0.0179
 8208TIP3   OH246038   2.301   4.252   9.885 -0.7060  0.1740  0.2027
 8208TIP3    H146039   2.235   4.285   9.825  0.5855  0.1551 -1.2797
 8208TIP3    H246040   2.355   4.194   9.831  0.1709 -0.2546  1.5092
 8209TIP3   OH246041   3.275   0.267  14.082  0.5863  0.0007 -0.6505
 8209TIP3    H146042   3.210   0.337  14.082 -0.5100 -0.9985  1.0748
 8209TIP3    H246043   3.257   0.217  14.161  1.9256 -1.7131 -1.3999
 8210TIP3   OH246044   3.706   0.057  12.315  0.2821  0.2900  0.0136
 8210TIP3    H146045   3.710  -0.034  12.344 -1.5246  0.3699  0.6122
 8210TIP3    H246046   3.655   0.054  12.234  1.4371  0.6166 -0.7401
 8211TIP3   OH246047   1.168   5.623   0.124  0.1088  0.1594 -0.2348
 8211TIP3    H146048   1.167   5.710   0.165 -0.5605  0.6301 -1.2155
 8211TIP3    H246049   1.076   5.596   0.123  0.2934 -0.4796 -0.1093
 8212TIP3   OH246050   2.897   5.604  14.544 -0.0655 -0.4178 -0.3591
 8212TIP3    H146051   2.822   5.579  14.599  0.4705  1.7917  1.4807
 8212TIP3    H246052   2.858   5.644  14.467 -0.8115 -0.3871  0.0274
 8213TIP3   OH246053   3.656   4.262  15.531 -0.2613  0.1941 -0.2506
 8213TIP3    H146054   3.650   4.353  15.500 -0.4805 -0.9778 -3.8728
 8213TIP3    H246055   3.744   4.256  15.568 -0.4402  1.9962  0.5565
 8214TIP3   OH246056   3.175   5.026  14.430 -0.7915 -0.0521 -0.0352
 8214TIP3    H146057   3.107   5.070  14.481 -1.6221 -2.1978  0.7495
 8214TIP3    H246058   3.227   4.978  14.495 -0.3690 -0.8379 -0.9416
 8215TIP3   OH246059   4.953   1.227  14.037  0.4279  0.4372 -1.0500
 8215TIP3    H146060   5.046   1.219  14.014  0.2161 -0.8892 -1.4714
 8215TIP3    H246061   4.946   1.182  14.121  0.5853  2.4890  0.0806
 8216TIP3   OH246062   1.970   5.911  13.266 -0.0499 -0.1918  0.1701
 8216TIP3    H146063   2.034   5.954  13.210 -0.2367 -1.1667 -0.8103
 8216TIP3    H246064   1.885   5.936  13.228 -0.1859 -0.5515  0.2352
 8217TIP3   OH246065   0.544   6.857  14.585 -0.3526 -0.5275  0.8109
 8217TIP3    H146066   0.518   6.949  14.572 -0.5956 -0.6002  0.7793
 8217TIP3    H246067   0.517   6.837  14.674 -3.9449 -1.7699 -0.4666
 8218TIP3   OH246068   2.227   0.649  11.922  0.7874  0.4128  0.4385
 8218TIP3    H146069   2.200   0.655  12.013  2.4373 -1.3935  1.0824
 8218TIP3    H246070   2.315   0.611  11.926  1.5056  1.7336 -1.8166
 8219TIP3   OH246071   4.075   4.802   1.028 -0.2702  0.3179 -0.7681
 8219TIP3    H146072   4.132   4.737   0.986 -1.6556 -0.7287 -1.0818
 8219TIP3    H246073   4.133   4.852   1.085  0.6236 -2.0348  0.4678
 8220TIP3   OH246074   1.638   2.486  13.385  0.0275  0.2487  0.3360
 8220TIP3    H146075   1.710   2.548  13.392 -0.3352  0.6227  0.7756
 8220TIP3    H246076   1.562   2.534  13.416 -0.8387  0.5665 -2.1143
 8221TIP3   OH246077   4.369   3.648  14.906 -0.5246 -0.2676  0.3430
 8221TIP3    H146078   4.350   3.587  14.835  0.5766  1.1759 -1.2290
 8221TIP3    H246079   4.301   3.630  14.972 -1.1665 -2.0597 -0.7800
 8222TIP3   OH246080   1.629   2.001  11.823 -0.0502  0.0835  0.2079
 8222TIP3    H146081   1.686   1.976  11.895  0.6706 -0.7047 -0.6200
 8222TIP3    H246082   1.551   1.946  11.834  0.9491 -1.6078 -0.8120
 8223TIP3   OH246083   5.510   5.402  14.751  0.6266  0.5654  0.4139
 8223TIP3    H146084   5.506   5.459  14.828 -0.4584  1.9095 -0.6190
 8223TIP3    H246085   5.426   5.357  14.750 -0.0847  1.8661 -0.9526
 8224TIP3   OH246086   4.202   4.987  12.032 -0.1627  0.7021 -0.0317
 8224TIP3    H146087   4.182   4.963  12.122  1.2482 -0.4475 -0.0129
 8224TIP3    H246088   4.152   4.925  11.979 -0.9096  1.3121 -0.0683
 8225TIP3   OH246089   6.777   4.214  15.225  0.1785 -0.6049  0.0570
 8225TIP3    H146090   6.858   4.246  15.187 -0.9827 -0.3131 -2.2199
 8225TIP3    H246091   6.804   4.143  15.284  2.0336 -0.8181 -1.0249
 8226TIP3   OH246092   0.607   4.767  12.447 -0.3275 -0.0379  0.5375
 8226TIP3    H146093   0.578   4.754  12.537 -2.0868  1.1640  0.1682
 8226TIP3    H246094   0.539   4.822  12.408  0.5828 -0.2794 -1.4307
 8227TIP3   OH246095   7.046   5.291   1.629  0.5139  1.0189  0.4986
 8227TIP3    H146096   7.123   5.254   1.673  0.7674  1.0030  0.0410
 8227TIP3    H246097   6.988   5.216   1.617  0.8436  0.8530 -0.0376
 8228TIP3   OH246098   0.581   2.182  12.175 -0.2707  0.4630 -0.4099
 8228TIP3    H146099   0.622   2.098  12.155 -1.8130  0.0502 -1.9081
 8228TIP3    H246100   0.625   2.211  12.255  0.8549 -1.3707 -0.3310
 8229TIP3   OH246101   6.336   2.180  13.939  0.3771  0.1903 -0.1637
 8229TIP3    H146102   6.381   2.136  13.866 -0.9834 -3.3205  1.0059
 8229TIP3    H246103   6.391   2.161  14.015  0.3538  1.5016  0.1877
 8230TIP3   OH246104   1.896   5.612   2.339 -0.1798  0.7303 -0.2502
 8230TIP3    H146105   1.884   5.691   2.392 -1.3645 -0.7027  1.7153
 8230TIP3    H246106   1.813   5.603   2.292  0.0980  0.8542 -0.7676
 8231TIP3   OH246107   3.637   2.034  13.910  0.6206 -0.6972  0.1229
 8231TIP3    H146108   3.593   2.101  13.858  1.8939  0.9927  1.1835
 8231TIP3    H246109   3.590   2.034  13.993  0.0528 -1.7806 -0.1854
 8232TIP3   OH246110   3.067   2.418  12.766 -0.2143 -0.1318  0.1100
 8232TIP3    H146111   3.123   2.494  12.780  0.9918 -0.8490 -0.6817
 8232TIP3    H246112   3.060   2.410  12.671  0.0569 -1.2642  0.1768
 8233TIP3   OH246113   1.539   0.950   2.174 -0.3787 -0.1834  0.0805
 8233TIP3    H146114   1.546   0.888   2.247 -1.4578 -0.3322  0.0612
 8233TIP3    H246115   1.549   1.036   2.215 -2.4742 -0.1854  0.6275
 8234TIP3   OH246116   6.131   4.551   0.846 -0.0714 -0.0765 -0.0388
 8234TIP3    H146117   6.069   4.520   0.780 -1.2481  1.9461  0.0720
 8234TIP3    H246118   6.201   4.594   0.797  0.0966 -0.3762 -0.0615
 8235TIP3   OH246119   3.940   6.084  12.301 -0.1288  0.4491 -0.2144
 8235TIP3    H146120   4.026   6.106  12.337  0.1291  1.4246 -1.3889
 8235TIP3    H246121   3.881   6.086  12.376  0.2241  3.3018  0.0379
 8236TIP3   OH246122   1.964   0.492   1.025 -0.0415 -0.3119 -0.1392
 8236TIP3    H146123   1.977   0.420   1.087 -2.1316 -0.6542 -0.0548
 8236TIP3    H246124   1.990   0.571   1.073  0.3055 -0.7986  0.4695
 8237TIP3   OH246125   1.997   2.794   0.288  0.0284 -0.0773  0.4432
 8237TIP3    H146126   2.045   2.819   0.366 -0.8896  1.0964  0.6490
 8237TIP3    H246127   1.985   2.876   0.240 -0.6763 -0.5569 -0.2116
 8238TIP3   OH246128   0.389   3.000  10.626 -0.2396  0.1182 -0.1158
 8238TIP3    H146129   0.413   2.997  10.718 -1.5255 -3.6811  0.1878
 8238TIP3    H246130   0.392   2.909  10.597 -0.4262  1.1597 -3.6844
 8239TIP3   OH246131   2.526   0.175  12.112 -0.2923 -0.6444  0.2315
 8239TIP3    H146132   2.529   0.091  12.158 -0.8167 -0.4436  0.6291
 8239TIP3    H246133   2.525   0.151  12.019  0.0643 -1.0641  0.3362
 8240TIP3   OH246134   1.058   3.831  15.183 -0.6833 -0.6351 -0.8822
 8240TIP3    H146135   0.974   3.874  15.197 -1.0169 -1.1408 -1.2937
 8240TIP3    H246136   1.047   3.784  15.100  0.0975 -0.4716 -1.0816
 8241TIP3   OH246137   1.005   3.528  12.415 -0.1049  0.5854  0.2782
 8241TIP3    H146138   1.094   3.514  12.380 -0.4664 -0.6498 -0.1679
 8241TIP3    H246139   0.962   3.581  12.349 -0.5960 -1.2461 -0.9101
 8242TIP3   OH246140   0.436   6.574   0.650  0.5588  0.2464 -0.0179
 8242TIP3    H146141   0.423   6.493   0.601 -0.0954  0.7450 -0.6705
 8242TIP3    H246142   0.360   6.580   0.708 -0.1557  1.1595 -1.0424
 8243TIP3   OH246143   0.979   2.944  13.686 -0.9873  0.7730  0.0734
 8243TIP3    H146144   0.981   2.945  13.590 -2.3275 -0.1700  0.0187
 8243TIP3    H246145   0.964   3.035  13.711  1.6996  1.4142 -0.5234
 8244TIP3   OH246146   7.029   2.671  13.011 -0.2838 -0.1634 -0.2826
 8244TIP3    H146147   7.061   2.761  13.019 -2.0631  0.5228 -0.6988
 8244TIP3    H246148   6.999   2.648  13.099 -0.4433 -0.1265 -0.3283
 8245TIP3   OH246149   1.722   1.056  13.224 -0.1509 -0.7639  0.1869
 8245TIP3    H146150   1.723   1.146  13.190  0.5771 -0.5886  0.6686
 8245TIP3    H246151   1.687   1.004  13.152  1.0215 -0.3380 -0.6930
 8246TIP3   OH246152   5.646   2.707  11.065 -0.0974  0.3942 -0.1817
 8246TIP3    H146153   5.654   2.611  11.065  0.4747  0.4378 -0.6369
 8246TIP3    H246154   5.716   2.737  11.006 -0.9155  1.0431 -0.8342
 8247TIP3   OH246155   5.678   6.497  12.417 -0.6398 -0.1982  0.3129
 8247TIP3    H146156   5.713   6.465  12.334  0.4360 -0.0814  0.7094
 8247TIP3    H246157   5.754   6.536  12.462 -0.9158 -1.4647  1.9215
 8248TIP3   OH246158   5.174   5.947  14.806 -0.0590  0.2532  0.4145
 8248TIP3    H146159   5.081   5.937  14.823 -0.4622  2.2877 -0.5103
 8248TIP3    H246160   5.204   6.011  14.870  0.3854  0.7402 -0.2690
 8249TIP3   OH246161   2.959   2.324   0.196  0.4437 -0.4390  0.4481
 8249TIP3    H146162   2.955   2.398   0.135 -1.2009  0.5322  1.6932
 8249TIP3    H246163   3.046   2.332   0.237  0.0948  1.0890  0.9117
 8250TIP3   OH246164   5.772   6.319  12.817  0.0357 -0.4621  0.5314
 8250TIP3    H146165   5.764   6.233  12.776 -0.2650 -0.0344 -0.3216
 8250TIP3    H246166   5.734   6.380  12.753  3.3229  0.7425 -0.4225
 8251TIP3   OH246167   0.458   4.184   3.126  0.2737  0.1095 -0.6746
 8251TIP3    H146168   0.536   4.213   3.173 -2.0370  1.5740  2.3788
 8251TIP3    H246169   0.426   4.263   3.082  0.3154 -0.4282 -1.6925
 8252TIP3   OH246170   6.085   3.008   1.405  0.0001 -0.0615  0.0939
 8252TIP3    H146171   5.992   3.025   1.415 -0.0786  0.1774 -0.9979
 8252TIP3    H246172   6.092   2.912   1.406  0.0950 -0.0942  3.0663
 8253TIP3   OH246173   1.813   3.229  13.006 -0.1061 -0.0397 -0.3655
 8253TIP3    H146174   1.847   3.275  13.083 -0.0246 -0.0992 -0.3660
 8253TIP3    H246175   1.744   3.173  13.040  0.7697 -0.9935 -0.1552
 8254TIP3   OH246176   5.145   0.249   0.209  0.4589  0.0880  0.0167
 8254TIP3    H146177   5.192   0.332   0.199  0.6936  0.2571  2.2302
 8254TIP3    H246178   5.055   0.276   0.230 -0.1251 -0.2435 -1.9281
 8255TIP3   OH246179   3.412   1.023  10.406  0.0175  0.4633  0.3203
 8255TIP3    H146180   3.321   1.049  10.416 -0.1545  0.2758 -0.6400
 8255TIP3    H246181   3.459   1.104  10.386  0.1480  0.6383  1.3350
 8256TIP3   OH246182   3.037   5.343  12.301  0.3621  0.4214  0.5845
 8256TIP3    H146183   2.947   5.314  12.317  0.1561  1.1225  0.7401
 8256TIP3    H246184   3.080   5.268  12.261 -1.1321  1.0080 -2.2914
 8257TIP3   OH246185   1.296   0.885   0.950  0.4997  0.0583 -1.1290
 8257TIP3    H146186   1.335   0.927   1.027  0.9628 -0.1194 -1.2678
 8257TIP3    H246187   1.334   0.797   0.949 -1.9582 -1.0785  0.3046
 8258TIP3   OH246188   5.061   3.650  14.537 -0.0991  0.1879  0.9270
 8258TIP3    H146189   4.994   3.674  14.601 -1.2368 -0.0871 -0.1337
 8258TIP3    H246190   5.013   3.604  14.468  0.9245  1.4203 -0.6575
 8259TIP3   OH246191   4.383   0.699  15.250  0.2086 -0.5836  0.6415
 8259TIP3    H146192   4.415   0.645  15.178 -0.1308 -1.2817  1.0145
 8259TIP3    H246193   4.294   0.668  15.267 -0.0382  0.1782  0.7672
 8260TIP3   OH246194   6.945   5.437   2.645  0.0255  0.0269 -0.5392
 8260TIP3    H146195   6.958   5.345   2.622  0.0318 -0.1730  0.2639
 8260TIP3    H246196   6.936   5.481   2.560 -2.4424 -1.0826 -0.9219
 8261TIP3   OH246197   5.760   4.366  10.577  0.5394 -0.2608  0.5311
 8261TIP3    H146198   5.811   4.426  10.523 -1.2465  0.0137 -0.9449
 8261TIP3    H246199   5.824   4.313  10.623  2.1315  0.5286 -0.7383
 8262TIP3   OH246200   2.421   0.683  10.908  0.3919 -0.2180 -0.3100
 8262TIP3    H146201   2.512   0.654  10.918  1.0654  2.4328  2.0879
 8262TIP3    H246202   2.372   0.630  10.972  0.2339 -1.6107 -1.5670
 8263TIP3   OH246203   0.217   2.196  14.675 -0.1620 -0.4232 -0.2713
 8263TIP3    H146204   0.237   2.214  14.583 -1.8171  1.2802 -0.3262
 8263TIP3    H246205   0.124   2.173  14.675  0.0808 -1.4761  0.8597
 8264TIP3   OH246206   4.513   6.183   1.516 -0.9541  0.4613 -0.1758
 8264TIP3    H146207   4.497   6.269   1.554 -1.1314  0.1202  0.5232
 8264TIP3    H246208   4.607   6.182   1.499 -0.9383  0.7662 -0.1148
 8265TIP3   OH246209   4.681   5.657  14.082 -0.0277  0.2320  0.1482
 8265TIP3    H146210   4.767   5.698  14.075  0.1037 -0.1027 -0.2351
 8265TIP3    H246211   4.684   5.609  14.164 -0.2936  1.2359  0.7556
 8266TIP3   OH246212   1.609   4.031  13.265 -0.5101  1.1900 -0.0342
 8266TIP3    H146213   1.680   4.055  13.325  0.1312 -1.5772  0.3657
 8266TIP3    H246214   1.652   3.982  13.195 -1.7320  1.5463 -1.0586
 8267TIP3   OH246215   4.195   4.090   2.246  0.1246 -0.0963  0.0316
 8267TIP3    H146216   4.192   4.072   2.152 -1.7865 -0.1556  0.0858
 8267TIP3    H246217   4.231   4.010   2.284  3.6193  0.9658 -0.8731
 8268TIP3   OH246218   2.599   2.317  15.165  0.2203 -0.2862 -1.0482
 8268TIP3    H146219   2.544   2.334  15.242 -1.1947 -0.0271 -2.1038
 8268TIP3    H246220   2.654   2.243  15.191  0.5605  0.5274  0.6164
 8269TIP3   OH246221   3.015   0.761  14.775  0.0846  0.1386 -0.2845
 8269TIP3    H146222   2.946   0.819  14.744  1.0372  0.7953 -1.2052
 8269TIP3    H246223   3.097   0.805  14.750  0.8303 -0.9422  0.2065
 8270TIP3   OH246224   0.763   0.073   2.190  0.0851 -0.2747 -0.5116
 8270TIP3    H146225   0.835   0.130   2.160 -1.5127  2.3397  0.4456
 8270TIP3    H246226   0.697   0.079   2.121 -0.8778  0.5663  0.4604
 8271TIP3   OH246227   1.511   5.149  13.806  0.4590  0.4360 -0.4472
 8271TIP3    H146228   1.527   5.212  13.736 -0.6977  1.3974  0.1338
 8271TIP3    H246229   1.427   5.109  13.784  0.1835  0.6022  0.2781
 8272TIP3   OH246230   4.672   4.614   0.498 -0.0200 -0.5202 -0.2455
 8272TIP3    H146231   4.665   4.690   0.441  0.9383  0.8917  1.4523
 8272TIP3    H246232   4.748   4.566   0.466  1.0381  0.7276  0.3458
 8273TIP3   OH246233   1.223   5.346  10.535 -0.1650  0.1119 -0.2760
 8273TIP3    H146234   1.282   5.384  10.470 -0.4497  1.8914  0.4747
 8273TIP3    H246235   1.244   5.392  10.617  0.1495 -2.0442  0.8912
 8274TIP3   OH246236   3.782   4.204   2.010  0.4105  0.0434  0.1620
 8274TIP3    H146237   3.816   4.121   1.979  0.8519 -0.5449  2.1823
 8274TIP3    H246238   3.849   4.238   2.069 -0.7055  0.8289  0.9943
 8275TIP3   OH246239   3.632   5.185  15.089  0.0968  0.5743 -0.6762
 8275TIP3    H146240   3.592   5.183  15.176 -1.6235  0.8793 -1.4578
 8275TIP3    H246241   3.649   5.278  15.073  1.6647  0.4046 -0.1191
 8276TIP3   OH246242   4.104   4.969  13.327 -0.0125 -0.4999  0.0237
 8276TIP3    H146243   4.016   4.948  13.294  0.6948 -1.5523 -1.2747
 8276TIP3    H246244   4.089   5.013  13.410 -1.7423 -1.9238  0.5034
 8277TIP3   OH246245   3.174   2.146  15.196  0.4710  0.2093 -0.0358
 8277TIP3    H146246   3.102   2.121  15.137 -0.6023 -1.8604  2.0553
 8277TIP3    H246247   3.147   2.230  15.233 -0.5410 -0.1983  0.1764
 8278TIP3   OH246248   1.403   4.740  11.340  0.0089 -0.2019 -0.0048
 8278TIP3    H146249   1.498   4.752  11.335  0.0547  0.2374  1.4877
 8278TIP3    H246250   1.391   4.646  11.351  0.2136 -0.3834 -1.3314
 8279TIP3   OH246251   3.209   5.648   0.574 -0.3588  0.1473 -1.1212
 8279TIP3    H146252   3.223   5.730   0.526 -0.1721  0.1141 -1.1218
 8279TIP3    H246253   3.283   5.592   0.549  1.4459  1.2291  1.5847
 8280TIP3   OH246254   5.008   4.965  11.053 -0.2290  0.7801  0.3263
 8280TIP3    H146255   4.960   4.984  10.973  1.0096 -3.1685 -1.4725
 8280TIP3    H246256   4.942   4.926  11.111 -0.8172  2.3613  0.7443
 8281TIP3   OH246257   0.208   5.036   0.078  0.1497  0.3612  0.0244
 8281TIP3    H146258   0.219   5.122   0.037  1.9043 -1.5875 -3.8013
 8281TIP3    H246259   0.132   4.998   0.033 -0.9435  0.0423  2.0610
 8282TIP3   OH246260   1.156   4.000  10.430 -0.5119  0.9311 -0.4666
 8282TIP3    H146261   1.181   4.065  10.495  0.1643  0.7681 -0.5639
 8282TIP3    H246262   1.067   4.025  10.404 -0.3748  1.6216 -0.2685
 8283TIP3   OH246263   0.371   0.251  13.954  0.0380  0.0346 -0.3920
 8283TIP3    H146264   0.324   0.217  13.878  0.2734  0.8763 -0.9159
 8283TIP3    H246265   0.336   0.339  13.968  1.0217  0.4439 -0.4185
 8284TIP3   OH246266   6.951   4.955   1.036  0.5052 -0.3009 -0.0126
 8284TIP3    H146267   6.904   4.906   0.969  0.6972  0.0899 -0.4402
 8284TIP3    H246268   6.951   5.045   1.004  0.8801 -0.1685  0.3536
 8285TIP3   OH246269   3.429   2.245  14.994  0.1648 -0.0335 -0.3019
 8285TIP3    H146270   3.387   2.282  15.072  1.9408  2.6748 -0.5665
 8285TIP3    H246271   3.360   2.195  14.951 -2.0302  1.9905  0.7532
 8286TIP3   OH246272   5.865   3.299  12.895 -0.6573 -0.9440 -0.8488
 8286TIP3    H146273   5.933   3.234  12.909 -1.3914 -1.3110  1.0927
 8286TIP3    H246274   5.911   3.375  12.860  0.7782 -1.1457  0.5625
 8287TIP3   OH246275   6.334   0.490  14.450 -0.1924  0.1470  0.1349
 8287TIP3    H146276   6.305   0.580  14.439 -0.3619  0.0376 -0.3060
 8287TIP3    H246277   6.272   0.438  14.398  0.2833 -0.1656 -0.1230
 8288TIP3   OH246278   6.598   6.157  14.226  0.2308  0.2917 -0.0025
 8288TIP3    H146279   6.676   6.212  14.226  0.0075  0.6069 -0.9292
 8288TIP3    H246280   6.559   6.170  14.313  0.6307  0.9382  0.0804
 8289TIP3   OH246281   2.434   0.362   2.739 -0.1516 -0.5800 -0.2235
 8289TIP3    H146282   2.513   0.400   2.701  0.7271 -2.1445 -0.0226
 8289TIP3    H246283   2.466   0.302   2.806 -1.4027 -2.4940 -1.2649
 8290TIP3   OH246284   4.496   1.616  14.514  0.6031  0.2013  0.3266
 8290TIP3    H146285   4.467   1.616  14.605  0.1822 -2.0415  0.2104
 8290TIP3    H246286   4.446   1.546  14.472  0.8829  1.1181 -1.6171
 8291TIP3   OH246287   3.706   5.713  12.114 -0.1620  0.9728 -0.1157
 8291TIP3    H146288   3.740   5.765  12.041  1.9859 -0.0790  0.0823
 8291TIP3    H246289   3.712   5.772  12.189  0.2826  1.1367 -0.2765
 8292TIP3   OH246290   2.821   6.032   0.837  0.5029 -0.3842 -0.5243
 8292TIP3    H146291   2.765   5.954   0.825  2.8782 -2.4321  1.2032
 8292TIP3    H246292   2.763   6.096   0.878 -1.4330 -1.3363 -1.6925
 8293TIP3   OH246293   5.332   0.451  11.505  0.0810 -0.2316 -0.4249
 8293TIP3    H146294   5.333   0.457  11.601  0.9324 -0.3671 -0.4224
 8293TIP3    H246295   5.412   0.497  11.478  0.5768 -1.4350 -1.0037
 8294TIP3   OH246296   0.907   0.803  10.180 -0.5346 -0.4968 -0.1515
 8294TIP3    H146297   0.884   0.791  10.272 -0.6441 -3.0459 -0.4731
 8294TIP3    H246298   0.828   0.780  10.132  0.0672 -0.9302 -0.9465
 8295TIP3   OH246299   5.621   4.373  13.265  0.3720  0.1449  0.2551
 8295TIP3    H146300   5.628   4.468  13.276 -2.1553  0.4065 -0.1862
 8295TIP3    H246301   5.618   4.359  13.171  1.5495 -0.4814  0.2872
 8296TIP3   OH246302   4.834   4.620   0.188 -0.3891 -0.3415  0.4424
 8296TIP3    H146303   4.869   4.589   0.272 -0.4776  0.6438  0.8507
 8296TIP3    H246304   4.842   4.715   0.193 -3.4796 -0.0406  0.7024
 8297TIP3   OH246305   3.883   1.073  14.533 -0.0656 -0.1559 -0.0566
 8297TIP3    H146306   3.905   1.123  14.612  0.4332  1.9844 -1.4990
 8297TIP3    H246307   3.950   1.006  14.527  0.8594  0.7150  0.4366
 8298TIP3   OH246308   5.405   0.471  12.434  0.2755  0.2180  0.7674
 8298TIP3    H146309   5.490   0.503  12.464 -0.2912  3.2340 -0.5910
 8298TIP3    H246310   5.344   0.540  12.459 -1.3448 -0.6710 -0.6350
 8299TIP3   OH246311   6.242   0.744  15.057 -0.3028 -0.4612  0.6054
 8299TIP3    H146312   6.199   0.659  15.071  0.2749 -0.6597  1.1704
 8299TIP3    H246313   6.291   0.760  15.138 -1.9107  1.2951  1.2857
 8300TIP3   OH246314   2.895   1.786  11.770  0.2615 -0.1240  0.1456
 8300TIP3    H146315   2.811   1.746  11.751  0.2286 -0.6260  1.2994
 8300TIP3    H246316   2.948   1.768  11.692 -0.6912  0.1994 -0.5858
 8301TIP3   OH246317   1.230   4.246   1.452 -0.0314 -0.1959  0.5397
 8301TIP3    H146318   1.226   4.206   1.539  0.7905  1.1457  1.1993
 8301TIP3    H246319   1.235   4.340   1.469  0.1352  0.0725 -0.9655
 8302TIP3   OH246320   3.243   5.217  10.272  0.1329  0.6182 -0.0383
 8302TIP3    H146321   3.309   5.200  10.205 -0.1262  1.3103 -0.4796
 8302TIP3    H246322   3.279   5.290  10.323 -0.6325  1.5243 -0.7731
 8303TIP3   OH246323   5.829   5.932  10.114  0.0534 -0.4229 -0.0277
 8303TIP3    H146324   5.779   5.883  10.049 -1.5180  2.2174 -0.8868
 8303TIP3    H246325   5.848   6.015  10.071  1.9871  0.0416  1.6661
 8304TIP3   OH246326   3.642   7.006  13.639  0.0095 -0.5430 -0.6905
 8304TIP3    H146327   3.590   6.977  13.714 -0.5686 -0.0646 -0.8961
 8304TIP3    H246328   3.640   7.102  13.643  0.6565 -0.5169 -0.8540
 8305TIP3   OH246329   3.918   0.023  12.757 -0.0223 -0.3307 -0.1294
 8305TIP3    H146330   3.884  -0.020  12.679  1.4931  1.2264 -1.6678
 8305TIP3    H246331   3.891  -0.034  12.829 -1.8851 -1.5130 -1.7122
 8306TIP3   OH246332   5.338   2.578  13.708 -0.2584  0.3697 -0.0631
 8306TIP3    H146333   5.339   2.507  13.771 -2.3609  1.3557  1.1155
 8306TIP3    H246334   5.430   2.606  13.702  0.0706 -0.2150  1.9924
 8307TIP3   OH246335   4.886   4.318   2.721 -0.1061  0.5458 -0.7986
 8307TIP3    H146336   4.976   4.301   2.748 -0.4042 -0.5005 -0.4484
 8307TIP3    H246337   4.833   4.265   2.780 -0.8900  0.1544 -1.8353
 8308TIP3   OH246338   2.964   0.525  13.379 -0.0137 -0.2307 -0.0092
 8308TIP3    H146339   2.997   0.600  13.329 -0.3771 -1.8046 -2.7491
 8308TIP3    H246340   2.882   0.557  13.417  0.3907  1.1052 -0.2253
 8309TIP3   OH246341   4.293   5.716   1.156 -0.4882 -0.0314  0.1913
 8309TIP3    H146342   4.221   5.765   1.115 -0.5157 -0.2724 -0.0498
 8309TIP3    H246343   4.275   5.720   1.249 -1.5154 -1.1687  0.0584
 8310TIP3   OH246344   2.733   4.401  13.080  0.0678 -0.2072 -0.4157
 8310TIP3    H146345   2.641   4.417  13.059 -0.5304  0.5500  2.5445
 8310TIP3    H246346   2.774   4.487  13.073  1.1814 -0.9661 -4.3410
 8311TIP3   OH246347   6.514   3.719  13.606  0.5885  0.5450 -0.5059
 8311TIP3    H146348   6.428   3.697  13.643  1.1201 -0.3232  0.2383
 8311TIP3    H246349   6.572   3.723  13.682  1.6603 -1.0656 -1.2151
 8312TIP3   OH246350   4.171   0.185   0.137  0.1881  0.0164 -0.0358
 8312TIP3    H146351   4.097   0.146   0.089  0.0576  0.7834 -0.4559
 8312TIP3    H246352   4.209   0.111   0.185  0.0614 -0.6744 -0.9777
 8313TIP3   OH246353   0.686   6.195  11.925  0.3689 -0.2477  0.2561
 8313TIP3    H146354   0.763   6.140  11.914 -0.7377 -1.9354  0.8636
 8313TIP3    H246355   0.679   6.243  11.842  0.2391 -2.4239 -1.0083
 8314TIP3   OH246356   4.109   1.724  12.459 -0.9578 -0.7104  0.1372
 8314TIP3    H146357   4.122   1.633  12.434  1.3178 -0.0535 -1.2533
 8314TIP3    H246358   4.140   1.729  12.550  0.1912 -1.0586 -0.2273
 8315TIP3   OH246359   2.851   4.198  14.574 -0.3336  0.2141  0.1171
 8315TIP3    H146360   2.886   4.179  14.662 -0.2710 -1.5873 -0.2681
 8315TIP3    H246361   2.829   4.291  14.577  2.5905  0.9398  1.0370
 8316TIP3   OH246362   6.879   0.983   0.430  0.3889 -0.2477  0.0401
 8316TIP3    H146363   6.839   0.921   0.369  0.6179 -0.4084  0.0490
 8316TIP3    H246364   6.815   1.053   0.440 -0.7942 -1.5237  1.6863
 8317TIP3   OH246365   1.300   0.714  15.198  0.0304 -0.0351  0.3778
 8317TIP3    H146366   1.340   0.797  15.225  1.5359 -0.5591 -0.1882
 8317TIP3    H246367   1.331   0.700  15.109  0.6887 -1.7350  0.8533
 8318TIP3   OH246368   3.454   0.929   1.490  0.3549 -0.2767  0.1891
 8318TIP3    H146369   3.461   1.023   1.471 -0.9574  0.3762  2.6394
 8318TIP3    H246370   3.364   0.919   1.523 -0.6499 -3.0101 -3.1945
 8319TIP3   OH246371   4.399   4.151   0.160  0.0409  0.3665 -0.0108
 8319TIP3    H146372   4.427   4.241   0.142 -2.1177  0.8164 -1.2173
 8319TIP3    H246373   4.398   4.145   0.256 -0.8983  1.9636  0.0891
 8320TIP3   OH246374   0.454   2.565  11.423 -0.0219  0.5292 -0.1036
 8320TIP3    H146375   0.473   2.500  11.490  2.1830 -0.4327 -1.6177
 8320TIP3    H246376   0.422   2.514  11.349  1.6526  1.1655 -1.2802
 8321TIP3   OH246377   3.243   0.320  10.430  0.3501 -0.3021  0.4256
 8321TIP3    H146378   3.264   0.341  10.521  0.4215 -0.4291  0.4397
 8321TIP3    H246379   3.283   0.390  10.379  0.3457 -0.2532  0.4888
 8322TIP3   OH246380   3.207   3.274  12.948 -0.0354 -0.1082 -0.1304
 8322TIP3    H146381   3.233   3.182  12.948  1.0579  0.1866  1.3261
 8322TIP3    H246382   3.209   3.299  12.855 -1.7856 -1.9121 -0.6929
 8323TIP3   OH246383   6.995   0.136   0.735  0.3042  0.3907 -0.6767
 8323TIP3    H146384   7.041   0.082   0.670  0.3139  0.5891 -0.8372
 8323TIP3    H246385   6.903   0.130   0.709  0.3817  0.9993 -1.1049
 8324TIP3   OH246386   4.979   3.996  13.106  0.0514  0.1733  0.2545
 8324TIP3    H146387   5.042   4.006  13.177  0.6638  0.0180 -0.2629
 8324TIP3    H246388   4.985   4.078  13.057 -1.1515  0.7157  1.0037
 8325TIP3   OH246389   0.849   1.420   2.695  0.0774 -0.8072  0.3645
 8325TIP3    H146390   0.819   1.374   2.617 -0.6264  1.4998 -0.7576
 8325TIP3    H246391   0.783   1.399   2.762 -0.2874 -1.3172 -0.1523
 8326TIP3   OH246392   1.612   5.649  14.282  0.2355  0.0331 -0.2915
 8326TIP3    H146393   1.600   5.725  14.339 -1.6443  0.8563 -1.7284
 8326TIP3    H246394   1.672   5.680  14.214 -1.7829  0.7632 -1.7752
 8327TIP3   OH246395   4.940   4.863  13.715  0.4989  0.2581 -0.0267
 8327TIP3    H146396   4.986   4.926  13.659 -0.8636  0.0513 -1.4254
 8327TIP3    H246397   4.998   4.787  13.717  0.5562  0.2562 -1.2124
 8328TIP3   OH246398   2.574   5.864  13.204 -0.1263 -0.2959 -0.3891
 8328TIP3    H146399   2.588   5.830  13.292  0.0604 -0.5680 -0.5245
 8328TIP3    H246400   2.484   5.898  13.205  0.0322  0.0994  0.0344
 8329TIP3   OH246401   2.144   4.388  11.581  0.3702  0.3923  0.1343
 8329TIP3    H146402   2.209   4.445  11.539 -0.8524  1.6075 -0.1352
 8329TIP3    H246403   2.189   4.305  11.592  1.9372  1.1853 -0.1683
 8330TIP3   OH246404   1.605   5.095  14.796  0.0983  0.2998 -0.2082
 8330TIP3    H146405   1.582   5.185  14.820 -1.1225  0.5037 -2.0666
 8330TIP3    H246406   1.559   5.079  14.714  1.7225 -1.4312 -0.8226
 8331TIP3   OH246407   7.006   2.857   0.171 -0.3446 -0.4459 -0.5449
 8331TIP3    H146408   6.990   2.874   0.078  0.1425 -1.4782 -0.8222
 8331TIP3    H246409   7.097   2.882   0.185 -0.5939  0.2917 -0.1967
 8332TIP3   OH246410   0.020   0.570  13.810  0.3930 -0.1553  0.4934
 8332TIP3    H146411  -0.043   0.641  13.818 -0.2298 -0.5858 -0.5692
 8332TIP3    H246412   0.071   0.591  13.732 -0.8747 -1.7098 -0.7809
 8333TIP3   OH246413   0.168   3.146  14.492 -0.3759 -0.0195  0.6853
 8333TIP3    H146414   0.126   3.171  14.575 -1.9352 -0.1591 -0.0325
 8333TIP3    H246415   0.189   3.229  14.449  0.6041  0.0533  1.2958
 8334TIP3   OH246416   3.014   2.481  14.097 -0.3868  0.0736 -0.0111
 8334TIP3    H146417   3.017   2.394  14.057  3.3025  0.0194  0.2074
 8334TIP3    H246418   2.996   2.541  14.025 -2.8275 -0.8208 -0.1784
 8335TIP3   OH246419   2.528   7.080  12.203  0.3748 -0.2921 -0.0016
 8335TIP3    H146420   2.490   7.030  12.132 -0.8489  0.2813  0.2410
 8335TIP3    H246421   2.539   7.016  12.274 -0.2299 -0.4466 -0.0421
 8336TIP3   OH246422   5.263   4.403  15.223 -0.3180 -0.0419  0.2628
 8336TIP3    H146423   5.263   4.420  15.129 -1.0667 -3.7542 -0.4716
 8336TIP3    H246424   5.345   4.355  15.238 -0.0246  0.8543  1.5889
 8337TIP3   OH246425   1.978   4.361  10.848  0.0087  0.0797 -0.3461
 8337TIP3    H146426   2.016   4.331  10.930  1.5206 -0.6614 -1.3142
 8337TIP3    H246427   1.886   4.333  10.852 -0.1134  0.7103  1.3985
 8338TIP3   OH246428   0.337   0.233  12.627  0.1483 -0.0493  0.3745
 8338TIP3    H146429   0.342   0.296  12.554 -1.9997  1.0689  1.1208
 8338TIP3    H246430   0.272   0.169  12.598 -1.3100  0.8372  1.5607
 8339TIP3   OH246431   4.812   5.824  14.576  0.1616 -0.0706  0.1321
 8339TIP3    H146432   4.800   5.740  14.532  0.3567  0.1035 -0.2607
 8339TIP3    H246433   4.901   5.851  14.553 -0.0787  0.4858 -0.1779
 8340TIP3   OH246434   3.188   4.426   0.135 -0.6263  0.4484 -0.1376
 8340TIP3    H146435   3.126   4.497   0.121  0.4921  1.6620  0.9344
 8340TIP3    H246436   3.151   4.375   0.207 -2.1560 -0.9352 -1.8461
 8341TIP3   OH246437   4.260   3.449  13.322 -0.9613  0.3033  0.2065
 8341TIP3    H146438   4.343   3.484  13.356 -0.7768 -0.7950  0.9112
 8341TIP3    H246439   4.243   3.372  13.375 -1.3585 -0.6936 -1.3499
 8342TIP3   OH246440   2.812   5.974  12.362  0.4511 -0.6300 -0.0658
 8342TIP3    H146441   2.864   5.898  12.387 -0.3287 -0.6638  1.5014
 8342TIP3    H246442   2.747   5.940  12.301  1.2294 -0.8830 -0.7591
 8343TIP3   OH246443   3.477   3.609  13.010  0.2622 -0.5294  0.3233
 8343TIP3    H146444   3.409   3.597  12.943 -1.0935  2.8663  1.0312
 8343TIP3    H246445   3.441   3.568  13.088  0.1750 -1.0657  0.0081
 8344TIP3   OH246446   0.228   3.646  12.632 -0.2799  0.3474 -0.0106
 8344TIP3    H146447   0.290   3.693  12.577  1.5875 -0.7462  1.1209
 8344TIP3    H246448   0.206   3.708  12.702  2.2509 -0.4115  1.5335
 8345TIP3   OH246449   5.656   2.584  14.926 -0.1526 -0.0538  0.5093
 8345TIP3    H146450   5.720   2.518  14.953 -0.9985 -0.4686  1.5267
 8345TIP3    H246451   5.630   2.627  15.007 -1.3185 -0.0292  0.1342
 8346TIP3   OH246452   6.658   3.850  12.362  0.5047 -0.1074  0.7042
 8346TIP3    H146453   6.702   3.804  12.290  2.1788  0.2965  1.4234
 8346TIP3    H246454   6.578   3.884  12.324  0.5414 -1.3452 -0.5354
 8347TIP3   OH246455   3.244   3.282  12.329 -0.0488  0.1642 -0.8612
 8347TIP3    H146456   3.288   3.306  12.248  1.4655 -0.3000 -0.2052
 8347TIP3    H246457   3.197   3.202  12.308  0.4739 -0.0482 -1.2433
 8348TIP3   OH246458   0.902   4.918  13.932  0.0531  0.1440  0.5637
 8348TIP3    H146459   0.872   4.974  13.860  1.3906  0.9190  0.5813
 8348TIP3    H246460   0.832   4.854  13.945 -0.6376  0.6330 -0.7506
 8349TIP3   OH246461   3.622   4.520  14.184 -0.7182 -0.0372 -0.5484
 8349TIP3    H146462   3.691   4.587  14.177 -0.1291 -0.3847  1.4660
 8349TIP3    H246463   3.556   4.561  14.240 -1.9626  0.1217 -2.1042
 8350TIP3   OH246464   4.757   1.985   0.049 -0.1158 -0.3423 -0.0681
 8350TIP3    H146465   4.753   1.891   0.033  0.5684 -0.2908 -0.5726
 8350TIP3    H246466   4.726   1.996   0.139  0.5926 -1.1338  0.2731
 8351TIP3   OH246467   1.662   2.820   1.539  0.2661 -0.4038  0.1737
 8351TIP3    H146468   1.613   2.739   1.555  0.6354 -0.8933 -1.1009
 8351TIP3    H246469   1.614   2.887   1.587 -1.6399 -0.8767 -1.0229
 8352TIP3   OH246470   1.011   3.453  12.694 -0.8821  0.4865  0.3994
 8352TIP3    H146471   1.060   3.444  12.612 -0.9657 -0.3152  0.4343
 8352TIP3    H246472   1.020   3.368  12.737 -3.1954 -0.0301 -0.0774
 8353TIP3   OH246473   5.083   2.063  11.582 -0.8806  0.3249  0.0367
 8353TIP3    H146474   5.085   1.967  11.580 -0.5861  0.3382 -1.0967
 8353TIP3    H246475   4.995   2.086  11.552 -0.3299  0.4212 -1.5610
 8354TIP3   OH246476   5.571   0.157  13.309  0.3544 -0.5894  0.4803
 8354TIP3    H146477   5.503   0.224  13.306  1.0289  0.0671 -0.4963
 8354TIP3    H246478   5.524   0.074  13.298 -0.4029 -0.2148  0.9195
 8355TIP3   OH246479   1.849   0.787  11.327 -0.2492 -0.0021  0.0307
 8355TIP3    H146480   1.899   0.725  11.380 -1.5229 -0.6812  0.4539
 8355TIP3    H246481   1.782   0.733  11.284 -1.8765  1.1899  1.0179
 8356TIP3   OH246482   0.489   6.495  15.420 -0.3579  0.1977 -0.5361
 8356TIP3    H146483   0.452   6.506  15.333 -0.0935  0.2908 -0.6370
 8356TIP3    H246484   0.524   6.582  15.442  0.0356  0.0437 -0.5521
 8357TIP3   OH246485   0.289   6.696  11.426  0.2891 -0.0407  0.5631
 8357TIP3    H146486   0.243   6.774  11.458 -1.0609 -0.3973 -0.5035
 8357TIP3    H246487   0.234   6.623  11.453  0.2384 -0.4760 -0.7011
 8358TIP3   OH246488   3.579   0.778  14.765 -0.0205  0.2151 -0.0235
 8358TIP3    H146489   3.552   0.856  14.814  1.6534  1.8334 -1.6084
 8358TIP3    H246490   3.603   0.812  14.679 -1.5127 -2.3769 -1.5178
 8359TIP3   OH246491   6.125   1.799  12.197  0.5579 -0.0504 -1.1072
 8359TIP3    H146492   6.112   1.754  12.114  0.2389  0.2575 -1.2265
 8359TIP3    H246493   6.036   1.815  12.230  0.6724  0.1875 -0.9066
 8360TIP3   OH246494   3.561   6.771   1.253  0.2146  0.5012 -0.6095
 8360TIP3    H146495   3.545   6.779   1.159 -0.4449  0.3440 -0.5182
 8360TIP3    H246496   3.487   6.817   1.293 -0.8695 -1.5808 -0.1329
 8361TIP3   OH246497   1.906   1.279  12.694  0.0121  0.1849  0.7171
 8361TIP3    H146498   1.829   1.318  12.652 -0.8356 -0.3648  1.7370
 8361TIP3    H246499   1.884   1.187  12.704  0.0864  0.3371  2.5639
 8362TIP3   OH246500   3.849   2.683   0.091 -0.0320 -0.2969  0.7476
 8362TIP3    H146501   3.782   2.751   0.081  0.5882  0.0338 -1.3532
 8362TIP3    H246502   3.923   2.729   0.131  0.4454  0.3132 -0.8210
 8363TIP3   OH246503   0.406   1.849   0.639 -0.0632  0.0077  0.2410
 8363TIP3    H146504   0.488   1.879   0.679  0.3032 -1.5152  0.6557
 8363TIP3    H246505   0.426   1.841   0.546  0.3772 -0.7265  0.3956
 8364TIP3   OH246506   0.864   4.581  11.705 -0.1501  0.8008  0.8340
 8364TIP3    H146507   0.888   4.674  11.703 -2.2761  1.3808  1.0527
 8364TIP3    H246508   0.788   4.575  11.648  0.0391 -0.8507  0.7315
 8365TIP3   OH246509   3.317   0.636  12.840  0.7668  0.1132  0.9778
 8365TIP3    H146510   3.294   0.654  12.931  0.3078  0.1398  0.8542
 8365TIP3    H246511   3.280   0.710  12.791 -0.4659 -0.7838  0.5592
 8366TIP3   OH246512   5.104   6.769   9.946  0.0568 -0.3957  0.2047
 8366TIP3    H146513   5.132   6.848   9.899 -0.7714 -0.6144 -0.6703
 8366TIP3    H246514   5.184   6.718   9.958  0.2693 -0.3513 -1.0034
 8367TIP3   OH246515   2.352   6.698  13.805 -0.4929 -0.0625  0.0837
 8367TIP3    H146516   2.275   6.754  13.802 -2.5530 -2.6840  1.6315
 8367TIP3    H246517   2.393   6.708  13.719 -1.3575  2.9461 -0.0416
 8368TIP3   OH246518   2.197   5.410  13.402 -0.5351  0.1448 -0.0443
 8368TIP3    H146519   2.222   5.495  13.366  1.1935  0.2700  1.3756
 8368TIP3    H246520   2.241   5.346  13.346 -2.9113  0.0829 -1.9422
 8369TIP3   OH246521   5.253   0.500   0.227 -0.0203 -0.0157  0.1117
 8369TIP3    H146522   5.231   0.526   0.138 -1.8900 -2.0590 -0.0489
 8369TIP3    H246523   5.185   0.540   0.282  0.2390 -0.0434  0.4559
 8370TIP3   OH246524   0.725   4.700  14.544 -0.6646  0.0721 -0.8573
 8370TIP3    H146525   0.742   4.787  14.508  0.2831 -0.4862 -1.7910
 8370TIP3    H246526   0.788   4.643  14.500 -1.0006 -1.0218  0.0438
 8371TIP3   OH246527   0.448   4.054  14.459  0.2076  0.5042  0.7485
 8371TIP3    H146528   0.411   3.985  14.514  3.4606 -1.4692  0.5831
 8371TIP3    H246529   0.428   4.027  14.369  0.8311  0.1418  0.7147
 8372TIP3   OH246530   5.010   2.914   0.269  0.3933 -0.3311  0.3492
 8372TIP3    H146531   5.089   2.901   0.215 -0.6382 -0.0555 -1.2643
 8372TIP3    H246532   4.961   2.982   0.224 -1.3272 -1.3086  0.6944
 8373TIP3   OH246533   0.429   6.043  14.289  0.4311  0.1229 -0.8242
 8373TIP3    H146534   0.383   6.124  14.267  0.0513  0.0163 -0.4358
 8373TIP3    H246535   0.454   6.005  14.205 -1.2328 -0.4149 -1.1091
 8374TIP3   OH246536   2.438   4.576  13.333  0.5203  0.3895  0.4528
 8374TIP3    H146537   2.379   4.635  13.286  2.0412  1.1728 -0.4984
 8374TIP3    H246538   2.449   4.616  13.419  0.4193  0.7280  0.3063
 8375TIP3   OH246539   3.469   6.892  14.272 -0.0429 -0.3352 -0.4243
 8375TIP3    H146540   3.469   6.874  14.366  3.3662  1.5351 -0.0001
 8375TIP3    H246541   3.475   6.988  14.266 -1.3526 -0.3629 -2.5728
 8376TIP3   OH246542   4.491   2.187  12.464 -0.0235 -0.5644  0.0697
 8376TIP3    H146543   4.410   2.160  12.421 -1.2326  0.1746  1.8063
 8376TIP3    H246544   4.498   2.129  12.540  0.8462 -0.3330  0.1773
 8377TIP3   OH246545   5.845   6.598  13.878 -0.3335  0.5402 -0.3032
 8377TIP3    H146546   5.749   6.596  13.886 -0.4036  0.7566 -1.0319
 8377TIP3    H246547   5.862   6.673  13.821  0.2342  0.0768 -0.7426
 8378TIP3   OH246548   5.058   4.408  14.244 -0.9386 -0.1017 -0.0622
 8378TIP3    H146549   5.037   4.432  14.154 -1.9963 -0.6426  0.0216
 8378TIP3    H246550   5.136   4.459  14.266 -0.8926  0.3068 -1.1575
 8379TIP3   OH246551   1.378   4.037  11.507 -0.3388 -0.0315 -0.3620
 8379TIP3    H146552   1.365   4.130  11.524 -0.0094  0.2923 -1.7765
 8379TIP3    H246553   1.299   3.995  11.541  0.1246  0.6009  1.5355
 8380TIP3   OH246554   4.518   0.603  13.601 -0.0089 -0.0648  0.2419
 8380TIP3    H146555   4.592   0.628  13.657 -1.1641 -1.8196  2.6661
 8380TIP3    H246556   4.445   0.657  13.634 -0.8284 -1.5032  0.8350
 8381TIP3   OH246557   1.104   1.996  12.294 -0.2192 -0.1291 -0.3371
 8381TIP3    H146558   1.082   1.903  12.285 -0.4015  0.1399 -2.9337
 8381TIP3    H246559   1.183   1.996  12.349 -1.0847 -1.6988  0.9735
 8382TIP3   OH246560   5.070   5.059  12.492  0.0117 -0.2409 -0.1759
 8382TIP3    H146561   5.083   5.148  12.460  2.1725 -0.5706 -0.2629
 8382TIP3    H246562   4.988   5.031  12.451 -1.3126  2.1097  0.7891
 8383TIP3   OH246563   2.676   6.980   0.756  0.1587  0.2608 -0.1292
 8383TIP3    H146564   2.601   7.003   0.701 -0.9006 -0.6879  0.8673
 8383TIP3    H246565   2.735   7.054   0.749 -1.2360  1.3670 -0.3381
 8384TIP3   OH246566   1.688   4.662  10.575 -0.1380  0.5002 -0.1112
 8384TIP3    H146567   1.758   4.715  10.612  0.4753  0.3667 -1.0715
 8384TIP3    H246568   1.616   4.670  10.638  0.9508  0.1284  1.1876
 8385TIP3   OH246569   6.306   3.961  14.005  0.2734 -0.1129 -0.0211
 8385TIP3    H146570   6.284   4.026  14.072 -0.9040 -1.3989  0.8538
 8385TIP3    H246571   6.290   3.877  14.047 -0.0027 -0.9433 -1.7616
 8386TIP3   OH246572   2.717   4.774  15.256  0.3823  0.1378 -0.3663
 8386TIP3    H146573   2.741   4.755  15.347  0.5501  0.9770 -0.2362
 8386TIP3    H246574   2.676   4.693  15.226  3.1072 -1.2541 -0.5168
 8387TIP3   OH246575   3.748   6.741  13.842 -0.0067  0.2809  0.1011
 8387TIP3    H146576   3.683   6.788  13.894 -0.7407 -0.0506 -0.5104
 8387TIP3    H246577   3.809   6.810  13.813 -2.1373  1.2307 -2.3867
 8388TIP3   OH246578   4.025   0.661  12.771  0.5888  0.3419 -0.0076
 8388TIP3    H146579   3.968   0.686  12.697 -0.5823 -1.4018  0.2646
 8388TIP3    H246580   4.045   0.569  12.755  1.4186  0.3137  1.1641
 8389TIP3   OH246581   3.369   4.053   1.152 -0.1015  0.1300 -0.4445
 8389TIP3    H146582   3.340   4.051   1.061 -0.6828  4.0514 -0.4180
 8389TIP3    H246583   3.356   4.144   1.180  2.2461 -0.4362  2.8369
 8390TIP3   OH246584   5.172   0.020  13.570  0.2716  0.1734  0.0109
 8390TIP3    H146585   5.222   0.011  13.489 -0.1203 -1.0435 -0.1074
 8390TIP3    H246586   5.091   0.064  13.543 -0.6801 -1.8924 -0.6204
 8391TIP3   OH246587   0.793   2.050   0.622  0.2115 -0.5968 -0.0079
 8391TIP3    H146588   0.869   2.086   0.576  0.7426  0.2577  1.5172
 8391TIP3    H246589   0.736   2.125   0.636 -0.2174 -0.9642  0.2121
 8392TIP3   OH246590   0.630   1.550   1.086 -0.0647 -0.5584 -0.7956
 8392TIP3    H146591   0.638   1.613   1.158 -1.3462 -0.5992 -0.6021
 8392TIP3    H246592   0.626   1.464   1.129  2.4888 -0.8798 -1.0943
 8393TIP3   OH246593   1.957   0.577  10.718  0.2545  0.5344  0.1853
 8393TIP3    H146594   2.040   0.590  10.764 -1.4145  2.0045  2.9441
 8393TIP3    H246595   1.948   0.654  10.663  1.0740  0.0011 -0.7007
 8394TIP3   OH246596   5.366   2.209  10.021 -0.0381  0.1404 -0.1513
 8394TIP3    H146597   5.421   2.181   9.948  0.1651 -0.0609  0.0759
 8394TIP3    H246598   5.312   2.133  10.041  1.2839 -0.4616  1.1803
 8395TIP3   OH246599   5.839   5.428  12.586  0.3674 -0.0707 -0.0446
 8395TIP3    H146600   5.858   5.354  12.643 -1.2270 -1.5659 -1.3970
 8395TIP3    H246601   5.751   5.456  12.612  0.3045  0.2852 -0.6445
 8396TIP3   OH246602   2.534   5.540  14.513 -0.0753 -0.3654 -0.1690
 8396TIP3    H146603   2.581   5.591  14.578 -0.3119 -0.6885  0.2569
 8396TIP3    H246604   2.503   5.463  14.561 -1.6809  0.2084 -0.2661
 8397TIP3   OH246605   1.652   5.518  13.558 -0.1235 -0.4205  0.8451
 8397TIP3    H146606   1.742   5.526  13.525 -0.0468 -1.7949  0.7002
 8397TIP3    H246607   1.619   5.608  13.561 -0.1900 -0.2336 -3.1874
 8398TIP3   OH246608   5.967   4.782  14.319  1.0233 -0.1988  0.0046
 8398TIP3    H146609   5.883   4.827  14.310  0.4515 -0.7628  2.2521
 8398TIP3    H246610   6.014   4.830  14.387  1.9789 -0.7010 -0.2753
 8399TIP3   OH246611   1.860   2.270  11.923  0.2186  0.8024  0.9935
 8399TIP3    H146612   1.798   2.202  11.950  1.6433 -0.0353  2.2635
 8399TIP3    H246613   1.830   2.349  11.968  1.0884 -0.0143  3.1104
 8400TIP3   OH246614   4.880   2.253   0.833  0.5074 -0.4825 -0.2909
 8400TIP3    H146615   4.963   2.294   0.811  0.7804 -0.0131  1.5046
 8400TIP3    H246616   4.897   2.159   0.829  1.0712 -0.3865 -0.1563
 8401TIP3   OH246617   2.459   5.006   0.231  0.1733  0.1607 -0.3837
 8401TIP3    H146618   2.484   5.005   0.323  0.3511  3.6343 -0.3135
 8401TIP3    H246619   2.433   4.916   0.212  0.4128 -0.6881  2.9623
 8402TIP3   OH246620   0.978   0.792  14.898 -0.0387  0.2164 -0.4235
 8402TIP3    H146621   1.045   0.784  14.830 -0.8843  0.7550 -1.3416
 8402TIP3    H246622   1.003   0.870  14.948  1.3744 -0.9927  0.7896
 8403TIP3   OH246623   3.900   4.443   1.474  0.5584  0.5096 -0.1192
 8403TIP3    H146624   3.852   4.366   1.444 -2.4292  1.7850  1.2593
 8403TIP3    H246625   3.978   4.407   1.516 -1.3986 -1.8452  1.6109
 8404TIP3   OH246626   1.981   3.554  10.831  1.0725  0.5481 -0.3175
 8404TIP3    H146627   1.922   3.496  10.879 -2.4233  0.1819 -4.7508
 8404TIP3    H246628   1.960   3.642  10.863 -0.2312  0.1976 -0.1964
 8405TIP3   OH246629   3.742   5.196   1.887 -0.0532  0.3800 -0.4513
 8405TIP3    H146630   3.745   5.161   1.976  0.8950  0.5601 -0.4112
 8405TIP3    H246631   3.670   5.259   1.889 -0.0365  0.3840  0.1882
 8406TIP3   OH246632   1.373   1.108   0.109 -0.2519 -0.7878 -0.2865
 8406TIP3    H146633   1.401   1.174   0.047 -2.5441  1.6207  1.1652
 8406TIP3    H246634   1.299   1.065   0.068 -1.5575  0.5811  0.5824
 8407TIP3   OH246635   4.640   3.419   1.955 -0.2114  0.0503  0.4886
 8407TIP3    H146636   4.731   3.418   1.925 -0.5135 -0.1590 -0.4322
 8407TIP3    H246637   4.642   3.372   2.039  0.5721  0.2822  0.6046
 8408TIP3   OH246638   5.850   6.875   0.025 -0.1199 -0.0937  0.4654
 8408TIP3    H146639   5.878   6.794  -0.018  0.9837  0.8337 -0.5985
 8408TIP3    H246640   5.756   6.864   0.037  0.0909 -1.7337  0.7553
 8409TIP3   OH246641   0.608   1.337   2.857 -0.0972  0.5080  0.5425
 8409TIP3    H146642   0.610   1.368   2.948  0.3037 -0.7195  0.9641
 8409TIP3    H246643   0.576   1.412   2.807  1.8135  1.9453  1.3886
 8410TIP3   OH246644   4.227   4.935   1.230 -0.1511  0.6747 -0.1059
 8410TIP3    H146645   4.259   4.936   1.320  0.3289 -0.8695 -0.2456
 8410TIP3    H246646   4.198   5.025   1.214  2.0606  1.5904  0.7723
 8411TIP3   OH246647   0.528   4.457  10.971 -0.1112 -0.1482  0.0469
 8411TIP3    H146648   0.591   4.483  11.038 -0.1943 -0.8964  0.4188
 8411TIP3    H246649   0.544   4.518  10.899  1.3061 -0.5661 -0.0232
 8412TIP3   OH246650   0.752   6.260   2.061  0.2621 -0.1629 -0.1960
 8412TIP3    H146651   0.831   6.265   2.007  2.8946 -3.3070  3.1454
 8412TIP3    H246652   0.737   6.166   2.074 -3.2058  0.4104  0.4421
 8413TIP3   OH246653   3.058   0.344   0.575  0.4781 -0.2711  1.0837
 8413TIP3    H146654   3.111   0.353   0.495  0.2147  0.3482  0.9799
 8413TIP3    H246655   3.034   0.433   0.598 -2.2911 -0.6637 -0.0609
 8414TIP3   OH246656   4.377   0.618   2.492  0.0169 -0.1960 -0.4165
 8414TIP3    H146657   4.343   0.704   2.517  0.0664  0.0777 -1.2756
 8414TIP3    H246658   4.437   0.594   2.563 -0.5169  0.1682  0.1618
 8415TIP3   OH246659   3.815   3.675   3.009 -0.8429  0.3926 -0.0691
 8415TIP3    H146660   3.869   3.646   2.935 -1.6686  0.8932 -0.8901
 8415TIP3    H246661   3.826   3.770   3.010  0.0104  0.2813  1.1306
 8416TIP3   OH246662   5.522   0.551  12.155 -0.1469 -0.8914 -0.5878
 8416TIP3    H146663   5.454   0.604  12.112 -1.4209 -0.8167  1.4757
 8416TIP3    H246664   5.492   0.542  12.245  1.6291 -2.5223 -0.1362
 8417TIP3   OH246665   4.917   6.677  15.398  0.6861 -0.4192  0.3601
 8417TIP3    H146666   4.870   6.594  15.391 -0.2222  0.1878 -0.8484
 8417TIP3    H246667   4.996   6.665  15.345  0.3129 -0.3486 -0.2140
 8418TIP3   OH246668   0.556   6.614  12.364 -0.0882  0.2682 -0.0543
 8418TIP3    H146669   0.527   6.525  12.346 -0.1576  0.7268 -2.4053
 8418TIP3    H246670   0.485   6.669  12.333  0.3308  1.1835  0.5742
 8419TIP3   OH246671   5.498   0.297   2.942  0.2111  0.0233  0.4185
 8419TIP3    H146672   5.508   0.207   2.911  0.3825 -0.4752  1.8718
 8419TIP3    H246673   5.419   0.295   2.995 -0.3129  0.9582 -0.3241
 8420TIP3   OH246674   1.310   6.888   1.099  0.3335  0.0392 -0.0286
 8420TIP3    H146675   1.236   6.834   1.072 -0.9524  1.6043  0.2574
 8420TIP3    H246676   1.315   6.878   1.194  0.2166  0.2593  0.0020
 8421TIP3   OH246677   4.603   5.487  13.497  0.6936 -0.1304 -0.8174
 8421TIP3    H146678   4.601   5.395  13.525  0.1924  0.1441  0.0768
 8421TIP3    H246679   4.693   5.501  13.469  1.2254 -0.4287  0.6797
 8422TIP3   OH246680   2.186   2.976  10.537  0.2336 -0.2163  0.3956
 8422TIP3    H146681   2.115   2.956  10.598  0.1936 -0.6374  0.2146
 8422TIP3    H246682   2.229   3.053  10.574 -0.2825  0.0081  0.5354
 8423TIP3   OH246683   0.997   5.866   4.146 -0.7242 -0.6547  0.3907
 8423TIP3    H146684   0.978   5.940   4.088  0.3703 -0.3214  0.4458
 8423TIP3    H246685   1.004   5.791   4.088 -1.1540 -0.6003  0.2613
 8424TIP3   OH246686   6.474   5.499  12.160  0.2176 -0.1395 -0.2063
 8424TIP3    H146687   6.433   5.428  12.111 -0.2756 -0.1051  0.1560
 8424TIP3    H246688   6.448   5.579  12.114 -2.3179  0.0994  1.5184
 8425TIP3   OH246689   2.777   5.176  13.460 -0.0245 -0.0621 -0.4016
 8425TIP3    H146690   2.842   5.149  13.524  0.8111  2.7694  0.0112
 8425TIP3    H246691   2.828   5.195  13.381 -0.3096  2.0630 -0.1056
 8426TIP3   OH246692   4.389   0.047   0.304  0.3377 -0.0442 -0.2918
 8426TIP3    H146693   4.334  -0.024   0.337  0.0550 -0.5700 -1.8367
 8426TIP3    H246694   4.459   0.003   0.256  1.0290  0.6808  0.0427
 8427TIP3   OH246695   4.556   2.252  10.223  0.2338  0.8843 -0.4787
 8427TIP3    H146696   4.635   2.251  10.169  1.7380 -0.9193  1.6549
 8427TIP3    H246697   4.507   2.174  10.197 -0.0085  1.0783 -0.6107
 8428TIP3   OH246698   1.754   6.048  13.186  0.5830 -0.4543  0.3225
 8428TIP3    H146699   1.738   6.032  13.094  1.4805 -0.3454  0.1407
 8428TIP3    H246700   1.733   6.141  13.198 -0.5898 -0.7342  0.4707
 8429TIP3   OH246701   4.681   2.548  13.488 -0.0442  0.1832  0.0330
 8429TIP3    H146702   4.704   2.458  13.511 -1.7166 -0.4380 -0.6239
 8429TIP3    H246703   4.755   2.581  13.439  0.6881 -0.7522  0.5007
 8430TIP3   OH246704   3.782   4.611  14.663  0.8387 -0.3738 -0.3797
 8430TIP3    H146705   3.799   4.535  14.718 -0.5590 -0.5127 -0.1274
 8430TIP3    H246706   3.787   4.686  14.722  1.2289 -0.3480 -0.4408
 8431TIP3   OH246707   4.974   5.921   0.141  0.2977 -0.3148 -0.8222
 8431TIP3    H146708   4.971   5.829   0.168 -0.1758 -0.4252 -1.2379
 8431TIP3    H246709   4.882   5.946   0.132  0.4086  0.4122 -0.0093
 8432TIP3   OH246710   5.948   3.293  10.639  0.7394  0.4514 -0.5251
 8432TIP3    H146711   5.900   3.330  10.565  1.0197  0.6817 -0.5900
 8432TIP3    H246712   6.011   3.233  10.599  1.6952  1.4625 -0.5498
 8433TIP3   OH246713   3.105   3.861   0.369  0.0106  0.6535  0.6828
 8433TIP3    H146714   3.097   3.770   0.342  1.8817  1.2602 -2.1272
 8433TIP3    H246715   3.061   3.865   0.454 -2.4238 -2.2564 -0.3595
 8434TIP3   OH246716   4.492   3.418  12.602  0.3488 -0.2085  0.0345
 8434TIP3    H146717   4.508   3.416  12.696  0.9075  0.0481 -0.0522
 8434TIP3    H246718   4.400   3.393  12.593  0.4132 -0.6684  0.6140
 8435TIP3   OH246719   4.047   3.124  13.601  0.3824 -0.4093 -0.7186
 8435TIP3    H146720   4.030   3.130  13.695  0.4866  0.5460 -0.7636
 8435TIP3    H246721   4.139   3.148  13.591  0.0325  0.7627 -1.2031
 8436TIP3   OH246722   1.405   1.762  14.997 -0.4572  0.2240 -0.5506
 8436TIP3    H146723   1.322   1.724  15.025 -0.8527  0.8700 -0.8460
 8436TIP3    H246724   1.418   1.837  15.054  1.9332 -2.1920  2.2389
 8437TIP3   OH246725   6.441   2.581  14.899  0.7015  0.0416 -0.2234
 8437TIP3    H146726   6.525   2.577  14.945  0.8232 -0.5839 -0.4891
 8437TIP3    H246727   6.460   2.547  14.812  0.4593  1.1751 -0.7251
 8438TIP3   OH246728   4.298   1.708  13.116  0.3634  0.2600  0.5979
 8438TIP3    H146729   4.266   1.712  13.206 -0.5606  1.5774  0.2307
 8438TIP3    H246730   4.247   1.638  13.075  0.1884  0.2272  0.8714
 8439TIP3   OH246731   2.429   3.502  15.033 -0.8202  0.1848 -0.0722
 8439TIP3    H146732   2.459   3.429  15.087  0.1440  0.5906 -0.0397
 8439TIP3    H246733   2.360   3.465  14.979 -0.2451 -0.7869 -0.1568
 8440TIP3   OH246734   0.223   5.834  14.396 -0.0465 -0.0359  0.5060
 8440TIP3    H146735   0.264   5.762  14.443  0.3493  0.5412  1.0537
 8440TIP3    H246736   0.296   5.882  14.357 -0.1992  0.8725  1.3083
 8441TIP3   OH246737   2.016   4.227  13.769 -0.2977 -0.0105  0.0593
 8441TIP3    H146738   1.960   4.297  13.801  0.5696  0.3570  0.7970
 8441TIP3    H246739   2.005   4.156  13.833 -0.3551 -0.1512 -0.1050
 8442TIP3   OH246740   4.238   2.951  14.623  0.3927  0.0968  0.4443
 8442TIP3    H146741   4.263   2.860  14.612  0.4889  0.1238  0.4448
 8442TIP3    H246742   4.315   2.994  14.660  1.2110  0.7211 -1.9402
 8443TIP3   OH246743   3.928   1.865   1.911 -0.1356  0.3304  0.3165
 8443TIP3    H146744   4.010   1.880   1.958 -0.3813 -2.7474  1.9200
 8443TIP3    H246745   3.860   1.904   1.967 -0.0664 -0.2526  0.8268
 8444TIP3   OH246746   4.085   2.275  11.955  0.2687 -0.2785  0.1440
 8444TIP3    H146747   4.010   2.227  11.919  0.0655 -0.0570  0.2651
 8444TIP3    H246748   4.157   2.254  11.896  0.1360 -0.5754  0.0838
 8445TIP3   OH246749   1.742   7.106  13.970  0.3718  0.4615 -0.0497
 8445TIP3    H146750   1.731   7.158  13.891  0.4845  1.4338  0.5620
 8445TIP3    H246751   1.837   7.097  13.980  0.3211 -1.2272 -1.0258
 8446TIP3   OH246752   4.444   4.446   2.871 -0.1272  0.3495  0.1529
 8446TIP3    H146753   4.419   4.369   2.922 -3.7453  1.5076  0.2881
 8446TIP3    H246754   4.472   4.410   2.787  3.7200 -1.4175  2.0587
 8447TIP3   OH246755   1.919   5.250  15.425  0.3230 -0.7233 -0.1667
 8447TIP3    H146756   1.840   5.235  15.373 -1.6293  2.6520  1.6917
 8447TIP3    H246757   1.890   5.244  15.516  2.6765 -1.5066  0.5707
 8448TIP3   OH246758   4.263   2.430  14.236  0.6101 -0.1051 -0.7153
 8448TIP3    H146759   4.320   2.400  14.165  0.2560 -1.1322 -0.5741
 8448TIP3    H246760   4.304   2.397  14.316  0.4347  0.1354 -0.5230
 8449TIP3   OH246761   2.049   5.826  13.517  0.6485  0.2567  0.0559
 8449TIP3    H146762   2.046   5.897  13.581  3.2407  3.3420 -3.0620
 8449TIP3    H246763   1.984   5.849  13.451 -0.5875 -1.8442  0.4996
 8450TIP3   OH246764   6.055   0.826  11.631  0.6528 -0.5943 -0.0077
 8450TIP3    H146765   6.036   0.764  11.561 -0.0849 -0.6841  0.2579
 8450TIP3    H246766   6.150   0.823  11.642  0.7757 -0.5010 -1.0622
 8451TIP3   OH246767   4.620   2.724   1.048  0.4562 -0.2658 -0.0706
 8451TIP3    H146768   4.557   2.746   1.116  1.6468  1.0352  0.6534
 8451TIP3    H246769   4.569   2.680   0.980 -0.7561 -1.5451  1.6441
 8452TIP3   OH246770   2.348   4.201  11.610 -0.0248 -0.0304 -0.3935
 8452TIP3    H146771   2.356   4.106  11.615 -0.5897 -0.2579 -3.0469
 8452TIP3    H246772   2.433   4.234  11.639  1.0491 -1.4431 -1.8343
 8453TIP3   OH246773   6.569   4.086   2.193  0.4540 -0.7029  0.2909
 8453TIP3    H146774   6.592   4.179   2.184 -0.0410 -0.7611 -1.8498
 8453TIP3    H246775   6.488   4.087   2.244  0.5695  0.0156  0.4777
 8454TIP3   OH246776   3.317   7.152   0.257 -0.8762  0.4375  0.2509
 8454TIP3    H146777   3.266   7.087   0.305 -2.0100  0.2648 -1.1406
 8454TIP3    H246778   3.266   7.233   0.265 -1.3828  0.2707 -1.1131
 8455TIP3   OH246779   5.705   2.371   1.552 -0.2225 -0.2971  0.5713
 8455TIP3    H146780   5.759   2.390   1.628 -0.4309 -1.3868  1.0056
 8455TIP3    H246781   5.673   2.456   1.523  0.9867  0.2632  0.8576
 8456TIP3   OH246782   3.375   4.931  13.385  0.0064 -0.1949  0.3436
 8456TIP3    H146783   3.287   4.911  13.354 -0.9893  0.7491  2.4218
 8456TIP3    H246784   3.376   5.026  13.394  1.3038 -0.1823  0.1435
 8457TIP3   OH246785   5.171   5.631  12.165  0.7672 -0.2837  0.2054
 8457TIP3    H146786   5.205   5.697  12.225  1.3710 -0.8100  0.4396
 8457TIP3    H246787   5.248   5.587  12.129  0.4264  0.2359 -1.2106
 8458TIP3   OH246788   4.316   5.842   0.514  0.5197 -0.4116  0.1297
 8458TIP3    H146789   4.407   5.854   0.544  0.4710 -1.0990  0.5554
 8458TIP3    H246790   4.290   5.758   0.550  0.0748 -0.7283 -0.9277
 8459TIP3   OH246791   0.316   2.975  13.507  0.4011  0.4500  0.2470
 8459TIP3    H146792   0.257   2.902  13.529  0.0208  1.4779  2.8417
 8459TIP3    H246793   0.383   2.936  13.451 -0.1812 -1.7513  1.0320
 8460TIP3   OH246794   0.135   3.257  14.745  0.0587 -0.5982 -0.3724
 8460TIP3    H146795   0.214   3.290  14.788  0.2995 -1.0589 -0.4479
 8460TIP3    H246796   0.072   3.244  14.816 -0.1916  0.4468 -0.4037
 8461TIP3   OH246797   3.333   4.662   2.319 -0.5836 -0.1749  0.0244
 8461TIP3    H146798   3.299   4.653   2.230 -1.2085  0.6236  0.1790
 8461TIP3    H246799   3.264   4.626   2.375 -0.6718  0.3557  0.2592
 8462TIP3   OH246800   3.603   4.512  10.997 -0.1770  0.3144  0.7008
 8462TIP3    H146801   3.515   4.488  10.969  0.0874 -1.4004  1.2785
 8462TIP3    H246802   3.648   4.429  11.009  1.3210  1.1568  1.0773
 8463TIP3   OH246803   1.563   1.902  13.918  0.0089 -0.5669  0.2198
 8463TIP3    H146804   1.625   1.958  13.964 -0.0939 -1.7079  1.7818
 8463TIP3    H246805   1.612   1.823  13.897 -0.0063 -0.1530 -1.4727
 8464TIP3   OH246806   1.338   5.397  11.003 -0.3745  0.3958  0.3833
 8464TIP3    H146807   1.257   5.384  11.053 -0.9950  2.0354 -0.1604
 8464TIP3    H246808   1.314   5.378  10.912 -0.1625  0.9598  0.2095
 8465TIP3   OH246809   4.303   3.901   4.309  0.4988 -0.4697  0.0877
 8465TIP3    H146810   4.364   3.952   4.363 -0.6936  1.1405 -0.0687
 8465TIP3    H246811   4.301   3.815   4.351  1.8965 -0.1595  0.8445
 8466TIP3   OH246812   2.605   6.476  13.036 -0.0428  0.4253  0.3290
 8466TIP3    H146813   2.609   6.466  12.941 -2.1828  1.6166  0.0704
 8466TIP3    H246814   2.576   6.391  13.068 -0.5947  0.4101 -0.2085
 8467TIP3   OH246815   2.885   5.397  11.767 -0.1084  0.0224  0.1056
 8467TIP3    H146816   2.916   5.344  11.693  1.8607  0.3604  0.6459
 8467TIP3    H246817   2.791   5.382  11.770  0.2348 -2.4317 -0.5437
 8468TIP3   OH246818   3.466   2.774   1.881  0.2121  0.6930  0.5829
 8468TIP3    H146819   3.445   2.776   1.787  0.9914  0.1564  0.3958
 8468TIP3    H246820   3.515   2.693   1.893 -0.6849  0.2972  1.6320
 8469TIP3   OH246821   4.050   6.572  10.537 -0.2959 -0.0889  0.9323
 8469TIP3    H146822   4.017   6.653  10.576 -0.1229  1.8647 -2.7575
 8469TIP3    H246823   3.983   6.547  10.474  1.6349 -0.3930 -1.0388
 8470TIP3   OH246824   2.436   3.281  11.929  1.0825  0.8229  0.4912
 8470TIP3    H146825   2.466   3.197  11.894 -1.5197 -0.0014  0.1842
 8470TIP3    H246826   2.453   3.343  11.858 -0.1651 -0.0649 -0.6018
 8471TIP3   OH246827   2.080   5.753  14.154  0.0084 -0.3993  0.2702
 8471TIP3    H146828   2.032   5.818  14.103 -1.8421 -0.0762  2.3547
 8471TIP3    H246829   2.135   5.804  14.213  0.0037 -0.7231  0.5613
 8472TIP3   OH246830   2.469   3.827   1.196  0.7997  0.0465  0.4691
 8472TIP3    H146831   2.423   3.910   1.206 -1.0270 -0.9600  0.7138
 8472TIP3    H246832   2.507   3.809   1.283  0.8620  0.4244  0.5191
 8473TIP3   OH246833   6.362   6.902  11.484  0.2434 -0.0478  0.3013
 8473TIP3    H146834   6.439   6.868  11.439 -0.9927 -0.6044 -1.4009
 8473TIP3    H246835   6.308   6.825  11.501 -0.0493  0.3722  1.3021
 8474TIP3   OH246836   3.212   2.679  12.664  0.3263 -0.2447  0.1261
 8474TIP3    H146837   3.283   2.619  12.643  0.6500  0.5315 -1.0217
 8474TIP3    H246838   3.229   2.705  12.755  1.0571 -0.6561  0.1127
 8475TIP3   OH246839   5.023   4.665  13.397 -0.1192  0.1422  0.0958
 8475TIP3    H146840   5.071   4.682  13.477 -0.0048  0.3905 -0.0264
 8475TIP3    H246841   4.938   4.632  13.426 -0.2908  0.7813  0.3298
 8476TIP3   OH246842   1.545   5.897  14.712  0.1363  0.4370 -0.7311
 8476TIP3    H146843   1.542   5.965  14.780 -0.1324  0.6130 -0.9175
 8476TIP3    H246844   1.567   5.944  14.632 -1.5153  0.5367 -1.1441
 8477TIP3   OH246845   3.654   7.071   1.468  0.5713  0.1119  0.5158
 8477TIP3    H146846   3.643   7.141   1.533 -1.9867 -0.0504  0.3100
 8477TIP3    H246847   3.702   7.003   1.515  0.4289  0.7799  1.6532
 8478TIP3   OH246848   0.154   5.145  11.062 -0.0747 -0.3358 -0.1607
 8478TIP3    H146849   0.176   5.052  11.060  0.7382 -0.1341 -0.9207
 8478TIP3    H246850   0.173   5.172  11.152 -0.2166 -0.8780  0.0350
 8479TIP3   OH246851   1.481   2.461   0.622  0.6133  0.9439 -0.1149
 8479TIP3    H146852   1.489   2.377   0.666  0.7137 -0.0606 -2.0347
 8479TIP3    H246853   1.545   2.459   0.551 -0.2135  2.1499 -0.9307
 8480TIP3   OH246854   4.947   1.778  12.239 -0.0331  0.0564  0.0357
 8480TIP3    H146855   4.870   1.802  12.291  1.1232 -0.9810  2.3313
 8480TIP3    H246856   5.001   1.856  12.238 -0.3609  0.2810 -0.1579
 8481TIP3   OH246857   0.825   1.439   0.307  0.3985  0.4370 -0.2696
 8481TIP3    H146858   0.896   1.377   0.287  2.5689  1.4087  3.8051
 8481TIP3    H246859   0.820   1.439   0.403 -2.4631  3.3604 -0.3497
 8482TIP3   OH246860   4.524   3.926  11.688 -0.3753 -0.3433  0.4173
 8482TIP3    H146861   4.513   3.874  11.767  0.4476 -1.3958 -0.1450
 8482TIP3    H246862   4.444   3.910  11.638 -1.4082  1.2292  1.5322
 8483TIP3   OH246863   1.885   3.819   0.666 -0.2109  0.1505 -0.1238
 8483TIP3    H146864   1.828   3.893   0.684 -1.3434 -0.3749 -1.4991
 8483TIP3    H246865   1.971   3.846   0.699 -0.4156  2.4144 -1.3677
 8484TIP3   OH246866   2.870   0.875  13.485 -0.2597 -0.1907  0.0838
 8484TIP3    H146867   2.821   0.952  13.513  1.4078  0.2593  1.8844
 8484TIP3    H246868   2.818   0.801  13.516 -0.7965  0.2417  0.2266
 8485TIP3   OH246869   3.840   5.829  12.789 -0.3360 -0.2397 -0.3366
 8485TIP3    H146870   3.749   5.805  12.809 -0.5726  1.2805  0.4433
 8485TIP3    H246871   3.836   5.922  12.767  1.1961  0.1250  0.8270
 8486TIP3   OH246872   3.145   5.663   3.208 -0.1470  0.1170  0.4292
 8486TIP3    H146873   3.228   5.668   3.256 -0.7232 -0.3725  1.5055
 8486TIP3    H246874   3.152   5.584   3.155  1.4613  1.9506 -2.1830
 8487TIP3   OH246875   1.640   4.221  12.673 -0.4064  0.0530  0.1611
 8487TIP3    H146876   1.601   4.252  12.591 -0.7928  2.5453  1.2293
 8487TIP3    H246877   1.733   4.247  12.667 -0.3299 -0.1893  0.2898
 8488TIP3   OH246878   4.873   3.695  11.654 -0.3010  0.0950  0.0097
 8488TIP3    H146879   4.858   3.765  11.717 -0.8044  0.1123 -0.1304
 8488TIP3    H246880   4.904   3.622  11.707 -1.6618 -0.2083  0.4024
 8489TIP3   OH246881   4.163   5.190   1.195  0.2196  0.5681 -0.2064
 8489TIP3    H146882   4.089   5.219   1.248  1.8802 -1.4134  3.3652
 8489TIP3    H246883   4.215   5.269   1.181 -1.9363  1.7641 -1.8128
 8490TIP3   OH246884   3.676   3.342   4.683 -0.4296 -0.1048  0.3192
 8490TIP3    H146885   3.656   3.338   4.589 -2.0798  1.7956  0.5568
 8490TIP3    H246886   3.697   3.433   4.699 -0.7647 -0.3031  1.9282
 8491TIP3   OH246887   3.289   5.161  10.940 -0.4133  0.1605  0.0024
 8491TIP3    H146888   3.265   5.252  10.923  0.0749  0.4782  0.9189
 8491TIP3    H246889   3.276   5.116  10.857 -0.6100  1.0846 -0.4735
 8492TIP3   OH246890   3.540   5.677   0.291 -0.3694 -0.4727  0.0355
 8492TIP3    H146891   3.560   5.770   0.298  2.7694 -1.2135  2.3403
 8492TIP3    H246892   3.445   5.672   0.296 -0.6181  2.6277 -0.7676
 8493TIP3   OH246893   5.514   6.818  15.530 -0.1651  0.0380  0.1856
 8493TIP3    H146894   5.516   6.735  15.483 -1.9829  0.0999 -0.0327
 8493TIP3    H246895   5.446   6.807  15.597 -0.5548  1.3860  0.0423
 8494TIP3   OH246896   3.307   5.379  13.115 -0.4509 -0.0142 -1.0903
 8494TIP3    H146897   3.224   5.369  13.069  0.1377  2.0904 -2.6760
 8494TIP3    H246898   3.374   5.367  13.048  0.4271  2.3968 -0.7144
 8495TIP3   OH246899   6.424   4.198  13.470 -0.1672 -0.4528 -0.4895
 8495TIP3    H146900   6.341   4.222  13.429 -0.9399 -0.5719  0.9569
 8495TIP3    H246901   6.430   4.103  13.458 -1.4618 -0.8300  1.5110
 8496TIP3   OH246902   1.276   5.601  10.690  0.2901 -0.1024  0.1576
 8496TIP3    H146903   1.305   5.655  10.763  0.5016 -0.1382  0.1000
 8496TIP3    H246904   1.298   5.652  10.612 -3.3580  1.6682  0.1889
 8497TIP3   OH246905   1.761   2.995   0.694  0.0474  0.1169  0.1284
 8497TIP3    H146906   1.798   2.938   0.761  1.1838  1.2114  0.4550
 8497TIP3    H246907   1.705   3.056   0.743  0.7932  0.8493  0.0798
 8498TIP3   OH246908   4.189   0.068  12.742 -0.1459 -0.0477 -0.1280
 8498TIP3    H146909   4.099   0.044  12.720  0.6358 -2.1822 -1.1278
 8498TIP3    H246910   4.180   0.146  12.797 -2.8187 -2.2239  2.7301
 8499TIP3   OH246911   3.125   4.587  14.443  0.7731  0.3859  0.0161
 8499TIP3    H146912   3.043   4.567  14.487  0.9733  0.6194  0.5009
 8499TIP3    H246913   3.169   4.650  14.501  2.2373 -1.3166  0.8036
 8500TIP3   OH246914   0.141   6.132  11.200 -0.2328  0.4237 -0.0100
 8500TIP3    H146915   0.118   6.185  11.277  0.8301  1.7670 -0.6016
 8500TIP3    H246916   0.233   6.111  11.211 -0.8551 -2.1306  0.6707
 8501TIP3   OH246917   5.775   0.760  15.428 -0.1785  0.3725 -0.0015
 8501TIP3    H146918   5.795   0.723  15.343  0.9473 -0.5894  0.6675
 8501TIP3    H246919   5.729   0.842  15.409 -1.7463 -0.8104 -1.5168
 8502TIP3   OH246920   5.106   4.110  15.043 -0.6154 -0.2759 -0.1607
 8502TIP3    H146921   5.061   4.051  14.982  0.9869 -0.9049 -0.7683
 8502TIP3    H246922   5.092   4.070  15.129 -0.6562 -0.8242 -0.4180
 8503TIP3   OH246923   5.535   1.286  12.183  0.6111  0.1645 -0.3600
 8503TIP3    H146924   5.482   1.235  12.122  1.9424 -1.6378 -0.0442
 8503TIP3    H246925   5.558   1.224  12.253  2.2362  1.1886  0.0415
 8504TIP3   OH246926   6.155   1.644  11.128 -0.6297  0.7927 -0.1722
 8504TIP3    H146927   6.092   1.576  11.154  0.0034 -0.2697 -1.3597
 8504TIP3    H246928   6.236   1.596  11.111  0.5240  2.1548  1.3174
 8505TIP3   OH246929   0.265   6.992   4.412  0.0548  0.4638 -0.2318
 8505TIP3    H146930   0.254   7.076   4.456 -1.4456  1.3139 -2.1208
 8505TIP3    H246931   0.197   6.992   4.344  2.0137 -0.9422 -2.2684
 8506TIP3   OH246932   4.782   3.812  14.062  0.2300  0.1981  0.0051
 8506TIP3    H146933   4.747   3.801  14.150  2.0123  1.2699  0.8670
 8506TIP3    H246934   4.743   3.893  14.030  1.7552  1.3151  0.9098
 8507TIP3   OH246935   3.137   4.109  11.534 -0.4932 -0.1260 -0.1286
 8507TIP3    H146936   3.166   4.139  11.448 -1.0982 -2.2732 -1.1176
 8507TIP3    H246937   3.193   4.156  11.596  0.4543  0.8884 -1.7030
 8508TIP3   OH246938   3.592   2.608  14.344  0.1576 -0.0414  0.5712
 8508TIP3    H146939   3.613   2.617  14.437  0.1155  0.5490  0.5301
 8508TIP3    H246940   3.637   2.529  14.316 -0.3064 -0.5474  1.2345
 8509TIP3   OH246941   1.303   5.691  13.276 -0.6225 -0.2654 -0.3997
 8509TIP3    H146942   1.284   5.654  13.190  0.4234  1.3860 -1.3713
 8509TIP3    H246943   1.334   5.616  13.328  2.1504 -0.6922 -2.5271
 8510TIP3   OH246944   6.682   5.040  11.431  0.0482 -0.0600  0.2021
 8510TIP3    H146945   6.766   5.052  11.385  0.1814 -0.6720  0.2824
 8510TIP3    H246946   6.701   5.064  11.522  0.6907 -2.2822  0.6715
 8511TIP3   OH246947   6.471   4.492  13.552 -0.4508  0.2931  0.1268
 8511TIP3    H146948   6.386   4.456  13.578 -0.0833  0.6364  1.8667
 8511TIP3    H246949   6.502   4.433  13.483 -2.6129  0.8263 -1.3717
 8512TIP3   OH246950   4.875   1.650  13.256  0.3207 -0.1975 -0.4171
 8512TIP3    H146951   4.832   1.672  13.174 -1.1181  0.6157  0.5347
 8512TIP3    H246952   4.857   1.725  13.314  2.3063 -0.2211  0.2733
 8513TIP3   OH246953   4.849   2.259   0.305 -0.4812  0.2466  0.0682
 8513TIP3    H146954   4.803   2.315   0.368 -1.6848 -1.4041  0.6736
 8513TIP3    H246955   4.807   2.174   0.313 -0.5186 -0.0522 -2.8493
 8514TIP3   OH246956   5.055   5.690  14.951 -0.3256 -0.2971  0.0913
 8514TIP3    H146957   4.987   5.628  14.976  0.0689 -1.3758 -1.4307
 8514TIP3    H246958   5.014   5.747  14.886  0.4170 -1.4239 -1.3889
 8515TIP3   OH246959   2.995   3.224  14.272  0.0160  0.5909  0.2034
 8515TIP3    H146960   2.912   3.176  14.273  0.5038 -0.2785 -0.0385
 8515TIP3    H246961   2.972   3.313  14.246 -0.7402  0.1745 -0.5553
 8516TIP3   OH246962   6.348   1.791  10.172  0.1027  0.3423  0.1598
 8516TIP3    H146963   6.308   1.860  10.119  1.9574  0.1817 -1.5260
 8516TIP3    H246964   6.276   1.752  10.220 -1.6341  0.5835 -2.1759
 8517TIP3   OH246965   3.862   5.466   0.377 -0.1781 -0.6424  0.0491
 8517TIP3    H146966   3.781   5.514   0.359 -0.1855  0.2127  2.2593
 8517TIP3    H246967   3.862   5.452   0.472  2.3692 -0.4180  0.1223
 8518TIP3   OH246968   6.295   3.654  14.073  0.2374 -0.1925  0.3865
 8518TIP3    H146969   6.330   3.614  14.153 -1.9257 -1.2675  0.8625
 8518TIP3    H246970   6.263   3.579  14.022 -0.2209  0.6423 -0.5625
 8519TIP3   OH246971   5.182   0.849   2.942  0.3405 -0.1520 -0.4536
 8519TIP3    H146972   5.180   0.888   2.855 -1.0959  0.2215 -0.2645
 8519TIP3    H246973   5.170   0.755   2.926  1.4616 -0.2611 -0.7379
 8520TIP3   OH246974   5.488   1.765  11.904 -0.1374  0.0917 -0.6531
 8520TIP3    H146975   5.451   1.689  11.950  0.0271 -1.3969 -2.9432
 8520TIP3    H246976   5.536   1.812  11.972 -0.9184 -1.3902  0.9814
 8521TIP3   OH246977   5.024   3.354  12.436 -0.2073 -0.2265 -0.3677
 8521TIP3    H146978   5.016   3.437  12.483 -1.4709  0.6028 -2.0076
 8521TIP3    H246979   4.937   3.315  12.441  0.3506 -1.4295  0.3064
 8522TIP3   OH246980   6.852   1.268  10.769  0.0453  0.2077 -0.8294
 8522TIP3    H146981   6.764   1.234  10.787  0.8755 -0.4622  2.3223
 8522TIP3    H246982   6.837   1.352  10.727 -2.1993  1.2215  1.8090
 8523TIP3   OH246983   4.579   3.822   0.937 -0.5087  0.1140 -0.0155
 8523TIP3    H146984   4.568   3.759   1.008  0.7585  0.5827  0.5983
 8523TIP3    H246985   4.613   3.900   0.979  1.6471 -0.0816 -1.3446
 8524TIP3   OH246986   1.716   6.504  14.287 -0.1119 -0.0248 -0.0766
 8524TIP3    H146987   1.753   6.547  14.364  1.0278 -2.2569  0.6998
 8524TIP3    H246988   1.734   6.411  14.302 -1.5791 -0.6728 -2.1455
 8525TIP3   OH246989   5.478   4.692   0.551 -0.3679  0.2970 -0.1111
 8525TIP3    H146990   5.499   4.745   0.475  0.7199  0.6702  0.4480
 8525TIP3    H246991   5.561   4.678   0.596 -0.8720 -0.5802  0.5895
 8526TIP3   OH246992   4.544   5.362  13.200  0.1580 -1.2457 -0.0981
 8526TIP3    H146993   4.547   5.452  13.169 -1.4675 -1.3614 -0.5989
 8526TIP3    H246994   4.569   5.368  13.292 -1.5102 -0.0754  0.2930
 8527TIP3   OH246995   6.984   3.855  12.074 -0.2991  0.5664  0.3004
 8527TIP3    H146996   6.901   3.822  12.109 -0.6413  0.5346 -0.5363
 8527TIP3    H246997   7.006   3.795  12.003  0.4618  0.5516  0.5488
 8528TIP3   OH246998   2.594   5.762  12.939  0.5860  0.2345 -0.1234
 8528TIP3    H146999   2.588   5.824  13.012  0.9703 -0.4097  0.4709
 8528TIP3    H247000   2.648   5.691  12.974  2.2551  0.7414 -1.6319
 8529TIP3   OH247001   0.502   3.750  11.456  0.1764 -0.2933  0.0795
 8529TIP3    H147002   0.466   3.838  11.463  1.1738  0.1414 -0.2283
 8529TIP3    H247003   0.589   3.762  11.416 -0.0239 -1.4900 -0.7421
 8530TIP3   OH247004   4.154   5.854  14.631  0.1093  0.0545  0.7479
 8530TIP3    H147005   4.151   5.933  14.686 -1.2522  0.2720  0.3728
 8530TIP3    H247006   4.124   5.784  14.689 -4.0569  0.7338 -0.4390
 8531TIP3   OH247007   0.102   6.831   0.150 -0.2547  0.5414  0.2904
 8531TIP3    H147008   0.012   6.805   0.171 -0.6583 -1.5339 -3.5148
 8531TIP3    H247009   0.093   6.919   0.112 -1.0177 -0.5367 -2.1191
 8532TIP3   OH247010   2.328   0.961  12.470 -0.2707 -0.3597 -0.3536
 8532TIP3    H147011   2.331   0.952  12.374  0.0994 -1.2501 -0.2617
 8532TIP3    H247012   2.353   1.052  12.486 -1.9086  0.2731 -1.1861
 8533TIP3   OH247013   5.474   6.706   0.552  0.1946  0.4032  1.0274
 8533TIP3    H147014   5.423   6.665   0.622  1.2405  0.0209  1.5856
 8533TIP3    H247015   5.507   6.787   0.590  1.9573 -0.4967  1.4910
 8534TIP3   OH247016   4.287   6.513   0.044 -0.0871  0.6264  0.3318
 8534TIP3    H147017   4.302   6.513   0.139 -1.9836  1.3861  0.6487
 8534TIP3    H247018   4.258   6.602   0.024  0.5661  0.5511 -1.0262
 8535TIP3   OH247019   4.253   2.774  13.791  0.9569  0.0946  0.0881
 8535TIP3    H147020   4.277   2.864  13.813 -1.4628  0.5723  1.0019
 8535TIP3    H247021   4.207   2.743  13.869  1.0205 -1.6522 -0.5601
 8536TIP3   OH247022   6.426   5.881  15.216 -0.7050  0.0064  0.5928
 8536TIP3    H147023   6.440   5.937  15.292  1.4385  0.1434  0.1283
 8536TIP3    H247024   6.509   5.836  15.203 -1.1290 -0.2544 -1.4922
 8537TIP3   OH247025   4.479   0.968  14.435 -0.5073 -0.1113 -0.3144
 8537TIP3    H147026   4.452   1.027  14.364 -1.2868 -0.4581 -0.3126
 8537TIP3    H247027   4.560   0.929  14.403 -0.4295  0.3295 -0.6772
 8538TIP3   OH247028   1.124   3.342   0.092 -0.0991 -0.2470 -0.7513
 8538TIP3    H147029   1.214   3.372   0.084 -0.3149  0.4086 -0.7241
 8538TIP3    H247030   1.126   3.277   0.162 -0.1521  1.7767  1.1735
 8539TIP3   OH247031   2.645   3.214   2.506  0.0858  0.2756  0.4171
 8539TIP3    H147032   2.716   3.227   2.442 -0.1171  0.3767  0.2125
 8539TIP3    H247033   2.689   3.220   2.591  0.1660  1.3508  0.3092
 8540TIP3   OH247034   4.443   6.133  14.234  0.0916 -0.5555  0.1048
 8540TIP3    H147035   4.366   6.189  14.232  0.1738 -0.4601 -0.6386
 8540TIP3    H247036   4.462   6.121  14.327 -1.0616 -0.9189  0.2969
 8541TIP3   OH247037   5.792   6.327  13.398 -0.0192 -0.5294  0.2431
 8541TIP3    H147038   5.784   6.378  13.478 -0.4138  1.0292 -0.7563
 8541TIP3    H247039   5.732   6.369  13.337  1.6417 -0.5379 -1.4507
 8542TIP3   OH247040   6.753   4.336  14.117  0.2935 -0.0055  0.4239
 8542TIP3    H147041   6.702   4.417  14.112  2.2826  1.3232  0.8862
 8542TIP3    H247042   6.688   4.267  14.126 -1.4941  1.4494 -0.8591
 8543TIP3   OH247043   3.549   4.760  10.893 -0.1292 -0.2331  0.0205
 8543TIP3    H147044   3.503   4.808  10.962  0.5566 -0.0212  0.3380
 8543TIP3    H247045   3.569   4.675  10.933 -3.3138 -1.6652 -1.2824
 8544TIP3   OH247046   5.924   2.486  12.205  0.5944 -0.5154  0.3237
 8544TIP3    H147047   5.982   2.562  12.191 -2.0299  1.9794  2.5236
 8544TIP3    H247048   5.908   2.452  12.117  2.7742  0.7232 -0.5927
 8545TIP3   OH247049   2.042   7.147  13.442  0.3810 -0.6835  0.2605
 8545TIP3    H147050   2.097   7.087  13.493  0.9003 -0.8035 -0.4215
 8545TIP3    H247051   2.095   7.166  13.364 -0.2870 -0.2888 -0.0960
 8546TIP3   OH247052   4.638   3.431  14.669  0.0111  0.2515  0.0259
 8546TIP3    H147053   4.707   3.372  14.702 -0.2819 -0.4037 -0.5160
 8546TIP3    H247054   4.653   3.513  14.715  1.2645  0.1674 -0.1964
 8547TIP3   OH247055   6.120   6.920  14.704 -0.1057  0.2516 -0.5864
 8547TIP3    H147056   6.044   6.979  14.699 -0.8783 -0.7261 -0.5234
 8547TIP3    H247057   6.144   6.904  14.613  0.3481  0.9514 -0.5991
 8548TIP3   OH247058   1.722   2.864  13.539  0.0859  0.2197  0.3903
 8548TIP3    H147059   1.766   2.783  13.513  0.8083  0.3890  1.0559
 8548TIP3    H247060   1.772   2.933  13.497 -0.0493  0.3649  0.4666
 8549TIP3   OH247061   5.094   3.990  14.323  0.2000 -0.2229 -0.1566
 8549TIP3    H147062   5.163   4.009  14.386  0.0788  0.4452 -0.2298
 8549TIP3    H247063   5.013   3.995  14.374 -0.0182  1.7436 -0.6659
 8550TIP3   OH247064   2.872   3.456  10.824  0.8982 -0.2032 -0.4580
 8550TIP3    H147065   2.829   3.469  10.908  0.6126 -1.4039 -0.4042
 8550TIP3    H247066   2.874   3.361  10.812  2.2847 -0.1141 -1.1099
 8551TIP3   OH247067   2.670   0.705  12.916  0.0822  0.2373 -0.3433
 8551TIP3    H147068   2.751   0.754  12.903 -0.4903  1.3858  0.3228
 8551TIP3    H247069   2.659   0.703  13.011 -1.1960  0.9590 -0.4770
 8552TIP3   OH247070   4.226   3.313   0.582 -0.4873 -0.2743 -0.1681
 8552TIP3    H147071   4.218   3.405   0.607  2.5078  0.0608 -0.3350
 8552TIP3    H247072   4.160   3.269   0.635 -1.6877  1.8852  0.2179
 8553TIP3   OH247073   0.239   4.604   0.939 -0.5530 -0.2501  0.3945
 8553TIP3    H147074   0.160   4.651   0.912  0.2190  1.1545  0.5304
 8553TIP3    H247075   0.211   4.552   1.014 -1.2818  0.4908  0.6495
 8554TIP3   OH247076   6.942   6.569  14.855 -0.4236 -0.1472  0.1288
 8554TIP3    H147077   6.853   6.603  14.844  0.5438  3.4799  2.5548
 8554TIP3    H247078   6.991   6.607  14.783 -0.3720 -0.4087  0.0256
 8555TIP3   OH247079   3.065   4.697  11.848 -0.6292  0.2263  0.1119
 8555TIP3    H147080   3.059   4.641  11.770 -0.9516 -0.8849  0.9278
 8555TIP3    H247081   3.142   4.752  11.831 -0.9109  0.2516 -1.1525
 8556TIP3   OH247082   4.054   5.357  10.217  0.0266 -0.4545  0.5901
 8556TIP3    H147083   3.960   5.346  10.205  0.2320 -1.6143  0.0088
 8556TIP3    H247084   4.086   5.269  10.238  1.1858 -0.3270 -0.6100
 8557TIP3   OH247085   3.751   1.301  13.022  0.1252 -0.4578  0.4113
 8557TIP3    H147086   3.837   1.296  12.979 -0.0113  0.2223  0.0474
 8557TIP3    H247087   3.764   1.361  13.095 -0.1541  0.0303  0.0669
 8558TIP3   OH247088   2.797   5.852  12.738  0.3500 -0.6490 -0.5518
 8558TIP3    H147089   2.717   5.843  12.790  0.7699  0.4367  0.3050
 8558TIP3    H247090   2.771   5.824  12.650 -1.5239  1.6280 -0.7793
 8559TIP3   OH247091   3.893   5.981  13.434  0.3703 -0.6414 -0.5448
 8559TIP3    H147092   3.923   6.022  13.516 -2.6695 -0.5460  0.5910
 8559TIP3    H247093   3.933   5.895  13.434 -0.9124 -1.2875  1.9534
 8560TIP3   OH247094   3.445   2.676  13.566  1.0349  0.3328 -0.6816
 8560TIP3    H147095   3.387   2.712  13.500 -0.2823 -1.6549 -0.6411
 8560TIP3    H247096   3.443   2.582  13.551  0.2403 -0.2257  2.5399
 8561TIP3   OH247097   5.190   2.427   3.111  0.4527  0.7742  0.5538
 8561TIP3    H147098   5.211   2.514   3.076  0.2265  0.4866 -0.3229
 8561TIP3    H247099   5.274   2.384   3.123  0.4677  0.2400 -1.3300
 8562TIP3   OH247100   0.508   0.760   0.417 -0.0040 -0.2034 -0.0360
 8562TIP3    H147101   0.435   0.703   0.442 -0.4752 -0.0882 -1.1450
 8562TIP3    H247102   0.468   0.845   0.402  0.3450 -0.1562 -0.7249
 8563TIP3   OH247103   6.123   4.043  12.042 -0.3121 -0.1220 -0.5302
 8563TIP3    H147104   6.140   4.076  12.130  1.9401  0.4721 -1.1678
 8563TIP3    H247105   6.198   4.071  11.990 -0.9026 -1.7185 -2.3200
 8564TIP3   OH247106   6.121   6.114   0.219 -0.2141  0.5383 -0.2889
 8564TIP3    H147107   6.045   6.081   0.266  0.4906 -2.9392 -1.4622
 8564TIP3    H247108   6.107   6.088   0.128  2.2087  0.1537 -0.5803
 8565TIP3   OH247109   4.737   0.634  14.930 -1.0820 -0.1848 -0.6587
 8565TIP3    H147110   4.787   0.563  14.890  0.0784  0.0215  0.4166
 8565TIP3    H247111   4.709   0.688  14.856  3.3784  1.7321 -1.1251
 8566TIP3   OH247112   4.867   4.902   0.759 -0.1503 -0.3637 -0.4360
 8566TIP3    H147113   4.926   4.881   0.831 -2.0510 -1.2816  0.8777
 8566TIP3    H247114   4.920   4.888   0.680  1.9104  0.5321  0.7540
 8567TIP3   OH247115   5.846   3.484  11.164 -0.5026  0.0337 -0.5063
 8567TIP3    H147116   5.855   3.468  11.070 -0.0854 -2.0386 -0.1431
 8567TIP3    H247117   5.766   3.536  11.172 -0.9242 -0.3655 -1.9564
 8568TIP3   OH247118   5.706   2.150  15.133 -0.0781 -0.2380  0.0412
 8568TIP3    H147119   5.642   2.196  15.187  0.1583 -0.9097  0.9191
 8568TIP3    H247120   5.788   2.198  15.147  0.3443 -1.3630  1.5776
 8569TIP3   OH247121   4.647   2.991   0.608  0.5630 -0.2263 -0.0847
 8569TIP3    H147122   4.673   2.952   0.692  1.2319  0.7654  0.1800
 8569TIP3    H247123   4.668   3.084   0.617 -1.5166  0.2975 -0.5092
 8570TIP3   OH247124   1.365   4.764  12.735 -0.2555 -0.0338 -0.0174
 8570TIP3    H147125   1.364   4.846  12.783  1.7217 -0.3806  0.6594
 8570TIP3    H247126   1.302   4.776  12.664 -0.2106  1.9344  0.2663
 8571TIP3   OH247127   4.644   3.734  13.177  0.0106  0.3872  0.1191
 8571TIP3    H147128   4.739   3.728  13.186 -0.1093  1.1217  2.0524
 8571TIP3    H247129   4.631   3.801  13.110  0.8551 -0.1666 -0.6102
 8572TIP3   OH247130   0.117   2.246  11.398 -0.0897 -0.3391  0.1588
 8572TIP3    H147131   0.023   2.263  11.390 -0.0957 -0.6777 -0.4561
 8572TIP3    H247132   0.133   2.245  11.493 -0.5392  0.6071  0.2556
 8573TIP3   OH247133   5.983   4.011  12.994  0.6533 -0.1167 -0.4045
 8573TIP3    H147134   6.060   3.994  13.048 -0.1162 -1.5956  0.2495
 8573TIP3    H247135   6.011   4.080  12.933  2.6859 -1.0965 -0.6113
 8574TIP3   OH247136   0.025   6.237  15.282 -0.1034 -0.1143 -0.5067
 8574TIP3    H147137  -0.038   6.222  15.353  0.0576  0.6631 -0.1858
 8574TIP3    H247138   0.094   6.291  15.323 -1.1417  2.2790 -1.8285
 8575TIP3   OH247139   3.548   7.093   3.659 -0.1158  0.4905 -0.5362
 8575TIP3    H147140   3.620   7.041   3.623  0.7868  1.4561 -0.1340
 8575TIP3    H247141   3.478   7.030   3.674  1.0811 -0.6670  0.2500
 8576TIP3   OH247142   6.342   7.141  14.710 -0.2319 -0.1528  0.4700
 8576TIP3    H147143   6.323   7.235  14.709 -2.2180 -0.5323 -0.7796
 8576TIP3    H247144   6.265   7.101  14.670  1.1425 -2.2292 -0.1598
 8577TIP3   OH247145   4.553   5.916  13.813 -0.0290 -0.7483 -0.0407
 8577TIP3    H147146   4.610   5.909  13.736  1.1652  1.4982  0.5992
 8577TIP3    H247147   4.476   5.962  13.781  0.1898 -0.3857 -0.0556
 8578TIP3   OH247148   4.449   2.579  12.175 -0.1573  0.3687 -0.4322
 8578TIP3    H147149   4.406   2.569  12.090 -0.4949 -0.7991 -0.1348
 8578TIP3    H247150   4.395   2.528  12.235  0.5014  0.5721  0.3363
 8579TIP3   OH247151   6.800   2.113  14.668 -0.6669  0.4026 -0.0070
 8579TIP3    H147152   6.835   2.076  14.588 -1.6474  0.7631 -0.6095
 8579TIP3    H247153   6.783   2.038  14.725  0.7353  0.2020  0.1624
 8580TIP3   OH247154   4.976   2.385  11.313 -0.1673  0.1167  0.1097
 8580TIP3    H147155   5.039   2.313  11.311 -0.1049  0.1979 -1.5170
 8580TIP3    H247156   4.914   2.360  11.382 -0.9539 -2.2046 -1.3686
 8581TIP3   OH247157   2.292   5.595  14.894  0.4833 -0.3727 -0.2408
 8581TIP3    H147158   2.271   5.590  14.801 -0.3822  1.0679 -0.1437
 8581TIP3    H247159   2.383   5.568  14.899  0.3191 -1.1947 -1.4111
 8582TIP3   OH247160   3.181   0.737  12.286  0.0090  0.8757  0.2316
 8582TIP3    H147161   3.133   0.799  12.341  1.2816  0.7332  1.5290
 8582TIP3    H247162   3.239   0.791  12.233  0.5797  0.8429  0.8238
 8583TIP3   OH247163   5.680   3.371   0.825  0.0359 -0.0797  0.8890
 8583TIP3    H147164   5.727   3.454   0.833 -0.8732  0.3278  2.1970
 8583TIP3    H247165   5.658   3.347   0.915  0.2364 -1.7206  0.5168
 8584TIP3   OH247166   5.021   5.522  10.547 -0.1583 -0.5041 -0.2518
 8584TIP3    H147167   5.106   5.520  10.591  0.6088  2.5096 -1.4716
 8584TIP3    H247168   4.957   5.523  10.618  0.9123 -0.5354  0.7292
 8585TIP3   OH247169   6.552   6.722  10.924  0.0097 -0.0632 -0.0589
 8585TIP3    H147170   6.572   6.677  11.007  0.8590 -1.6720 -1.0915
 8585TIP3    H247171   6.476   6.675  10.889  0.2262 -0.0016 -0.6260
 8586TIP3   OH247172   6.217   4.371  13.573 -0.2409 -0.3280 -0.7508
 8586TIP3    H147173   6.127   4.340  13.575  0.0117 -1.0404 -0.5479
 8586TIP3    H247174   6.222   4.425  13.493 -0.5722 -1.0929 -1.2873
 8587TIP3   OH247175   0.769   5.355  10.343  0.0613  0.4665  0.9684
 8587TIP3    H147176   0.807   5.307  10.417  0.8074 -1.9652 -0.9351
 8587TIP3    H247177   0.690   5.306  10.320  0.0532  0.9657 -0.1048
 8588TIP3   OH247178   3.060   3.606  13.764 -0.2579  0.4946 -0.5578
 8588TIP3    H147179   3.104   3.522  13.776  0.8730  0.9967 -1.1483
 8588TIP3    H247180   3.117   3.655  13.704 -0.0542  2.3226  1.0928
 8589TIP3   OH247181   5.076   6.816  14.761 -0.2584  0.1362 -0.3299
 8589TIP3    H147182   5.011   6.750  14.739  1.9630 -2.2133 -0.0826
 8589TIP3    H247183   5.082   6.871  14.683 -1.3680 -0.6002 -0.9489
 8590TIP3   OH247184   4.483   4.417   0.780  0.2057 -0.2077  0.8743
 8590TIP3    H147185   4.550   4.484   0.793  0.3401 -0.5421  1.9749
 8590TIP3    H247186   4.515   4.365   0.707  1.4544 -0.7361  1.7733
 8591TIP3   OH247187   4.126   3.362  13.893 -0.5919  0.1277  0.4582
 8591TIP3    H147188   4.053   3.394  13.840 -1.9888 -3.8637 -0.2157
 8591TIP3    H247189   4.191   3.334  13.829 -0.4478 -0.6155  0.9197
 8592TIP3   OH247190   0.041   0.810  13.248  0.4406  0.3839  0.3543
 8592TIP3    H147191  -0.044   0.843  13.277  0.0191 -0.7468  0.3974
 8592TIP3    H247192   0.103   0.846  13.311  0.0016  1.2432  0.3034
 8593TIP3   OH247193   1.453   4.521  15.455 -0.4883 -0.5930 -0.1157
 8593TIP3    H147194   1.517   4.450  15.457 -2.4622 -2.4464  1.5442
 8593TIP3    H247195   1.401   4.504  15.377 -0.2310 -0.2907 -0.3522
 8594TIP3   OH247196   2.783   4.860   1.250 -0.0291  0.0289  0.3218
 8594TIP3    H147197   2.798   4.796   1.320  1.4940 -1.7269 -1.5331
 8594TIP3    H247198   2.846   4.930   1.268  0.2069 -0.3123  0.8458
 8595TIP3   OH247199   1.654   3.812  14.794 -0.0130  0.0113  0.0983
 8595TIP3    H147200   1.614   3.769  14.869  0.4569  0.1872  0.4584
 8595TIP3    H247201   1.580   3.846  14.743 -0.3797 -1.1072 -0.1322
 8596TIP3   OH247202   0.388   0.766   1.753 -0.3605  0.0196 -0.2676
 8596TIP3    H147203   0.298   0.765   1.718 -0.6711  2.2857  0.4028
 8596TIP3    H247204   0.385   0.708   1.829 -1.4105  0.5355  0.0947
 8597TIP3   OH247205   2.140   1.730  12.520 -0.4998 -0.0547 -0.5134
 8597TIP3    H147206   2.155   1.636  12.510  2.1359  0.5207 -2.7533
 8597TIP3    H247207   2.180   1.751  12.605  0.0337 -0.7591 -0.5807
 8598TIP3   OH247208   3.701   4.097  12.959 -0.0015 -0.0336  0.0882
 8598TIP3    H147209   3.695   4.026  13.023  0.0393 -0.9000 -0.8593
 8598TIP3    H247210   3.764   4.065  12.894 -0.6218  0.5223 -0.7892
 8599TIP3   OH247211   6.517   0.589   5.195  0.0145 -0.0942 -0.5312
 8599TIP3    H147212   6.495   0.663   5.252  1.2482 -0.9166  1.0002
 8599TIP3    H247213   6.548   0.631   5.114  3.3924  1.1040  1.3217
 8600TIP3   OH247214   5.646   3.970  12.836 -0.0062 -0.7889  0.1186
 8600TIP3    H147215   5.717   3.953  12.774  0.1345  1.4023 -0.3743
 8600TIP3    H247216   5.590   3.893  12.831  1.6542 -1.9796 -0.4515
 8601TIP3   OH247217   6.617   5.838  11.697 -0.1219  0.0422 -0.2346
 8601TIP3    H147218   6.626   5.841  11.601 -0.9832  0.4519 -0.3049
 8601TIP3    H247219   6.525   5.818  11.712 -0.0912  0.4573  0.5142
 8602TIP3   OH247220   5.299   2.754  14.716 -0.1386 -0.4802  0.2806
 8602TIP3    H147221   5.260   2.669  14.696 -0.2610 -0.5813  0.9326
 8602TIP3    H247222   5.265   2.776  14.803  2.8811 -1.5263  1.7864
 8603TIP3   OH247223   5.399   6.034   1.021  0.0329 -0.0248  0.3058
 8603TIP3    H147224   5.476   6.014   0.967  0.1535  0.1456  0.4140
 8603TIP3    H247225   5.418   5.995   1.106  0.0461  0.1064  0.3640
 8604TIP3   OH247226   1.077   6.403  10.792  0.3938  0.7411  0.3570
 8604TIP3    H147227   1.010   6.365  10.736  0.2127  0.7538  0.5644
 8604TIP3    H247228   1.046   6.387  10.881  2.1635 -2.0590  0.5369
 8605TIP3   OH247229   3.635   5.546  10.323  0.4396 -0.1006 -0.1873
 8605TIP3    H147230   3.571   5.616  10.336  1.1151  0.0506  2.6419
 8605TIP3    H247231   3.665   5.557  10.233 -3.0140  0.2288 -1.3337
 8606TIP3   OH247232   4.850   5.033  11.327  0.2663 -0.2004 -0.5984
 8606TIP3    H147233   4.806   5.068  11.404  0.9803 -0.6897  0.0375
 8606TIP3    H247234   4.905   4.962  11.361 -0.3357 -1.2211 -1.7204
 8607TIP3   OH247235   5.788   2.825  13.965 -0.7475 -0.2251 -0.8471
 8607TIP3    H147236   5.841   2.759  14.011 -0.5510 -1.4724 -2.8097
 8607TIP3    H247237   5.818   2.909  14.000  0.4691 -1.0718  0.1730
 8608TIP3   OH247238   1.975   2.243  13.697 -0.5278 -0.2067  0.4289
 8608TIP3    H147239   1.979   2.289  13.612  0.8854  0.7273  0.9917
 8608TIP3    H247240   2.066   2.234  13.724 -0.9694 -0.6198  1.8040
 8609TIP3   OH247241   3.018   2.818   1.481  0.5050  0.2948  0.0237
 8609TIP3    H147242   2.970   2.739   1.505 -1.8236  0.2877 -4.1956
 8609TIP3    H247243   2.949   2.882   1.461  2.3278  1.9112 -1.2721
 8610TIP3   OH247244   5.349   4.692  10.962 -0.0272  0.3382 -0.0847
 8610TIP3    H147245   5.444   4.693  10.958  0.0273 -0.8532  0.5808
 8610TIP3    H247246   5.323   4.784  10.953  1.2281  0.7802  0.6473
 8611TIP3   OH247247   3.220   5.039  10.693 -0.2542 -0.2376 -0.2366
 8611TIP3    H147248   3.214   5.047  10.598  2.0101  0.4758 -0.3473
 8611TIP3    H247249   3.251   4.949  10.708  3.0822  0.8388 -0.3835
 8612TIP3   OH247250   4.003   5.762  12.303 -0.7746 -0.1421 -0.1175
 8612TIP3    H147251   3.974   5.846  12.268 -2.8258 -1.1741 -1.0165
 8612TIP3    H247252   3.922   5.719  12.332  0.2806 -1.6579  0.6661
 8613TIP3   OH247253   4.405   4.605  13.377  0.0540  0.2538  0.1932
 8613TIP3    H147254   4.449   4.555  13.446 -0.6857 -1.2766 -0.4280
 8613TIP3    H247255   4.476   4.628  13.316  0.1023 -1.9738 -0.6662
 8614TIP3   OH247256   4.695   5.908  14.276 -0.4516 -0.3591  0.3550
 8614TIP3    H147257   4.715   5.933  14.366  0.6101 -0.8307  0.2567
 8614TIP3    H247258   4.771   5.938  14.225 -0.5991 -0.9819 -0.2357
 8615TIP3   OH247259   3.039   4.529  11.628  0.1295 -0.3818 -0.1713
 8615TIP3    H147260   3.125   4.513  11.590 -0.4421 -1.6388 -0.9433
 8615TIP3    H247261   2.988   4.569  11.557 -0.3935 -1.0850 -0.2018
 8616TIP3   OH247262   1.895   6.494  15.372 -0.0627  0.0540  0.2649
 8616TIP3    H147263   1.920   6.418  15.424 -0.2895  0.6270  1.2427
 8616TIP3    H247264   1.938   6.481  15.288  0.4884 -0.7973  0.6682
 8617TIP3   OH247265   6.887   3.150  11.485  0.1284 -0.2040 -0.4248
 8617TIP3    H147266   6.811   3.107  11.445  0.4261  0.6297 -1.9109
 8617TIP3    H247267   6.958   3.138  11.423  1.3778 -1.3956  1.1824
 8618TIP3   OH247268   0.643   4.079  13.348 -0.4352  0.1419 -1.4816
 8618TIP3    H147269   0.717   4.134  13.322 -0.2160  0.4170 -0.2877
 8618TIP3    H247270   0.669   4.043  13.433 -0.8303 -1.3252 -1.9516
 8619TIP3   OH247271   1.986   6.167   0.663 -0.0332 -0.4989 -0.0451
 8619TIP3    H147272   1.957   6.154   0.753  0.6496  0.8535  0.3819
 8619TIP3    H247273   2.038   6.089   0.643 -1.4589 -1.5385  0.1851
 8620TIP3   OH247274   5.100   5.143  11.572  0.1324 -0.5887  0.1586
 8620TIP3    H147275   5.167   5.090  11.528  1.1141  0.3351  0.5327
 8620TIP3    H247276   5.122   5.233  11.550 -0.5595 -0.2356  0.8946
 8621TIP3   OH247277   3.227   7.149   1.766  0.0039  0.1633 -0.3141
 8621TIP3    H147278   3.197   7.233   1.731  0.4666  0.5215  0.1367
 8621TIP3    H247279   3.148   7.093   1.766 -0.6742  1.0857  0.8502
 8622TIP3   OH247280   4.104   3.294  14.926  0.2562 -0.0727 -0.9334
 8622TIP3    H147281   4.041   3.364  14.910 -2.0367 -1.6838  0.6735
 8622TIP3    H247282   4.124   3.301  15.019 -0.4703 -1.8812 -0.6235
 8623TIP3   OH247283   5.657   3.141  12.534 -0.1728 -0.4301 -0.1673
 8623TIP3    H147284   5.616   3.060  12.504  0.7052 -0.4658 -1.2846
 8623TIP3    H247285   5.750   3.129  12.516  0.0940  0.4199  0.6118
 8624TIP3   OH247286   6.041   5.226   0.775  0.4181  0.4427  0.7419
 8624TIP3    H147287   6.031   5.306   0.826 -0.2195  1.0503 -0.3140
 8624TIP3    H247288   6.126   5.235   0.732  0.5819  0.3112  1.0388
 8625TIP3   OH247289   4.100   5.303  12.757 -0.3182 -0.2788 -0.0121
 8625TIP3    H147290   4.181   5.256  12.779 -0.9820 -1.4574 -0.0217
 8625TIP3    H247291   4.107   5.320  12.663 -0.1031 -0.4312 -0.0235
 8626TIP3   OH247292   4.308   1.685  15.539  0.4710  0.2206  0.5069
 8626TIP3    H147293   4.329   1.592  15.545 -0.5656 -0.0799 -0.2574
 8626TIP3    H247294   4.392   1.729  15.537  1.1207 -0.9722 -2.9151
 8627TIP3   OH247295   3.569   3.261  14.257 -0.3418  0.7408  0.3479
 8627TIP3    H147296   3.653   3.221  14.280 -1.2982 -1.5672 -0.0273
 8627TIP3    H247297   3.535   3.294  14.340  1.5234  2.9354  0.2916
 8628TIP3   OH247298   6.702   3.026  14.414 -0.3755  0.0760 -0.1711
 8628TIP3    H147299   6.737   3.071  14.337  0.9160 -1.0460 -0.2563
 8628TIP3    H247300   6.706   3.092  14.484 -0.0101  0.6013 -0.6794
 8629TIP3   OH247301   3.804   3.117   1.425  0.2284  0.2151  0.9154
 8629TIP3    H147302   3.721   3.159   1.450 -0.8287 -1.2801 -0.0248
 8629TIP3    H247303   3.859   3.127   1.503 -0.8635  1.1126  1.6003
 8630TIP3   OH247304   4.205   4.035   0.002  0.5103  0.0387 -0.0427
 8630TIP3    H147305   4.287   4.064   0.042  1.2571  0.7772 -2.0698
 8630TIP3    H247306   4.202   4.081  -0.082  0.2894 -3.4863 -2.0402
 8631TIP3   OH247307   3.426   3.015  14.937  0.0920  0.4309  0.1334
 8631TIP3    H147308   3.382   2.931  14.921 -0.1573  0.9898 -2.3222
 8631TIP3    H247309   3.519   2.995  14.932  0.0291  0.4224 -1.3043
 8632TIP3   OH247310   1.061   1.268  14.460 -0.2745 -0.1884 -0.4799
 8632TIP3    H147311   1.011   1.349  14.454  0.3856  0.3547  1.1799
 8632TIP3    H247312   1.141   1.292  14.506 -0.5010 -1.9602  0.9124
 8633TIP3   OH247313   1.749   4.574  13.302 -0.1817 -0.4497  0.2024
 8633TIP3    H147314   1.821   4.519  13.269  0.6477  0.4580  0.4746
 8633TIP3    H247315   1.782   4.610  13.384 -0.9994 -0.1326  0.3941
 8634TIP3   OH247316   2.271   6.167  13.412 -1.2171 -0.4140 -0.8809
 8634TIP3    H147317   2.179   6.194  13.421 -1.4027 -1.5475  0.7572
 8634TIP3    H247318   2.280   6.091  13.470  0.9468  0.1226 -0.4715
 8635TIP3   OH247319   3.440   3.945  11.638 -0.2195  0.0241 -0.4227
 8635TIP3    H147320   3.522   3.900  11.621  1.2205  1.1124  3.1817
 8635TIP3    H247321   3.380   3.877  11.668  0.8423 -0.1285  1.4566
 8636TIP3   OH247322   0.360   1.568  12.137 -0.5559  0.5726 -0.0148
 8636TIP3    H147323   0.428   1.552  12.072 -0.3299 -1.2587  0.6344
 8636TIP3    H247324   0.280   1.579  12.086 -0.5162 -1.6245 -0.5722
 8637TIP3   OH247325   0.357   6.701  14.455 -0.0037 -0.3041  0.8401
 8637TIP3    H147326   0.439   6.745  14.477 -0.7992  0.2822  2.8149
 8637TIP3    H247327   0.382   6.629  14.398  1.7815  0.3911  0.7352
 8638TIP3   OH247328   7.107   5.136  11.786 -0.8488  0.2739  0.0817
 8638TIP3    H147329   7.167   5.158  11.715 -0.4761  0.6492  0.5151
 8638TIP3    H247330   7.103   5.214  11.840 -0.6681 -0.2169  0.8083
 8639TIP3   OH247331   0.836   3.094  13.523  0.1344  0.0723  0.1290
 8639TIP3    H147332   0.815   3.067  13.434 -0.3891  2.0336 -0.3543
 8639TIP3    H247333   0.872   3.182  13.514  0.8826 -0.0498  1.7678
 8640TIP3   OH247334   5.640   3.345  14.778  0.0214 -0.0429 -0.2302
 8640TIP3    H147335   5.630   3.251  14.792  0.4706 -0.3320 -1.8062
 8640TIP3    H247336   5.582   3.365  14.704  1.0189  0.6432 -0.8363
 8641TIP3   OH247337   0.308   0.434  10.993  0.3456  0.0280  0.4123
 8641TIP3    H147338   0.215   0.419  11.008  0.3790 -0.3062  0.2916
 8641TIP3    H247339   0.339   0.354  10.951  1.1074 -0.6968  2.2688
 8642TIP3   OH247340   2.707   2.601  12.028 -0.2476 -0.2116  0.3680
 8642TIP3    H147341   2.802   2.612  12.038 -0.2920  0.8055 -0.2878
 8642TIP3    H247342   2.669   2.668  12.085 -0.5735 -0.3417  0.3025
 8643TIP3   OH247343   3.817   5.988  11.717  0.0079  0.1966 -0.0409
 8643TIP3    H147344   3.851   5.965  11.631 -0.0023  0.3918 -0.0969
 8643TIP3    H247345   3.846   6.079  11.731  1.5429 -0.4036  0.9048
 8644TIP3   OH247346   6.267   2.710   0.774  0.2312 -0.6092 -0.2544
 8644TIP3    H147347   6.265   2.805   0.762  0.9594 -0.4941  0.4861
 8644TIP3    H247348   6.246   2.696   0.866  1.5474 -1.0694 -0.0028
 8645TIP3   OH247349   0.680   5.713  14.534 -0.3292 -0.0629 -0.5992
 8645TIP3    H147350   0.769   5.680  14.541  0.5492  2.4345  1.0255
 8645TIP3    H247351   0.679   5.789  14.593 -2.8229  1.4042 -2.4624
 8646TIP3   OH247352   0.552   3.988  14.848  0.3217 -0.1195  0.2295
 8646TIP3    H147353   0.504   4.027  14.921 -1.4507  1.6196 -1.8311
 8646TIP3    H247354   0.521   3.897  14.845 -2.2230  0.7317 -0.5005
 8647TIP3   OH247355   4.002   5.292  14.963  0.3264  0.0134  0.0309
 8647TIP3    H147356   4.048   5.217  15.002 -0.3064 -0.7779 -0.7127
 8647TIP3    H247357   4.071   5.357  14.949  1.2895 -1.2193 -1.2140
 8648TIP3   OH247358   5.229   2.130  12.527 -0.5617 -1.2229 -0.4466
 8648TIP3    H147359   5.228   2.176  12.443 -1.5489  0.7931  0.6442
 8648TIP3    H247360   5.321   2.124  12.550 -0.4691  1.7780  0.2021
 8649TIP3   OH247361   2.023   3.975  12.753 -0.1602 -0.0850 -0.0555
 8649TIP3    H147362   1.957   3.958  12.821 -1.2074  1.8893 -0.5501
 8649TIP3    H247363   1.972   3.998  12.675  1.0870  0.0554 -0.8447
 8650TIP3   OH247364   4.615   2.686  15.110 -0.3418  0.0350 -0.1516
 8650TIP3    H147365   4.671   2.762  15.090 -1.6095  0.7298 -1.1442
 8650TIP3    H247366   4.603   2.643  15.026 -2.6980  0.8680 -0.2658
 8651TIP3   OH247367   4.648   4.829  13.886  0.4415  0.3929 -0.0652
 8651TIP3    H147368   4.708   4.815  13.959  0.5807  0.3651 -0.1846
 8651TIP3    H247369   4.579   4.763  13.898  1.2845 -0.6357 -0.8365
 8652TIP3   OH247370   0.418   3.538  12.960 -0.0688 -0.4571  0.2301
 8652TIP3    H147371   0.417   3.484  12.880 -1.6583 -1.0168  0.6054
 8652TIP3    H247372   0.360   3.611  12.940  0.5095  0.0592  0.4378
 8653TIP3   OH247373   5.115   4.984  14.394  0.3966 -1.1921  0.6127
 8653TIP3    H147374   5.140   4.911  14.451  0.8241 -2.4869 -1.1924
 8653TIP3    H247375   5.022   4.970  14.377  0.2649 -0.7951  0.9951
 8654TIP3   OH247376   4.885   3.494  14.394  0.0633  0.1178  0.4955
 8654TIP3    H147377   4.829   3.417  14.400  0.7695 -0.4700 -0.4445
 8654TIP3    H247378   4.941   3.478  14.318 -0.9260  2.2950 -0.7725
 8655TIP3   OH247379   1.196   0.731   1.198 -0.3454 -0.1913  0.0375
 8655TIP3    H147380   1.263   0.683   1.150  0.9454  0.3631  1.2821
 8655TIP3    H247381   1.196   0.693   1.286 -1.4197  0.0494  0.1589
 8656TIP3   OH247382   0.821   4.152   1.543  0.1176  0.3687  0.1516
 8656TIP3    H147383   0.877   4.203   1.484  1.5162 -0.5645  0.6345
 8656TIP3    H247384   0.755   4.113   1.485  1.0540  0.0341 -0.7072
 8657TIP3   OH247385   4.848   6.597  13.691 -0.8199  0.0742  0.0229
 8657TIP3    H147386   4.760   6.577  13.722  0.0173  1.1470  3.2753
 8657TIP3    H247387   4.871   6.679  13.734  1.2286  0.5960 -1.9253
 8658TIP3   OH247388   6.503   0.708  12.613 -0.0982 -0.6993 -0.2839
 8658TIP3    H147389   6.478   0.618  12.635 -2.7546  0.3191  0.9568
 8658TIP3    H247390   6.504   0.710  12.517 -2.3685 -1.4317 -0.3366
 8659TIP3   OH247391   2.605   6.990  13.624 -0.8653  0.6092  0.1160
 8659TIP3    H147392   2.680   6.992  13.684  0.5507 -1.2262 -1.5323
 8659TIP3    H247393   2.614   7.070  13.573 -0.0961  0.4520  0.0020
 8660TIP3   OH247394   6.265   2.815  14.434 -0.1986 -0.5524  0.0228
 8660TIP3    H147395   6.243   2.817  14.341 -1.1427 -0.1479  0.2560
 8660TIP3    H247396   6.192   2.771  14.476 -1.2145  1.9416  0.9574
 8661TIP3   OH247397   3.522   5.266  14.048  0.9974 -0.0235 -0.0121
 8661TIP3    H147398   3.616   5.259  14.063  1.1251  0.2072 -0.6993
 8661TIP3    H247399   3.491   5.327  14.116  1.4534  0.4555 -0.2327
 8662TIP3   OH247400   3.729   5.622  11.094  0.2463 -0.3272  0.7513
 8662TIP3    H147401   3.733   5.539  11.141 -1.0212  0.5703  2.4975
 8662TIP3    H247402   3.812   5.627  11.047  1.5749 -1.2394  2.9516
 8663TIP3   OH247403   4.154   6.388   2.476  0.1761  0.6376 -0.0334
 8663TIP3    H147404   4.248   6.374   2.489  1.0718  2.6111 -3.9384
 8663TIP3    H247405   4.128   6.444   2.549  2.7015  2.5466 -0.5329
 8664TIP3   OH247406   4.910   5.547   0.955  0.1024  0.1294  0.6543
 8664TIP3    H147407   4.971   5.621   0.958  1.9010 -1.3640  1.4172
 8664TIP3    H247408   4.939   5.494   0.881 -0.6987 -0.2318  0.5897
 8665TIP3   OH247409   6.801   0.248  15.492  0.1816  0.6905  0.4407
 8665TIP3    H147410   6.727   0.196  15.523  1.3006 -0.1881  1.7071
 8665TIP3    H247411   6.793   0.331  15.539  0.8531  0.0221  1.7767
 8666TIP3   OH247412   5.243   1.306  14.651  0.1479  0.2718 -0.3028
 8666TIP3    H147413   5.221   1.288  14.560  3.0256  1.5976 -1.3056
 8666TIP3    H247414   5.332   1.340  14.649  0.3328  0.2234  3.0280
 8667TIP3   OH247415   3.591   2.290   1.445  0.1020 -0.1815 -0.2301
 8667TIP3    H147416   3.562   2.379   1.463  0.0618 -0.3217  0.4326
 8667TIP3    H247417   3.603   2.286   1.350 -1.4310  0.0544 -0.4356
 8668TIP3   OH247418   2.996   3.884  14.971  0.0240  0.4566 -0.5641
 8668TIP3    H147419   3.063   3.875  14.903  1.8515  3.1419  0.8011
 8668TIP3    H247420   3.041   3.858  15.052 -1.1156  0.6089  0.1235
 8669TIP3   OH247421   4.660   3.663  12.772 -0.3964 -0.1305 -0.1710
 8669TIP3    H147422   4.625   3.579  12.740  0.0580  0.0567 -1.1753
 8669TIP3    H247423   4.735   3.638  12.826  0.2822 -0.3215 -1.2047
 8670TIP3   OH247424   2.793   4.984   0.637 -0.4022  0.0404 -0.2041
 8670TIP3    H147425   2.802   5.076   0.660  1.1446 -0.0404 -0.4402
 8670TIP3    H247426   2.871   4.964   0.585 -1.9001 -0.7906 -2.2024
 8671TIP3   OH247427   6.761   3.741  12.795  0.2159 -0.4656 -0.7336
 8671TIP3    H147428   6.815   3.747  12.716  0.8994 -1.6881 -0.3767
 8671TIP3    H247429   6.773   3.651  12.825 -0.6634 -0.2345  0.3197
 8672TIP3   OH247430   0.152   2.185  11.706 -0.5461 -0.4975 -0.2397
 8672TIP3    H147431   0.161   2.095  11.674  0.0394 -0.3579 -0.4772
 8672TIP3    H247432   0.226   2.196  11.766  0.0665  0.2062 -1.1201
 8673TIP3   OH247433   3.840   4.036  10.658 -0.6681  0.0855  0.3086
 8673TIP3    H147434   3.920   4.080  10.684  0.0095 -0.6783 -0.4727
 8673TIP3    H247435   3.839   3.954  10.708 -1.4553  0.5280  1.0465
 8674TIP3   OH247436   1.181   4.737  15.180  0.7005  0.2775 -0.5484
 8674TIP3    H147437   1.191   4.756  15.273  1.8154  1.3086 -0.8645
 8674TIP3    H247438   1.195   4.643  15.173 -0.2821  0.0443  0.4333
 8675TIP3   OH247439   0.232   5.474   0.656  0.2495 -0.1142  0.6069
 8675TIP3    H147440   0.192   5.550   0.699  0.9868  0.1376  0.8519
 8675TIP3    H247441   0.320   5.469   0.693  0.5369 -0.5161 -0.1207
 8676TIP3   OH247442   7.006   2.839  12.176  0.1935 -0.1336  0.1879
 8676TIP3    H147443   6.994   2.795  12.092 -0.8965  1.2438 -0.3874
 8676TIP3    H247444   7.027   2.768  12.237  0.0765 -1.2542 -1.0552
 8677TIP3   OH247445   6.493   2.948  12.008  0.3704 -0.3260  0.4542
 8677TIP3    H147446   6.432   2.987  12.071  1.2556 -2.5596  2.7823
 8677TIP3    H247447   6.438   2.894  11.952 -0.3923  1.4467 -0.5339
 8678TIP3   OH247448   4.093   0.207  14.596 -0.2867  0.1869  0.6061
 8678TIP3    H147449   4.140   0.287  14.620 -1.5759  1.0226  0.3897
 8678TIP3    H247450   4.119   0.143  14.662  0.9477  0.7121  0.6338
 8679TIP3   OH247451   3.889   3.598  13.190  0.3538 -0.3880  0.0674
 8679TIP3    H147452   3.861   3.555  13.108  1.2942  0.1756 -0.5534
 8679TIP3    H247453   3.928   3.528  13.242  0.4437 -0.6021 -0.2847
 8680TIP3   OH247454   6.186   4.257  13.156 -0.0861  0.6640 -0.3518
 8680TIP3    H147455   6.166   4.198  13.228  0.4327 -0.6871 -1.2921
 8680TIP3    H247456   6.103   4.299  13.135 -0.7088 -0.5569 -0.3823
 8681TIP3   OH247457   3.103   2.352   1.528 -0.3749 -0.1381  0.1532
 8681TIP3    H147458   3.113   2.263   1.494 -0.4210  0.5485 -1.7641
 8681TIP3    H247459   3.039   2.344   1.599  1.1001 -1.9210  1.3254
 8682TIP3   OH247460   3.037   5.724  11.089  0.1666  0.0228 -0.5282
 8682TIP3    H147461   3.058   5.768  11.172  1.3150 -1.0457 -0.2304
 8682TIP3    H247462   2.942   5.721  11.087  0.0464  2.5521 -0.5777
 8683TIP3   OH247463   4.263   0.925  11.896 -0.2441  0.1943  0.2031
 8683TIP3    H147464   4.247   0.859  11.964  1.1857 -1.6371 -1.1999
 8683TIP3    H247465   4.205   0.998  11.920  0.3335 -0.3410  3.4466
 8684TIP3   OH247466   1.200   3.465  15.244 -0.1294 -0.0136  0.0493
 8684TIP3    H147467   1.123   3.441  15.295 -0.0733 -0.6978 -0.1784
 8684TIP3    H247468   1.209   3.559  15.257 -0.3597 -0.1143  0.9566
 8685TIP3   OH247469   5.232   2.603  15.174  0.7068 -0.3748  0.2166
 8685TIP3    H147470   5.176   2.581  15.248  0.3373  0.5471  0.2130
 8685TIP3    H247471   5.247   2.520  15.130  0.8096 -0.9075  1.2394
 8686TIP3   OH247472   5.622   2.494   4.249 -0.2555  0.4671 -0.0314
 8686TIP3    H147473   5.634   2.404   4.217 -0.7885  0.5628 -0.5259
 8686TIP3    H247474   5.552   2.529   4.193  0.8127  1.6064 -0.6753
 8687TIP3   OH247475   0.163   5.273  10.704 -0.3709  0.4814 -0.0820
 8687TIP3    H147476   0.229   5.266  10.773 -0.4177  0.7422 -0.0108
 8687TIP3    H247477   0.127   5.361  10.714  2.2123  1.9519 -2.7366
 8688TIP3   OH247478   2.038   4.239   1.916  0.5616  0.3466  0.1783
 8688TIP3    H147479   2.005   4.304   1.853 -1.0021 -1.3158 -0.7629
 8688TIP3    H247480   2.100   4.288   1.969 -1.5265  2.9885  0.3431
 8689TIP3   OH247481   2.597   1.624   3.147  0.2460  0.2687 -0.0131
 8689TIP3    H147482   2.523   1.588   3.197  0.1343 -0.1267 -0.4653
 8689TIP3    H247483   2.625   1.552   3.090  1.2367  0.2906  0.4415
 8690TIP3   OH247484   4.318   6.020   0.797  0.6217 -0.2735 -0.0154
 8690TIP3    H147485   4.287   5.929   0.791  2.1370 -0.8205  0.1048
 8690TIP3    H247486   4.391   6.024   0.734  1.3842  0.5040  0.9063
 8691TIP3   OH247487   3.708   3.644   0.057 -0.3038 -0.1958  0.6739
 8691TIP3    H147488   3.719   3.670   0.149 -1.4379 -1.3909  1.1708
 8691TIP3    H247489   3.793   3.662   0.017 -0.1317  1.3430  1.7034
 8692TIP3   OH247490   0.236   6.063   1.200  0.2989 -0.1757  0.1370
 8692TIP3    H147491   0.212   6.028   1.114 -0.8496  0.6527  0.1173
 8692TIP3    H247492   0.189   6.009   1.262  0.2347 -0.0463  0.2008
 8693TIP3   OH247493   7.138   1.023   9.815  0.2215 -0.3369  0.1668
 8693TIP3    H147494   7.050   1.002   9.845  0.4948  0.5685  1.6675
 8693TIP3    H247495   7.173   0.940   9.784 -0.6834 -0.9773  0.8291
 8694TIP3   OH247496   6.025   6.001  12.317  0.3305 -0.1875  0.0222
 8694TIP3    H147497   6.067   6.086  12.326 -1.6474  1.2312 -3.4617
 8694TIP3    H247498   6.068   5.961  12.241 -0.7372 -1.0863 -0.1175
 8695TIP3   OH247499   3.897   6.818  12.138 -0.0731 -0.0939 -0.2616
 8695TIP3    H147500   3.973   6.852  12.091  0.8150 -1.0441  0.4555
 8695TIP3    H247501   3.823   6.832  12.078  0.5743  1.2843 -0.7640
 8696TIP3   OH247502   6.436   4.870  13.199  0.0304  0.1808 -0.4559
 8696TIP3    H147503   6.420   4.934  13.130  1.9249  0.6909 -0.4337
 8696TIP3    H247504   6.365   4.806  13.190 -0.9300  1.3890 -1.5219
 8697TIP3   OH247505   0.237   5.507   1.039 -0.1017  0.0792 -0.3904
 8697TIP3    H147506   0.147   5.518   1.008  0.0794 -0.3721 -1.0865
 8697TIP3    H247507   0.291   5.544   0.969  0.2060  1.7667  0.7072
 8698TIP3   OH247508   1.076   0.479  13.772  0.4017  0.4828 -0.1531
 8698TIP3    H147509   1.090   0.466  13.866 -1.7144 -0.3609  0.0784
 8698TIP3    H247510   1.001   0.538  13.767  0.1732  0.1065 -1.3153
 8699TIP3   OH247511   0.059   4.806  14.864  0.4403 -0.4441  0.3689
 8699TIP3    H147512   0.111   4.732  14.834  0.4078  0.1184 -1.0938
 8699TIP3    H247513  -0.024   4.767  14.893  1.0760 -1.1641  1.2648
 8700TIP3   OH247514   5.988   5.408  10.892  0.0702 -0.5339 -0.2587
 8700TIP3    H147515   5.954   5.491  10.859 -3.0563 -0.9478  1.7316
 8700TIP3    H247516   5.962   5.343  10.827 -0.5973 -0.4694 -0.0509
 8701TIP3   OH247517   7.008   6.662  12.885 -0.4336  0.1251 -0.0986
 8701TIP3    H147518   7.101   6.653  12.906 -0.6931 -0.0813  1.0138
 8701TIP3    H247519   6.989   6.754  12.900 -0.2743  0.2920 -0.9068
 8702TIP3   OH247520   3.809   6.466   0.016 -0.3531  0.5751  0.5676
 8702TIP3    H147521   3.833   6.516  -0.062 -0.7741 -1.3556 -0.8439
 8702TIP3    H247522   3.722   6.498   0.039 -1.4905 -0.8837 -1.5459
 8703TIP3   OH247523   2.829   0.773   9.864  0.2827  0.4861 -0.2257
 8703TIP3    H147524   2.772   0.812   9.930  0.6138  1.4444 -0.5003
 8703TIP3    H247525   2.909   0.751   9.912 -0.4057 -1.1141  0.2209
 8704TIP3   OH247526   6.186   5.258   2.329  0.0762 -0.2339 -0.3759
 8704TIP3    H147527   6.135   5.183   2.359  1.1732  0.0916  2.4573
 8704TIP3    H247528   6.274   5.243   2.365  0.4561  2.0979 -0.2857
 8705TIP3   OH247529   4.058   4.435  11.272  0.0579 -0.1815 -0.1118
 8705TIP3    H147530   4.112   4.507  11.303 -1.2260  0.4703  0.6590
 8705TIP3    H247531   4.059   4.444  11.176  1.1527 -0.0721 -0.0960
 8706TIP3   OH247532   4.981   7.073  13.188  0.3996  0.1601  0.4447
 8706TIP3    H147533   4.897   7.027  13.183 -1.4577  3.3179  0.8213
 8706TIP3    H247534   5.015   7.071  13.099 -1.4235  1.1182 -0.3160
 8707TIP3   OH247535   0.554   6.190  14.803  0.1131 -0.8509  0.2672
 8707TIP3    H147536   0.509   6.223  14.881 -0.9133 -2.3136  0.3164
 8707TIP3    H247537   0.540   6.095  14.805 -0.2269 -0.8822 -1.8505
 8708TIP3   OH247538   0.789   2.767  11.831  0.1088  0.4625 -0.2391
 8708TIP3    H147539   0.719   2.718  11.787  1.2647 -1.6489  0.2050
 8708TIP3    H247540   0.768   2.859  11.814 -2.0711 -0.1700 -1.1764
 8709TIP3   OH247541   4.656   2.092  14.907  0.4673  0.2014  0.5746
 8709TIP3    H147542   4.619   2.004  14.917  1.4308 -0.4042 -0.9312
 8709TIP3    H247543   4.744   2.084  14.942  1.4066 -0.1063 -1.7342
 8710TIP3   OH247544   5.655   5.299  13.317 -0.1895  0.3521  0.0602
 8710TIP3    H147545   5.666   5.222  13.374  0.3875  0.7067  0.4400
 8710TIP3    H247546   5.720   5.362  13.350 -0.4882  0.9064 -0.4086
 8711TIP3   OH247547   3.658   5.896  14.005  0.0476  0.3794 -0.1484
 8711TIP3    H147548   3.594   5.952  14.050  0.9530  0.3265  1.2393
 8711TIP3    H247549   3.733   5.892  14.065  0.9262 -0.4353 -1.2715
 8712TIP3   OH247550   0.989   1.938  12.677 -0.9102  0.1860  0.2734
 8712TIP3    H147551   0.992   1.933  12.772  0.5099  0.3319  0.2436
 8712TIP3    H247552   1.005   2.031  12.658  1.4558 -0.3012 -0.1942
 8713TIP3   OH247553   7.065   1.176  12.240 -0.3219  0.1255 -0.4613
 8713TIP3    H147554   7.017   1.093  12.236  0.5799 -0.3412 -1.5238
 8713TIP3    H247555   7.102   1.187  12.153 -1.1117  2.0561 -0.5717
 8714TIP3   OH247556   1.060   6.239  14.726 -0.4679  0.1888 -0.2946
 8714TIP3    H147557   0.984   6.193  14.761 -0.1458 -0.9558 -1.0963
 8714TIP3    H247558   1.029   6.328  14.710 -0.6620  0.7531  2.8010
 8715TIP3   OH247559   6.637   2.082  13.471 -0.0314 -0.3286 -0.0904
 8715TIP3    H147560   6.692   2.021  13.421  0.4154 -1.0554  1.2649
 8715TIP3    H247561   6.550   2.043  13.469  0.1523 -0.7656  0.3643
 8716TIP3   OH247562   4.353   2.708  11.402 -0.1988  0.1221 -0.0304
 8716TIP3    H147563   4.282   2.749  11.452 -2.9396 -1.3720 -2.5717
 8716TIP3    H247564   4.369   2.767  11.329 -0.5165 -0.6848 -0.7711
 8717TIP3   OH247565   6.790   6.401  15.077  0.1293 -0.5860  0.2399
 8717TIP3    H147566   6.700   6.428  15.097  0.6814  1.6461 -0.0751
 8717TIP3    H247567   6.833   6.396  15.162  0.3050  0.6812  0.2376
 8718TIP3   OH247568   6.048   5.374  15.547  0.0650  0.1252  0.0297
 8718TIP3    H147569   6.138   5.350  15.525  0.7011  2.1276  0.3086
 8718TIP3    H247570   6.045   5.367  15.643  0.5550  2.0455  0.2055
 8719TIP3   OH247571   1.121   4.905   0.910 -0.1498 -0.1320 -0.2326
 8719TIP3    H147572   1.103   4.986   0.959 -1.1526 -0.5526  0.1051
 8719TIP3    H247573   1.137   4.839   0.978 -0.2175 -0.4195 -0.4960
 8720TIP3   OH247574   5.078   1.176  15.420 -0.2193 -0.1873  0.1932
 8720TIP3    H147575   5.034   1.192  15.337 -0.5266  0.4876  0.4881
 8720TIP3    H247576   5.120   1.091  15.408  0.2637  0.1854 -0.8806
 8721TIP3   OH247577   4.560   4.634  11.262 -0.0415  0.0620  0.1403
 8721TIP3    H147578   4.560   4.721  11.221 -0.3556 -0.4502 -0.9810
 8721TIP3    H247579   4.583   4.574  11.191  1.2835 -0.6682  1.1535
 8722TIP3   OH247580   5.680   5.175  12.979 -0.1697 -0.1518 -0.3199
 8722TIP3    H147581   5.686   5.102  13.040 -1.7234 -0.2787 -0.2865
 8722TIP3    H247582   5.771   5.200  12.961  0.3153 -0.8152  1.1889
 8723TIP3   OH247583   0.158   5.177   1.646 -0.3696  0.0349 -0.0473
 8723TIP3    H147584   0.124   5.092   1.619 -1.6327 -0.4451  2.8940
 8723TIP3    H247585   0.244   5.157   1.684 -0.1766  0.2306 -0.3777
 8724TIP3   OH247586   1.580   6.245  12.383 -0.3477 -0.9133 -0.0481
 8724TIP3    H147587   1.550   6.178  12.445  0.1233 -0.2837  0.8733
 8724TIP3    H247588   1.590   6.324  12.436 -0.2414 -0.2776 -0.9941
 8725TIP3   OH247589   0.883   0.104  15.313 -0.2631 -0.3499 -0.0008
 8725TIP3    H147590   0.899   0.107  15.407 -0.2026 -0.7639  0.0025
 8725TIP3    H247591   0.846   0.190  15.292  4.1948  1.6311 -0.4214
 8726TIP3   OH247592   2.996   5.940   2.327 -0.4413 -0.3546  0.3544
 8726TIP3    H147593   2.938   5.875   2.288 -0.3061 -0.2420 -0.0440
 8726TIP3    H247594   2.996   6.012   2.264  0.4723 -0.5403  0.1305
 8727TIP3   OH247595   7.091   4.843  13.768  0.2754 -0.3509 -0.1618
 8727TIP3    H147596   7.185   4.843  13.752  0.2635  0.4097 -0.2509
 8727TIP3    H247597   7.080   4.789  13.846  0.5643 -2.1621 -1.3571
 8728TIP3   OH247598   0.458   4.018   0.070  0.3169  0.3287  0.3502
 8728TIP3    H147599   0.376   3.969   0.063  0.6155 -0.2805  1.1219
 8728TIP3    H247600   0.504   3.999  -0.012 -0.2620  0.5947 -0.0435
 8729TIP3   OH247601   5.917   5.243  11.101 -0.2293  0.2623  0.0387
 8729TIP3    H147602   6.002   5.211  11.132 -1.2403 -2.0592  0.5014
 8729TIP3    H247603   5.938   5.296  11.024  1.5389 -1.2586 -0.5516
 8730TIP3   OH247604   3.474   0.215  11.877  0.2611  0.5090  0.6231
 8730TIP3    H147605   3.551   0.271  11.883 -0.5184  1.8783 -1.4791
 8730TIP3    H247606   3.454   0.212  11.783 -1.6136 -0.6797  1.0377
 8731TIP3   OH247607   5.249   4.524  13.297  0.2625  0.2458 -0.3452
 8731TIP3    H147608   5.226   4.513  13.205  0.6721 -0.0845 -0.4079
 8731TIP3    H247609   5.188   4.590  13.329 -0.0347  0.1909 -0.7963
 8732TIP3   OH247610   0.925   4.142  13.267 -0.0505  0.2029  0.2633
 8732TIP3    H147611   0.989   4.133  13.338  0.0279  3.9429  0.7849
 8732TIP3    H247612   0.978   4.149  13.188  0.1575  1.6265  0.5090
 8733TIP3   OH247613   3.069   4.753  14.833 -0.8394  0.4563 -0.4150
 8733TIP3    H147614   3.041   4.669  14.796 -1.3035  0.2416  0.3955
 8733TIP3    H247615   2.987   4.799  14.850 -0.6347  0.5284  0.3858
 8734TIP3   OH247616   3.899   5.307   1.263  0.5447  0.3248 -0.1785
 8734TIP3    H147617   3.854   5.229   1.231  0.1612  0.3468  0.2999
 8734TIP3    H247618   3.910   5.362   1.186  1.9098 -0.7283 -0.7691
 8735TIP3   OH247619   4.011   6.235  10.632  0.1628  0.1388 -0.3067
 8735TIP3    H147620   3.930   6.192  10.659 -0.2088  1.6153  0.9887
 8735TIP3    H247621   3.986   6.290  10.558  0.1371  0.0315 -0.3775
 8736TIP3   OH247622   0.372   0.797  14.901 -0.0047  0.2816 -0.7457
 8736TIP3    H147623   0.308   0.745  14.950  1.7731 -2.2591 -1.0452
 8736TIP3    H247624   0.452   0.792  14.954  0.8661  0.6704 -1.9999
 8737TIP3   OH247625   2.037   0.472  13.729 -0.0309  0.0320 -0.1286
 8737TIP3    H147626   2.120   0.508  13.759 -0.6713 -0.6009  2.5432
 8737TIP3    H247627   2.045   0.378  13.741 -1.4734  0.0411  1.1970
 8738TIP3   OH247628   0.555   0.086  13.429  0.2921 -0.7777  0.3046
 8738TIP3    H147629   0.641   0.120  13.453 -0.3224  1.0883 -0.0965
 8738TIP3    H247630   0.536   0.127  13.345  0.0241 -3.0095 -0.7509
 8739TIP3   OH247631   3.801   4.969  12.853 -0.4706 -0.0874 -0.0256
 8739TIP3    H147632   3.843   5.054  12.865  0.3832  0.0310 -3.2417
 8739TIP3    H247633   3.708   4.989  12.848 -0.3584  0.5343  0.3376
 8740TIP3   OH247634   0.522   2.316  14.206 -0.1010 -0.9979 -0.0767
 8740TIP3    H147635   0.473   2.397  14.219 -3.0327 -2.9380  1.5535
 8740TIP3    H247636   0.608   2.333  14.244 -0.0354  1.9062 -1.4102
 8741TIP3   OH247637   4.248   4.770   1.535  0.0055 -0.2110  0.5607
 8741TIP3    H147638   4.183   4.742   1.471 -1.1230  0.0182  1.5691
 8741TIP3    H247639   4.198   4.782   1.616  0.9992  1.6688  0.9281
 8742TIP3   OH247640   0.885   4.099  10.368 -0.1462  0.0374 -0.1529
 8742TIP3    H147641   0.796   4.123  10.340  0.2988  1.4518 -0.3922
 8742TIP3    H247642   0.882   4.102  10.463  0.2960  2.5765 -0.1980
 8743TIP3   OH247643   6.768   5.197  14.154 -0.1040  0.8096 -0.0340
 8743TIP3    H147644   6.853   5.163  14.125 -0.0514 -1.0478  2.1232
 8743TIP3    H247645   6.769   5.289  14.129  1.4832  0.2187 -2.3471
 8744TIP3   OH247646   4.908   5.072  13.892 -0.2589  0.1858  0.1631
 8744TIP3    H147647   4.891   5.057  13.985  0.6644 -0.6830  0.2014
 8744TIP3    H247648   4.925   4.984  13.857 -0.2932  0.5461 -0.7626
 8745TIP3   OH247649   0.045   5.325   0.530 -0.3431 -0.2740 -0.5681
 8745TIP3    H147650   0.117   5.379   0.562 -1.3094  1.4844 -1.2637
 8745TIP3    H247651   0.087   5.254   0.481  0.8946  1.7175 -2.5089
 8746TIP3   OH247652   2.896   3.459  12.047  0.2647 -0.2625  0.1254
 8746TIP3    H147653   2.945   3.397  11.993  0.5344  0.8691 -0.9417
 8746TIP3    H247654   2.956   3.532  12.062 -0.2461  0.0144  0.9043
 8747TIP3   OH247655   7.154   6.035  12.327  0.7002 -0.0809  0.5577
 8747TIP3    H147656   7.114   5.950  12.344  1.2109 -0.3768  0.2901
 8747TIP3    H247657   7.124   6.090  12.400 -0.5740 -0.1581  0.1128
 8748TIP3   OH247658   2.229   2.340  14.165  0.4539 -0.0894  0.4889
 8748TIP3    H147659   2.216   2.286  14.243 -1.3907 -1.9433 -1.0408
 8748TIP3    H247660   2.213   2.280  14.092  1.4695  1.7758 -1.3127
 8749TIP3   OH247661   5.117   6.703  13.903 -0.3059  0.2444  0.1856
 8749TIP3    H147662   5.058   6.628  13.907 -1.4078  0.9382 -2.0560
 8749TIP3    H247663   5.065   6.776  13.936 -0.2327  0.5705 -0.4052
 8750TIP3   OH247664   2.695   5.016  15.126 -0.2855  0.3571 -0.3720
 8750TIP3    H147665   2.747   4.938  15.148 -0.2855  0.0439 -1.4069
 8750TIP3    H247666   2.619   4.981  15.078 -0.1961  0.9993 -0.9939
 8751TIP3   OH247667   6.642   4.792  12.608 -0.3843 -0.0354 -0.4070
 8751TIP3    H147668   6.643   4.887  12.614 -0.5276 -0.1523  1.5870
 8751TIP3    H247669   6.687   4.773  12.525 -0.4064  1.7466 -0.8499
 8752TIP3   OH247670   6.873   5.538   1.100  0.0134  0.2393  0.2381
 8752TIP3    H147671   6.885   5.511   1.009 -0.3386 -0.1203  0.2945
 8752TIP3    H247672   6.848   5.457   1.145 -1.0329  0.6561  0.4152
 8753TIP3   OH247673   0.002   6.753   2.018 -0.5182 -0.1512  0.6576
 8753TIP3    H147674   0.018   6.685   1.953 -1.3084 -0.3488  0.6690
 8753TIP3    H247675  -0.020   6.705   2.098 -0.0808  0.1013  0.9290
 8754TIP3   OH247676   0.836   4.855   0.120  0.2876 -0.3685  0.1492
 8754TIP3    H147677   0.811   4.946   0.133 -1.4546 -0.7194 -0.5664
 8754TIP3    H247678   0.926   4.859   0.086 -0.6404  1.2044 -2.2435
 8755TIP3   OH247679   0.483   0.246  13.208  0.0981  0.3360  0.4334
 8755TIP3    H147680   0.517   0.329  13.240 -0.1191  0.9718 -0.9439
 8755TIP3    H247681   0.509   0.243  13.116  0.1930 -1.1726  0.4982
 8756TIP3   OH247682   4.448   5.229  14.629 -0.2857  0.3195  0.3130
 8756TIP3    H147683   4.445   5.222  14.724  0.3968  0.6500  0.3663
 8756TIP3    H247684   4.388   5.301  14.608 -1.3940 -0.5705  0.3851
 8757TIP3   OH247685   1.840   3.703  15.500  0.2952 -0.1976  0.1319
 8757TIP3    H147686   1.912   3.750  15.542 -0.3792  0.2014  0.8577
 8757TIP3    H247687   1.836   3.619  15.546 -0.4654  0.2527  0.9251
 8758TIP3   OH247688   2.999   4.942  11.246  0.5069 -0.5630  0.1326
 8758TIP3    H147689   3.000   4.974  11.337  0.4835  1.3902 -0.5237
 8758TIP3    H247690   2.911   4.906  11.235  0.3555 -0.3998  0.7560
 8759TIP3   OH247691   0.983   4.284  13.593  0.1158 -0.5117  0.2162
 8759TIP3    H147692   0.902   4.305  13.639  0.5075 -2.2582  1.7723
 8759TIP3    H247693   1.005   4.196  13.623  3.3145  0.4428  0.8343
 8760TIP3   OH247694   1.752   1.461  14.114 -0.5547  0.0703  0.1417
 8760TIP3    H147695   1.846   1.458  14.100 -0.4487  0.5388  0.7021
 8760TIP3    H247696   1.717   1.387  14.064  0.1141 -0.1404 -0.0142
 8761TIP3   OH247697   6.183   2.229   1.334 -0.2490 -0.3415  0.8278
 8761TIP3    H147698   6.259   2.265   1.380  0.2760  0.6949 -0.8328
 8761TIP3    H247699   6.147   2.164   1.395  1.1726  0.1109  2.1757
 8762TIP3   OH247700   1.647   5.480  12.660 -0.1921  0.0920  0.5716
 8762TIP3    H147701   1.608   5.466  12.574 -0.2499 -0.3084  0.6655
 8762TIP3    H247702   1.648   5.394  12.701 -1.3606  0.4915  1.4757
 8763TIP3   OH247703   0.710   4.109  14.521 -0.1354 -0.2523  0.5826
 8763TIP3    H147704   0.617   4.107  14.499 -0.0553  0.4024  0.1787
 8763TIP3    H247705   0.736   4.200  14.509  0.8509 -0.6608 -0.5721
 8764TIP3   OH247706   5.950   3.008   4.457  0.2231 -0.0575  0.1855
 8764TIP3    H147707   5.910   2.965   4.533  0.2243 -0.5131 -0.0694
 8764TIP3    H247708   6.042   2.981   4.461  0.1577 -0.3434 -0.1552
 8765TIP3   OH247709   3.914   3.734  11.530 -0.1095  0.4466 -0.7285
 8765TIP3    H147710   3.924   3.644  11.497  1.7496 -0.1622  1.4176
 8765TIP3    H247711   3.985   3.783  11.488  1.1047  0.0838  0.8502
 8766TIP3   OH247712   1.035   2.216  15.057  0.2471  0.0682  0.4717
 8766TIP3    H147713   0.996   2.169  15.131  0.4750 -1.2706 -0.2370
 8766TIP3    H247714   1.118   2.170  15.042 -0.0216  0.0275 -0.9193
 8767TIP3   OH247715   4.407   6.856   2.310  0.0908  0.4981  0.1045
 8767TIP3    H147716   4.444   6.848   2.222  0.8328  1.3095  0.3332
 8767TIP3    H247717   4.472   6.907   2.359 -2.0707  3.4797  0.0340
 8768TIP3   OH247718   6.317   3.925  15.226  0.5262 -0.6982  0.1706
 8768TIP3    H147719   6.347   3.838  15.199 -0.6353 -1.2705  0.7237
 8768TIP3    H247720   6.242   3.909  15.282  0.0807  0.6852 -0.0081
 8769TIP3   OH247721   5.930   4.251  14.246 -0.6052 -0.1098 -0.0291
 8769TIP3    H147722   5.941   4.275  14.154 -0.3038  1.9720  0.5387
 8769TIP3    H247723   5.935   4.155  14.246  2.3869 -0.0199 -1.7745
 8770TIP3   OH247724   4.269   4.059   0.415  0.1140  0.0783  0.2959
 8770TIP3    H147725   4.293   3.973   0.449 -2.1857 -0.0568  1.6657
 8770TIP3    H247726   4.287   4.119   0.488 -1.8445  0.2239  0.6770
 8771TIP3   OH247727   0.892   4.935  11.884 -0.2139  0.0648  0.3857
 8771TIP3    H147728   0.886   4.861  11.946  0.1005 -0.8481 -0.6603
 8771TIP3    H247729   0.964   4.911  11.826 -0.0072  1.2858  0.1330
 8772TIP3   OH247730   4.559   6.846  11.792 -0.2502  0.0006  0.4484
 8772TIP3    H147731   4.480   6.834  11.845 -1.9587 -1.0780 -2.2765
 8772TIP3    H247732   4.572   6.941  11.791 -2.7693  0.3681 -0.8408
 8773TIP3   OH247733   4.502   2.746  13.119  0.3615  0.3014  0.2731
 8773TIP3    H147734   4.576   2.755  13.178  1.9264  1.1320 -1.7404
 8773TIP3    H247735   4.517   2.662  13.074  1.2678  1.4456 -1.6459
 8774TIP3   OH247736   3.413   0.887  11.628 -0.3818  0.2657 -0.3618
 8774TIP3    H147737   3.431   0.900  11.534  2.7344 -2.3143 -0.2100
 8774TIP3    H247738   3.475   0.945  11.672  1.5572 -2.1303  0.1158
 8775TIP3   OH247739   6.370   1.810   1.284  0.1765  0.3922  0.2615
 8775TIP3    H147740   6.401   1.897   1.261  1.9079 -0.4518 -0.7387
 8775TIP3    H247741   6.291   1.797   1.232  1.1842  0.5012 -1.3288
 8776TIP3   OH247742   6.570   5.649   0.506 -0.3437 -0.1279 -0.2807
 8776TIP3    H147743   6.501   5.655   0.572  0.7468 -0.1841  0.8892
 8776TIP3    H247744   6.651   5.666   0.555  0.6204 -1.6142 -1.3262
 8777TIP3   OH247745   1.425   5.580   5.151 -0.2242 -0.1397 -0.0213
 8777TIP3    H147746   1.414   5.674   5.164  0.4116  0.0330 -0.7039
 8777TIP3    H247747   1.464   5.572   5.064  0.4874 -0.9884  0.3698
 8778TIP3   OH247748   1.234   2.655   3.422  0.5518 -0.1700  0.5594
 8778TIP3    H147749   1.217   2.598   3.347  0.2729 -1.8942  1.8825
 8778TIP3    H247750   1.173   2.728   3.412 -1.7602 -2.0242  0.7974
 8779TIP3   OH247751   3.252   5.848   0.421  0.1160 -0.5840  0.0827
 8779TIP3    H147752   3.337   5.889   0.406  0.3591 -0.2258  2.2504
 8779TIP3    H247753   3.192   5.896   0.364  0.7994  1.3245  0.9313
 8780TIP3   OH247754   1.681   2.794  11.989  0.1989 -0.6872  0.1919
 8780TIP3    H147755   1.669   2.791  12.084  1.0833 -3.5424  0.2678
 8780TIP3    H247756   1.771   2.825  11.977  0.9752 -2.7299  0.4261
 8781TIP3   OH247757   3.212   3.438  13.482  0.0153  0.0254  0.2574
 8781TIP3    H147758   3.273   3.402  13.545  1.9327  1.8034 -0.5116
 8781TIP3    H247759   3.219   3.533  13.493  0.2731  0.3641 -2.4810
 8782TIP3   OH247760   3.539   0.457  12.774 -0.2947  0.2227 -0.1199
 8782TIP3    H147761   3.535   0.370  12.735 -0.8425 -0.4758  1.4561
 8782TIP3    H247762   3.454   0.496  12.758 -1.6527 -1.2637  3.0190
 8783TIP3   OH247763   5.402   4.544   3.028 -0.2361 -0.2364 -0.5889
 8783TIP3    H147764   5.445   4.465   2.996  0.2010 -0.2923  0.1010
 8783TIP3    H247765   5.323   4.512   3.071 -0.5966 -0.2015 -1.2244
 8784TIP3   OH247766   0.613   3.324  11.900 -0.2116  0.2938 -0.1579
 8784TIP3    H147767   0.600   3.417  11.916  1.2354  0.1732  1.9969
 8784TIP3    H247768   0.683   3.320  11.835  0.8719  0.7187  0.9612
 8785TIP3   OH247769   0.080   6.438  13.545  0.2371  0.1299  0.2830
 8785TIP3    H147770   0.109   6.376  13.479  0.0356  1.1171 -0.7339
 8785TIP3    H247771   0.072   6.521  13.499 -0.2608  0.7463  1.4600
 8786TIP3   OH247772   3.504   4.212  13.680 -0.2719  0.0947 -0.0184
 8786TIP3    H147773   3.467   4.124  13.675 -1.2561  0.6301 -3.0920
 8786TIP3    H247774   3.433   4.265  13.716 -0.5461  0.0718 -0.5184
 8787TIP3   OH247775   5.633   3.565  13.018  0.0463  0.2175 -0.1157
 8787TIP3    H147776   5.699   3.567  12.949 -2.2214  0.3188 -2.3673
 8787TIP3    H247777   5.576   3.492  12.995 -0.7047  0.1810  1.7360
 8788TIP3   OH247778   6.082   2.843  12.930  0.0361 -0.0748 -0.3279
 8788TIP3    H147779   6.059   2.771  12.988 -0.7778 -0.6936 -1.4074
 8788TIP3    H247780   6.169   2.822  12.897 -0.0206 -0.3359 -0.3063
 8789TIP3   OH247781   4.720   3.007  15.303 -0.1896  0.2257 -0.2393
 8789TIP3    H147782   4.807   3.002  15.344  0.0058 -0.9120 -0.7638
 8789TIP3    H247783   4.734   2.971  15.215 -1.3628 -0.7645 -0.0362
 8790TIP3   OH247784   3.287   5.398   0.876 -0.0538  0.1595  0.4499
 8790TIP3    H147785   3.263   5.346   0.800 -0.8408  2.1512 -0.7112
 8790TIP3    H247786   3.379   5.420   0.862 -0.0488  0.0712  0.3403
 8791TIP3   OH247787   6.488   6.816  13.553  0.0040  0.2797 -0.3608
 8791TIP3    H147788   6.535   6.748  13.601 -0.2085  0.2830 -0.1453
 8791TIP3    H247789   6.495   6.790  13.462 -1.4299 -0.8859 -0.1536
 8792TIP3   OH247790   4.414   6.302  13.342  0.2785  0.2017 -0.4845
 8792TIP3    H147791   4.502   6.305  13.379 -0.8010  0.4684  2.2092
 8792TIP3    H247792   4.416   6.364  13.270  2.2478  0.3259 -0.3527
 8793TIP3   OH247793   2.329   2.863  10.773 -0.3879  0.1340  0.7411
 8793TIP3    H147794   2.418   2.834  10.755  0.0746  1.3166  1.0480
 8793TIP3    H247795   2.303   2.913  10.696 -0.5495  0.3097  0.9061
 8794TIP3   OH247796   4.978   6.229  11.399  0.1877 -0.7635  0.1579
 8794TIP3    H147797   5.045   6.204  11.335  1.2077  1.2379  0.4000
 8794TIP3    H247798   4.996   6.174  11.475  1.7132 -0.1255  0.2908
 8795TIP3   OH247799   4.469   6.405  12.528  0.0653  0.2341  0.1794
 8795TIP3    H147800   4.478   6.387  12.434 -0.9849 -0.6443  0.2491
 8795TIP3    H247801   4.550   6.450  12.551  0.7210 -0.3377 -0.9656
 8796TIP3   OH247802   7.010   6.596  13.315 -0.8961  0.5368  0.4387
 8796TIP3    H147803   7.060   6.569  13.237 -0.7910 -0.2016  0.7576
 8796TIP3    H247804   6.959   6.518  13.338  0.2987  0.2202  2.0764
 8797TIP3   OH247805   3.635   5.075  13.554 -0.3032  0.0709 -0.3427
 8797TIP3    H147806   3.656   5.122  13.635  0.0889  0.0260 -0.4172
 8797TIP3    H247807   3.680   5.125  13.485  0.2813 -0.5274 -0.3963
 8798TIP3   OH247808   6.307   6.247  14.209  0.2822 -0.0731  0.0025
 8798TIP3    H147809   6.394   6.216  14.182  0.0485 -0.7679  0.0301
 8798TIP3    H247810   6.253   6.167  14.211  0.2351 -0.0057  2.2475
 8799TIP3   OH247811   0.526   0.933   1.217 -0.8336  0.3895 -0.2543
 8799TIP3    H147812   0.525   1.009   1.275 -0.3947  1.8579 -2.1652
 8799TIP3    H247813   0.575   0.866   1.266 -1.7877  1.0889  1.7017
 8800TIP3   OH247814   2.369   1.918   1.148  0.5037 -0.4711  0.0276
 8800TIP3    H147815   2.300   1.892   1.208  0.5784 -1.8659 -0.4621
 8800TIP3    H247816   2.394   1.837   1.103  0.1395  0.5952 -2.1984
 8801TIP3   OH247817   2.463   5.930  15.397  0.0697  0.0661  0.2383
 8801TIP3    H147818   2.379   5.942  15.441 -0.6313 -0.3218 -0.9854
 8801TIP3    H247819   2.477   6.012  15.350 -0.8843 -0.8228 -1.6496
 8802TIP3   OH247820   3.915   4.279   0.026 -0.3269 -0.4719  0.6654
 8802TIP3    H147821   3.994   4.314  -0.015 -0.7684 -0.7768 -0.4667
 8802TIP3    H247822   3.936   4.275   0.119  0.0029  2.1139  0.7553
 8803TIP3   OH247823   4.672   2.413  12.426  0.4510  0.5259  0.0329
 8803TIP3    H147824   4.750   2.380  12.382  1.4236  1.1703  1.2507
 8803TIP3    H247825   4.608   2.343  12.416  2.1199 -1.2933  1.5611
 8804TIP3   OH247826   6.291   1.760  13.748 -0.5501  0.2071 -0.2517
 8804TIP3    H147827   6.212   1.791  13.705 -0.4214  1.1250  0.1709
 8804TIP3    H247828   6.275   1.772  13.842 -0.1529 -0.1837 -0.1271
 8805TIP3   OH247829   5.066   4.151  12.385  0.1399 -0.2756 -0.8173
 8805TIP3    H147830   5.111   4.210  12.324  1.6358 -2.2817 -1.6917
 8805TIP3    H247831   5.087   4.187  12.472  1.7587 -0.0009 -1.3074
 8806TIP3   OH247832   5.289   5.852   0.725  0.8874 -0.0399 -0.1022
 8806TIP3    H147833   5.362   5.791   0.714  0.8343 -0.2537  0.6984
 8806TIP3    H247834   5.273   5.853   0.820  0.0995  0.2922 -0.2364
 8807TIP3   OH247835   5.499   5.398  11.036 -0.0126 -0.6611  0.4134
 8807TIP3    H147836   5.517   5.489  11.013 -0.7165 -0.1672  1.7811
 8807TIP3    H247837   5.473   5.401  11.128  0.3540 -2.2984  0.5774
 8808TIP3   OH247838   5.931   6.128  14.673  0.7145 -0.0711  0.3813
 8808TIP3    H147839   5.883   6.187  14.731  0.6104 -1.6585  1.9790
 8808TIP3    H247840   5.949   6.180  14.595 -0.1845  1.7602  1.3536
 8809TIP3   OH247841   6.924   6.326  13.873  0.1032 -0.2424 -1.2751
 8809TIP3    H147842   6.909   6.417  13.899 -1.1066 -0.5023 -1.0579
 8809TIP3    H247843   7.011   6.306  13.907 -1.0663 -0.2859  1.8901
 8810TIP3   OH247844   6.600   2.568  13.089 -0.0798 -0.1421 -0.2540
 8810TIP3    H147845   6.595   2.572  12.994  0.8690 -0.9030 -0.3344
 8810TIP3    H247846   6.522   2.519  13.116  1.0799 -2.3666 -0.8224
 8811TIP3   OH247847   4.248   5.731   0.794  0.5951  0.6830  0.5091
 8811TIP3    H147848   4.286   5.720   0.881  1.7355 -0.8824 -0.1697
 8811TIP3    H247849   4.171   5.675   0.795  1.7418 -0.9472 -0.1446
 8812TIP3   OH247850   2.169   5.313  14.789 -0.4687 -0.7004  0.1958
 8812TIP3    H147851   2.262   5.296  14.800 -0.4428  0.0014  1.0792
 8812TIP3    H247852   2.126   5.261  14.857 -0.7802 -1.6692 -0.7363
 8813TIP3   OH247853   1.501   6.133   1.515  0.0100  0.0022  0.1421
 8813TIP3    H147854   1.566   6.074   1.479  0.6162  0.4368  0.5115
 8813TIP3    H247855   1.421   6.115   1.465  1.5925  2.7335 -3.5174
 8814TIP3   OH247856   5.317   0.806  14.920  0.6227 -0.7586  0.1538
 8814TIP3    H147857   5.385   0.804  14.988 -0.2043 -0.3050  1.0161
 8814TIP3    H247858   5.341   0.880  14.864  0.5161 -0.2228  0.8080
 8815TIP3   OH247859   1.524   3.676  13.892  0.5179  0.0224 -0.1222
 8815TIP3    H147860   1.463   3.735  13.849 -0.9126  0.2299  2.0884
 8815TIP3    H247861   1.505   3.685  13.985  1.2590 -2.8195  0.3684
 8816TIP3   OH247862   4.974   2.500  13.448  0.1935  0.0533  0.6992
 8816TIP3    H147863   5.042   2.436  13.426 -0.6406  0.5032 -3.6150
 8816TIP3    H247864   5.017   2.585  13.437 -1.3101  0.3855 -3.5460
 8817TIP3   OH247865   1.775   2.755   0.545  0.1871 -0.0443  0.4342
 8817TIP3    H147866   1.774   2.850   0.533 -3.3194  0.3269  2.7983
 8817TIP3    H247867   1.692   2.725   0.507  1.2101 -2.1754 -0.1917
 8818TIP3   OH247868   5.353   5.748  14.737  0.0657  0.2227  0.1297
 8818TIP3    H147869   5.312   5.832  14.760 -0.0498  0.2125 -0.0365
 8818TIP3    H247870   5.281   5.696  14.700  0.2657  0.2706 -0.3325
 8819TIP3   OH247871   5.487   1.064  11.487  0.2098 -0.3723 -0.2257
 8819TIP3    H147872   5.430   1.124  11.439 -0.0367 -0.8688 -0.5661
 8819TIP3    H247873   5.518   1.002  11.420 -0.0922 -1.0405  0.2469
 8820TIP3   OH247874   4.987   3.031  15.358  0.2338 -0.1091 -0.2977
 8820TIP3    H147875   5.032   3.115  15.366  0.4620 -0.3369  0.9690
 8820TIP3    H247876   5.012   2.998  15.272  0.0853  1.1538 -0.8312
 8821TIP3   OH247877   3.185   4.054  12.086 -0.3151 -0.4609 -0.9460
 8821TIP3    H147878   3.274   4.065  12.119 -0.5352 -1.8504  0.1810
 8821TIP3    H247879   3.135   4.125  12.126 -0.5621 -2.0787  1.7785
 8822TIP3   OH247880   0.423   2.587  14.372  0.1378 -0.5471  0.2810
 8822TIP3    H147881   0.449   2.611  14.461  1.8840  0.3636 -0.4419
 8822TIP3    H247882   0.330   2.607  14.368  0.1661 -0.0589  1.7295
 8823TIP3   OH247883   4.703   0.409  14.007  0.2674 -0.6399 -0.5670
 8823TIP3    H147884   4.682   0.410  14.100  0.0802  0.1605 -0.6135
 8823TIP3    H247885   4.622   0.383  13.964 -0.9235  3.1560 -0.8003
 8824TIP3   OH247886   1.275   7.123  13.258 -0.0505  0.4407 -0.4693
 8824TIP3    H147887   1.226   7.178  13.197 -1.8611  1.6900  2.0180
 8824TIP3    H247888   1.359   7.166  13.268  0.0583  0.5116 -1.6708
 8825TIP3   OH247889   0.925   6.170  10.291  0.3619  0.0623  0.2812
 8825TIP3    H147890   0.836   6.180  10.256 -0.5841 -4.4180  1.0693
 8825TIP3    H247891   0.980   6.160  10.214  0.0656  1.8079 -0.1806
 8826TIP3   OH247892   6.501   6.339  14.436 -0.1293 -0.0343 -0.1842
 8826TIP3    H147893   6.485   6.315  14.527 -1.4592  0.6800 -0.2111
 8826TIP3    H247894   6.418   6.374  14.405 -0.2127 -1.9504 -2.2415
 8827TIP3   OH247895   4.706   3.562   0.322  0.6901  0.1998 -0.5039
 8827TIP3    H147896   4.773   3.524   0.379  0.5557 -0.8079 -0.9950
 8827TIP3    H247897   4.724   3.655   0.321  0.6786  0.2417  1.2322
 8828TIP3   OH247898   1.891   3.022  15.210 -0.5300  0.1821  0.3815
 8828TIP3    H147899   1.953   2.996  15.142  0.3225  0.6025  0.9919
 8828TIP3    H247900   1.852   3.103  15.177  0.3811  0.7555  0.6986
 8829TIP3   OH247901   2.605   6.132  14.607 -0.1379 -0.1111 -0.4226
 8829TIP3    H147902   2.517   6.101  14.630 -0.8161  1.2262 -1.1296
 8829TIP3    H247903   2.664   6.066  14.644 -1.2077  1.1809  3.9180
 8830TIP3   OH247904   5.313   3.562  13.798 -0.0777 -0.2116  0.0244
 8830TIP3    H147905   5.351   3.483  13.837  0.5950 -1.0044 -2.1534
 8830TIP3    H247906   5.384   3.600  13.746 -1.0965  0.4960 -0.8802
 8831TIP3   OH247907   1.713   4.909  13.732  0.0019  0.2759 -0.5262
 8831TIP3    H147908   1.697   5.000  13.757  0.7176  0.0949  0.6398
 8831TIP3    H247909   1.807   4.904  13.719  0.0615 -0.4515  0.1039
 8832TIP3   OH247910   4.407   5.898  14.089  0.0953 -0.1370  0.0379
 8832TIP3    H147911   4.462   5.922  14.163 -0.6625 -1.5632  1.1034
 8832TIP3    H247912   4.336   5.962  14.089  0.6233  0.4419 -0.0369
 8833TIP3   OH247913   4.289   1.412  10.770 -0.8352 -0.2886  0.3389
 8833TIP3    H147914   4.303   1.386  10.679 -1.3139 -0.6974  0.3770
 8833TIP3    H247915   4.376   1.409  10.810 -0.5499  0.3831 -0.2314
 8834TIP3   OH247916   0.286   1.253  14.976  0.0024 -0.4074  0.2207
 8834TIP3    H147917   0.378   1.253  14.948 -0.2867 -0.5899 -0.7333
 8834TIP3    H247918   0.288   1.214  15.063  0.7414 -1.1675 -0.1241
 8835TIP3   OH247919   1.262   1.307  15.118 -0.4157 -0.9095  0.0872
 8835TIP3    H147920   1.282   1.396  15.146 -0.2504 -0.1751 -2.3328
 8835TIP3    H247921   1.334   1.254  15.153  0.8816  0.3013 -0.7143
 8836TIP3   OH247922   1.528   0.402  15.137  0.1903  0.1482  0.2470
 8836TIP3    H147923   1.623   0.416  15.143  0.2053 -0.6840  2.4831
 8836TIP3    H247924   1.517   0.347  15.060  1.8862 -2.5148  1.8117
 8837TIP3   OH247925   0.092   6.066  14.884 -0.2028  0.2563 -0.5141
 8837TIP3    H147926   0.008   6.100  14.914 -1.4984 -2.9506 -0.3699
 8837TIP3    H247927   0.076   6.035  14.795  0.5729 -1.1671 -0.1871
 8838TIP3   OH247928   4.492   1.895  13.096  0.6823  0.5100 -0.5593
 8838TIP3    H147929   4.469   1.987  13.083  1.9617  1.3354  2.5277
 8838TIP3    H247930   4.409   1.851  13.110  0.1481  1.4683 -0.6578
 8839TIP3   OH247931   4.866   6.781   0.583 -0.0060 -0.0481  0.3666
 8839TIP3    H147932   4.795   6.723   0.558 -0.1078  0.8016 -1.4159
 8839TIP3    H247933   4.938   6.758   0.523  0.2228  1.0832  0.1955
 8840TIP3   OH247934   0.634   5.703  10.688  0.3810 -0.1432  0.0759
 8840TIP3    H147935   0.575   5.649  10.636  0.5885 -1.0551  0.7708
 8840TIP3    H247936   0.718   5.656  10.685  0.4031 -0.1786  1.1911
 8841TIP3   OH247937   2.037   6.972  14.471 -0.2539  0.4016  0.0667
 8841TIP3    H147938   2.006   7.007  14.388 -1.9878  1.3466  1.0779
 8841TIP3    H247939   2.132   6.968  14.462 -0.1962  3.1986 -0.9250
 8842TIP3   OH247940   7.006   6.490   1.564 -0.5499 -0.3314 -0.2882
 8842TIP3    H147941   7.045   6.452   1.485 -1.0020 -1.0981 -0.1529
 8842TIP3    H247942   6.936   6.547   1.531 -0.5300 -0.4053 -0.4571
 8843TIP3   OH247943   4.890   3.956  12.829  0.3931  1.0311 -0.3461
 8843TIP3    H147944   4.796   3.948  12.815  0.7407 -2.5581 -1.1334
 8843TIP3    H247945   4.902   3.940  12.922  0.3738 -0.1713 -0.5491
 8844TIP3   OH247946   5.977   2.427  15.354  0.4786 -0.1473  0.1496
 8844TIP3    H147947   5.992   2.360  15.288  0.0982  0.3762 -0.4702
 8844TIP3    H247948   6.032   2.500  15.328 -1.1756  0.8207 -0.7200
 8845TIP3   OH247949   5.325   2.442  13.167 -0.2559 -0.0742 -0.7125
 8845TIP3    H147950   5.343   2.523  13.215 -0.1664 -0.7211  0.3669
 8845TIP3    H247951   5.377   2.450  13.086  0.9436  0.2878  0.0785
 8846TIP3   OH247952   3.355   5.272   3.045 -0.2894  0.3232 -0.5514
 8846TIP3    H147953   3.381   5.180   3.054 -0.8558  0.2784  0.7453
 8846TIP3    H247954   3.398   5.317   3.118 -0.6832  0.9342 -0.6868
 8847TIP3   OH247955   3.485   6.631   2.607 -0.4805  0.1968  0.0011
 8847TIP3    H147956   3.441   6.552   2.640  0.1534 -1.8609 -3.7336
 8847TIP3    H247957   3.578   6.614   2.622 -0.2745 -0.2456 -1.7140
 8848TIP3   OH247958   3.757   2.159   3.782  0.7166  0.5960 -0.2246
 8848TIP3    H147959   3.751   2.112   3.865 -0.9610  0.4355 -0.4199
 8848TIP3    H247960   3.781   2.248   3.807  0.3282  0.5231  0.4398
 8849TIP3   OH247961   6.003   4.812  14.734  0.6138  0.2277 -0.6448
 8849TIP3    H147962   6.075   4.801  14.796  0.3558 -1.4244 -0.6282
 8849TIP3    H247963   5.925   4.822  14.790  0.4344 -0.8815 -0.6926
 8850TIP3   OH247964   0.968   0.531   0.055 -0.3268  0.7124  0.2749
 8850TIP3    H147965   0.940   0.576  -0.024  1.8839  0.3192 -0.7740
 8850TIP3    H247966   1.030   0.592   0.096  1.1326 -0.4939 -0.0979
 8851TIP3   OH247967   6.710   6.553  12.769 -0.2840 -0.3049  0.5095
 8851TIP3    H147968   6.789   6.522  12.813  0.5961  0.7045 -0.3289
 8851TIP3    H247969   6.725   6.647  12.756 -1.4875 -0.1664  0.0617
 8852TIP3   OH247970   6.512   3.763  13.191 -0.0408  0.2398 -0.2373
 8852TIP3    H147971   6.463   3.683  13.174  1.3852 -0.9555  1.0734
 8852TIP3    H247972   6.511   3.810  13.108 -1.4386 -0.8301 -0.8442
 8853TIP3   OH247973   5.769   2.907  14.999 -0.0338 -0.4142 -0.2362
 8853TIP3    H147974   5.797   2.863  14.918  1.2095  2.4088 -1.3884
 8853TIP3    H247975   5.800   2.850  15.069  3.6843 -0.2311 -1.6220
 8854TIP3   OH247976   0.999   1.158   0.886  0.2940  0.1383  0.0535
 8854TIP3    H147977   1.072   1.202   0.841 -2.3103  3.8577 -0.7898
 8854TIP3    H247978   0.934   1.227   0.898 -2.9135 -2.9633  1.2160
 8855TIP3   OH247979   2.454   3.504   0.643 -0.1970  0.4043 -0.8153
 8855TIP3    H147980   2.435   3.489   0.735  4.2742 -0.7828  0.0566
 8855TIP3    H247981   2.382   3.463   0.596 -1.7120 -0.4111  2.1143
 8856TIP3   OH247982   6.506   4.046  14.770  0.4884 -0.1222  0.3250
 8856TIP3    H147983   6.514   4.076  14.679 -0.4705 -0.7640  0.0254
 8856TIP3    H247984   6.483   4.125  14.819  0.4700  0.1199 -0.0674
 8857TIP3   OH247985   5.255   3.688   1.462  0.0638 -0.0062  0.3835
 8857TIP3    H147986   5.204   3.765   1.434  2.1592  1.6036  0.8563
 8857TIP3    H247987   5.337   3.695   1.414  1.0777 -0.8478  1.9433
 8858TIP3   OH247988   3.347   2.953  13.197  0.1278 -0.0572 -0.0461
 8858TIP3    H147989   3.417   2.929  13.137  1.1388  0.1608  1.0158
 8858TIP3    H247990   3.273   2.975  13.141  1.0221  0.0582 -1.1997
 8859TIP3   OH247991   0.090   0.995   1.536  0.3562  0.6246 -0.8284
 8859TIP3    H147992   0.068   1.025   1.448 -1.6965 -0.6706 -0.7985
 8859TIP3    H247993   0.083   0.899   1.531  0.2672  0.5445  0.7339
 8860TIP3   OH247994   4.667   4.086   2.837 -0.0556 -0.4650 -0.1745
 8860TIP3    H147995   4.682   4.090   2.931 -1.7012  1.3308  0.0581
 8860TIP3    H247996   4.587   4.034   2.827  1.1499 -2.2420 -0.7264
 8861TIP3   OH247997   6.328   3.036  14.119 -0.3060  0.0427 -0.0997
 8861TIP3    H147998   6.367   3.047  14.206 -2.4747  0.8516  0.7998
 8861TIP3    H247999   6.270   3.112  14.108 -2.9199 -1.9480 -0.6637
 8862TIP3   OH248000   0.115   5.977   2.507  0.4506 -0.7893  0.0070
 8862TIP3    H148001   0.073   6.005   2.426 -1.4745 -1.8381  0.6139
 8862TIP3    H248002   0.121   5.882   2.500  0.0235 -0.9170  1.1859
 8863TIP3   OH248003   4.084   0.810   0.777 -0.5025 -0.1408  0.1252
 8863TIP3    H148004   4.144   0.881   0.755  0.4312 -0.9755 -0.0666
 8863TIP3    H248005   4.108   0.785   0.866  0.0730 -1.0872 -0.2801
 8864TIP3   OH248006   5.445   5.349   9.535  0.4089  0.0982  0.4522
 8864TIP3    H148007   5.389   5.318   9.606 -0.4177 -0.1523 -0.2994
 8864TIP3    H248008   5.489   5.426   9.571  0.3394 -0.2866  1.3814
 8865TIP3   OH248009   5.079   3.059  12.298 -0.5635 -0.0793 -0.3599
 8865TIP3    H148010   5.009   3.088  12.239 -0.1032  1.7715 -0.0107
 8865TIP3    H248011   5.160   3.083  12.253 -0.1916  0.1536  0.4242
 8866TIP3   OH248012   3.094   3.109  10.402 -0.3009  0.2425 -0.1060
 8866TIP3    H148013   3.039   3.179  10.436 -0.8444 -0.4511  0.4719
 8866TIP3    H248014   3.140   3.148  10.328  0.1513  1.4926  0.8100
 8867TIP3   OH248015   6.003   1.161  10.154 -0.3462  0.0400  0.0954
 8867TIP3    H148016   5.910   1.142  10.140 -0.8165 -0.7591  3.7360
 8867TIP3    H248017   6.047   1.079  10.133 -0.4091  0.5247 -1.9780
 8868TIP3   OH248018   0.958   6.497  15.112 -0.0861  0.0563 -0.0878
 8868TIP3    H148019   0.979   6.525  15.201  1.1462 -0.4561 -0.2118
 8868TIP3    H248020   0.968   6.577  15.059  0.1388  0.1418  0.0835
 8869TIP3   OH248021   5.232   0.481  11.086 -0.0724  0.3142  0.5336
 8869TIP3    H148022   5.261   0.403  11.133  0.0213 -0.5597 -0.9489
 8869TIP3    H248023   5.186   0.447  11.009 -1.2121  1.7103  0.5675
 8870TIP3   OH248024   1.946   0.936  14.031 -0.3910  0.3563  0.4178
 8870TIP3    H148025   1.901   0.863  13.990 -1.7181  0.6071  1.4154
 8870TIP3    H248026   2.030   0.900  14.059 -1.5075 -1.0879  1.9384
 8871TIP3   OH248027   0.980   3.638   0.539  0.2571  0.0571 -0.1470
 8871TIP3    H148028   0.940   3.563   0.495  1.9883 -0.4589 -0.8810
 8871TIP3    H248029   0.999   3.606   0.627  0.0159 -0.0300 -0.1268
 8872TIP3   OH248030   2.235   3.701  14.836 -0.3966  0.6100  0.0685
 8872TIP3    H148031   2.144   3.729  14.847 -0.9091 -0.7154 -0.7499
 8872TIP3    H248032   2.234   3.606  14.849  1.0137  0.6752  0.8489
 8873TIP3   OH248033   1.190   4.924  11.237  0.6006  0.2014  0.0967
 8873TIP3    H148034   1.260   4.859  11.230  0.2168 -0.2238  0.1428
 8873TIP3    H248035   1.187   4.967  11.152  1.1233  0.4328  0.1951
 8874TIP3   OH248036   1.074   3.726  12.771  0.1319 -0.0798  0.3309
 8874TIP3    H148037   1.149   3.673  12.744 -1.1039 -2.1318  0.7784
 8874TIP3    H248038   0.999   3.681  12.732 -0.9262  1.5022  0.5453
 8875TIP3   OH248039   4.378   3.231  12.818 -0.3466  0.1114  0.6364
 8875TIP3    H148040   4.357   3.220  12.910 -1.6992 -0.5094  0.2569
 8875TIP3    H248041   4.409   3.145  12.790 -2.2439 -0.3469 -0.0825
 8876TIP3   OH248042   6.573   1.596  11.329 -0.1005 -0.9787  0.0380
 8876TIP3    H148043   6.596   1.579  11.421 -0.3713 -2.5925 -0.1754
 8876TIP3    H248044   6.593   1.689  11.316 -0.6126 -0.5758  1.8947
 8877TIP3   OH248045   4.744   4.229   1.919 -0.0929 -0.2352  0.4095
 8877TIP3    H148046   4.805   4.161   1.892 -1.9881 -1.7539 -0.2135
 8877TIP3    H248047   4.719   4.206   2.008  0.0920  0.2784  0.5990
 8878TIP3   OH248048   4.429   5.263  12.676  0.0334 -0.1416  0.4175
 8878TIP3    H148049   4.411   5.328  12.608  0.6063 -2.4154 -1.9692
 8878TIP3    H248050   4.513   5.289  12.713 -0.7707  1.7015  1.0265
 8879TIP3   OH248051   6.167   6.009  14.175  0.3018 -0.1141  0.3769
 8879TIP3    H148052   6.128   5.954  14.244  1.5150 -2.1701 -0.5264
 8879TIP3    H248053   6.099   6.016  14.109  0.2145 -0.7179  0.3980
 8880TIP3   OH248054   0.909   4.307   4.562 -0.0288 -0.1988  0.0023
 8880TIP3    H148055   0.934   4.331   4.652 -0.2151  1.7123 -0.4289
 8880TIP3    H248056   0.989   4.271   4.524  0.1221 -0.7671  0.8598
 8881TIP3   OH248057   0.045   1.550  14.645  0.7022 -0.4202 -0.1376
 8881TIP3    H148058  -0.041   1.512  14.661  0.2746  0.6665  0.2014
 8881TIP3    H248059   0.074   1.581  14.731  0.6886  0.7333 -0.5415
 8882TIP3   OH248060   3.503   0.170  14.456  0.0565 -0.0922 -1.0451
 8882TIP3    H148061   3.522   0.263  14.460  0.2439 -0.1639  0.2964
 8882TIP3    H248062   3.465   0.150  14.542 -1.9761 -0.8367 -2.0780
 8883TIP3   OH248063   3.985   1.991  15.273  0.1401  0.4536 -0.0923
 8883TIP3    H148064   3.964   1.905  15.236 -0.5704 -0.0984  1.5617
 8883TIP3    H248065   3.968   2.052  15.201  2.4156 -0.9078 -1.8862
 8884TIP3   OH248066   1.510   4.711  11.691  0.6683  1.0815  0.0139
 8884TIP3    H148067   1.540   4.800  11.676  0.5050  1.6325  2.7092
 8884TIP3    H248068   1.590   4.660  11.705  0.9443  0.2132 -3.9859
 8885TIP3   OH248069   5.901   0.969  13.466  0.0838 -0.3444 -0.8031
 8885TIP3    H148070   5.936   0.964  13.555  1.3989  1.7040 -1.1970
 8885TIP3    H248071   5.817   0.923  13.472 -0.7909  1.5009  1.9601
 8886TIP3   OH248072   5.621   5.450   0.726 -0.3296 -0.2555 -0.0898
 8886TIP3    H148073   5.681   5.521   0.705 -0.5648 -0.6119 -2.0885
 8886TIP3    H248074   5.674   5.389   0.778  0.4659  0.3628 -0.1602
 8887TIP3   OH248075   7.108   3.326  14.563  0.2600  0.2724  0.0301
 8887TIP3    H148076   7.147   3.397  14.512  1.9396 -0.1901  0.6605
 8887TIP3    H248077   7.166   3.316  14.638  1.1635 -3.1194 -1.0638
 8888TIP3   OH248078   1.162   1.443  13.579 -0.5869 -0.5168 -0.2191
 8888TIP3    H148079   1.212   1.365  13.553  0.8011 -0.0010  0.8287
 8888TIP3    H248080   1.119   1.418  13.660  0.2256 -0.0601  0.3599
 8889TIP3   OH248081   5.634   2.628   2.821 -0.1178 -0.4662 -0.0430
 8889TIP3    H148082   5.630   2.606   2.915 -1.1963 -1.6371 -0.3444
 8889TIP3    H248083   5.694   2.563   2.784  0.0595 -0.2037 -0.2146
 8890TIP3   OH248084   4.887   4.976  12.023  0.4345  0.4792 -0.9650
 8890TIP3    H148085   4.850   4.895  11.989  1.2316  0.5874 -2.1035
 8890TIP3    H248086   4.814   5.038  12.023 -0.2210 -0.2687  0.0775
 8891TIP3   OH248087   4.913   0.486   1.526  0.3336  0.4994  0.4575
 8891TIP3    H148088   4.929   0.444   1.610  0.6140 -0.1292  0.0911
 8891TIP3    H248089   4.903   0.579   1.547 -0.3287  0.2462  1.2671
 8892TIP3   OH248090   2.456   1.842  13.232 -0.1954 -0.4862  0.0461
 8892TIP3    H148091   2.406   1.923  13.241  1.6566  0.8454 -1.3380
 8892TIP3    H248092   2.474   1.835  13.138  0.8293 -1.7821  0.3244
 8893TIP3   OH248093   6.537   0.432  10.695  0.5717 -0.2147 -0.6939
 8893TIP3    H148094   6.515   0.379  10.771 -0.6530 -0.3096 -1.1055
 8893TIP3    H248095   6.476   0.506  10.698  1.7790  0.8012 -0.5288
 8894TIP3   OH248096   5.499   5.350   3.244 -0.0211  0.0048 -0.4544
 8894TIP3    H148097   5.480   5.443   3.257  0.9505  0.0539  0.6992
 8894TIP3    H248098   5.540   5.346   3.158 -0.7697  0.5412 -0.8398
 8895TIP3   OH248099   6.110   2.971  14.646  0.2883 -0.0171  0.1662
 8895TIP3    H148100   6.166   2.903  14.607 -0.1966 -0.9759  1.1285
 8895TIP3    H248101   6.162   3.051  14.638  0.9279 -0.5167 -0.8494
 8896TIP3   OH248102   6.268   5.242   3.072 -0.0707 -0.6373 -0.1894
 8896TIP3    H148103   6.352   5.282   3.096 -0.2351 -0.6871  0.4580
 8896TIP3    H248104   6.214   5.251   3.150 -0.4918 -1.0876 -0.4335
 8897TIP3   OH248105   6.766   0.370  11.648  0.6826  0.1757  0.2061
 8897TIP3    H148106   6.793   0.424  11.573  2.1240 -0.2472  0.4104
 8897TIP3    H248107   6.811   0.287  11.635 -0.2585 -0.4287  0.7510
 8898TIP3   OH248108   1.056   5.379  13.410 -0.1541 -0.5334 -0.1341
 8898TIP3    H148109   0.979   5.377  13.466 -0.2044 -1.9004 -0.2301
 8898TIP3    H248110   1.127   5.346  13.465 -0.0621 -1.2248 -0.6655
 8899TIP3   OH248111   6.123   5.815  11.169  0.3821  0.9074 -0.0520
 8899TIP3    H148112   6.146   5.732  11.126 -0.5184 -0.1601  1.4694
 8899TIP3    H248113   6.033   5.832  11.141  0.4028  1.1311  0.0157
 8900TIP3   OH248114   2.099   5.152   0.824 -0.4852  0.5603 -0.3536
 8900TIP3    H148115   2.041   5.221   0.856  0.9001  0.5243  2.3900
 8900TIP3    H248116   2.150   5.126   0.901  1.5266 -1.0226 -2.1562
 8901TIP3   OH248117   0.503   5.652  14.015 -0.1657 -0.3279  0.3560
 8901TIP3    H148118   0.479   5.672  13.925 -0.8600  0.1750  0.6470
 8901TIP3    H248119   0.419   5.645  14.061  0.2171  1.0588  1.3097
 8902TIP3   OH248120   0.885   3.366  13.451 -0.5971  0.7069 -0.1347
 8902TIP3    H148121   0.820   3.415  13.402  0.1306  2.0210  0.1969
 8902TIP3    H248122   0.919   3.427  13.516  0.0536 -0.3382  0.5430
 8903TIP3   OH248123   4.394   5.752   3.204 -0.1785 -0.1755 -0.1463
 8903TIP3    H148124   4.414   5.846   3.212 -0.9138 -0.1084  1.1635
 8903TIP3    H248125   4.389   5.721   3.295 -1.7340 -1.0817 -0.5246
 8904TIP3   OH248126   0.173   3.335  10.627 -0.3219  1.4456  0.1304
 8904TIP3    H148127   0.221   3.316  10.708  0.7469  0.4498 -0.7139
 8904TIP3    H248128   0.112   3.262  10.617 -0.5931  1.6703  0.1331
 8905TIP3   OH248129   1.912   4.945  14.947  0.1137 -0.3690  0.3738
 8905TIP3    H148130   1.975   4.888  14.991  0.9470 -0.0015 -0.3066
 8905TIP3    H248131   1.921   4.922  14.854 -0.6035 -0.1597  0.2503
 8906TIP3   OH248132   4.755   6.741  12.033  0.1927  0.2351  0.6214
 8906TIP3    H148133   4.666   6.754  12.067  0.0397 -2.7178  1.4409
 8906TIP3    H248134   4.811   6.790  12.094 -0.9099  3.3558 -0.7293
 8907TIP3   OH248135   4.221   1.854  11.256 -0.3693  0.3859 -0.3330
 8907TIP3    H148136   4.198   1.828  11.167 -0.1588 -0.5061 -0.1337
 8907TIP3    H248137   4.216   1.773  11.307  1.2200  0.5372  0.1132
 8908TIP3   OH248138   6.182   0.565  13.835  0.0122  0.4864  0.1913
 8908TIP3    H148139   6.159   0.596  13.922  2.3252  1.4933  0.4661
 8908TIP3    H248140   6.267   0.522  13.846 -0.6089 -1.1798 -1.2023
 8909TIP3   OH248141   6.826   0.280  12.339 -0.0809 -0.8026 -0.0347
 8909TIP3    H148142   6.851   0.372  12.327 -2.2179 -0.3915 -1.7976
 8909TIP3    H248143   6.736   0.284  12.372 -1.1387 -2.2334 -2.5744
 8910TIP3   OH248144   6.905   2.088  14.126  0.2508  0.1625 -0.0783
 8910TIP3    H148145   6.859   2.168  14.103  0.5447  0.5084  0.5363
 8910TIP3    H248146   6.873   2.023  14.064  0.3731  0.8737 -0.8884
 8911TIP3   OH248147   0.793   3.680  12.236 -0.3157 -0.1134  0.0136
 8911TIP3    H148148   0.825   3.763  12.271  0.2225  0.9696 -2.8450
 8911TIP3    H248149   0.725   3.706  12.174 -0.0253 -1.8001 -1.0467
 8912TIP3   OH248150   5.580   6.017  11.734  0.1726 -0.1317 -0.4926
 8912TIP3    H148151   5.534   6.099  11.717 -3.0236 -1.5151  0.9856
 8912TIP3    H248152   5.623   6.031  11.818 -2.1021 -0.5946  0.8022
 8913TIP3   OH248153   5.166   6.166  11.181 -0.1257  0.0218 -0.2761
 8913TIP3    H148154   5.097   6.175  11.115 -1.1182 -0.4947  0.6841
 8913TIP3    H248155   5.205   6.254  11.187 -1.1981  0.4990 -0.2734
 8914TIP3   OH248156   0.461   2.277  12.974 -0.7882  0.1568  0.3465
 8914TIP3    H148157   0.493   2.189  12.990 -0.6883  0.0900 -0.1993
 8914TIP3    H248158   0.455   2.283  12.878 -1.3811  0.5294  0.4068
 8915TIP3   OH248159   0.360   6.455  13.922 -0.7040 -0.0103  0.4231
 8915TIP3    H148160   0.341   6.472  13.830 -0.1567 -1.0799  0.0991
 8915TIP3    H248161   0.437   6.397  13.920 -1.1839 -0.7040  1.5182
 8916TIP3   OH248162   2.444   0.053  14.551  0.2447 -0.0817  0.0579
 8916TIP3    H148163   2.476   0.094  14.471 -0.6942 -0.6222 -0.6010
 8916TIP3    H248164   2.449  -0.041  14.533  1.1130 -0.2444  1.0625
 8917TIP3   OH248165   4.762   0.232  13.570 -0.4914  0.3799  0.4071
 8917TIP3    H148166   4.825   0.241  13.498 -0.5327  0.0427  0.3295
 8917TIP3    H248167   4.780   0.307  13.627  0.5418 -0.1791  0.8250
 8918TIP3   OH248168   2.009   6.532  13.569 -0.4423  0.5250 -0.4291
 8918TIP3    H148169   2.005   6.628  13.563  1.4388  0.6567 -0.0677
 8918TIP3    H248170   2.058   6.505  13.492 -2.5502 -0.3235 -1.4925
 8919TIP3   OH248171   2.703   4.338   0.655  0.0626  0.1135 -0.5050
 8919TIP3    H148172   2.687   4.432   0.660  0.3078  0.1108  0.4019
 8919TIP3    H248173   2.645   4.300   0.721 -0.1445 -0.3860 -0.9736
 8920TIP3   OH248174   2.485   1.205   0.585  0.3704  0.3291 -0.5063
 8920TIP3    H148175   2.513   1.273   0.523 -0.3840 -0.0681 -1.2906
 8920TIP3    H248176   2.559   1.195   0.645  0.5665  1.6979 -0.5112
 8921TIP3   OH248177   4.123   2.588  11.678 -0.1971 -0.7148 -0.5787
 8921TIP3    H148178   4.100   2.504  11.639 -1.4511 -0.7559  0.2206
 8921TIP3    H248179   4.117   2.650  11.605 -0.6676 -1.0960 -0.8750
 8922TIP3   OH248180   4.374   1.965  13.676 -0.0131 -0.2583 -0.2429
 8922TIP3    H148181   4.280   1.951  13.664 -0.2765 -1.1977  2.5729
 8922TIP3    H248182   4.415   1.887  13.638 -0.2927  0.5805 -2.3054
 8923TIP3   OH248183   1.322   2.042  13.658 -0.1775  0.0087  0.0449
 8923TIP3    H148184   1.337   2.045  13.752 -0.9519 -1.7587  0.2501
 8923TIP3    H248185   1.307   2.133  13.633  0.0939  0.5006  1.6135
 8924TIP3   OH248186   6.735   7.008  13.723 -0.1943  0.1211 -0.2391
 8924TIP3    H148187   6.700   7.040  13.640  2.4553 -0.8111 -1.7831
 8924TIP3    H248188   6.810   7.065  13.741  1.4799 -1.9526 -0.4173
 8925TIP3   OH248189   5.555   6.950   0.680  0.1507 -0.2676 -0.3743
 8925TIP3    H148190   5.509   7.028   0.648  0.4080 -0.3470 -0.9482
 8925TIP3    H248191   5.619   6.984   0.742  0.3358 -0.0046 -0.7037
 8926TIP3   OH248192   0.581   2.994  13.210  0.2696 -0.4286 -0.1631
 8926TIP3    H148193   0.534   2.925  13.257 -0.1957 -0.4330 -0.6322
 8926TIP3    H248194   0.551   3.075  13.252  0.2778 -0.4684 -0.0805
 8927TIP3   OH248195   6.776   1.530  14.458  0.4307  0.0392 -0.1026
 8927TIP3    H148196   6.848   1.532  14.394  1.1751 -2.2552  0.6366
 8927TIP3    H248197   6.715   1.464  14.424  0.5173 -0.7375  1.2142
 8928TIP3   OH248198   6.072   0.084   0.929 -0.0218 -0.3347  0.1441
 8928TIP3    H148199   5.999   0.057   0.874  0.5599 -0.3190 -0.6522
 8928TIP3    H248200   6.132   0.010   0.927  0.7277  0.2833 -0.5329
 8929TIP3   OH248201   2.808   5.367   4.453 -0.1230  0.3071  0.3799
 8929TIP3    H148202   2.752   5.407   4.520 -1.3013  0.0741 -0.4681
 8929TIP3    H248203   2.817   5.276   4.481  0.7218  0.5895  1.0834
 8930TIP3   OH248204   5.937   5.548  12.925 -0.0500 -0.5323  0.5887
 8930TIP3    H148205   5.847   5.516  12.922 -0.3893  0.4816 -0.5723
 8930TIP3    H248206   5.956   5.556  13.018 -0.3551 -2.9444  0.8899
 8931TIP3   OH248207   3.191   4.825  10.141 -0.5028 -0.9035 -0.8669
 8931TIP3    H148208   3.213   4.885  10.070 -0.4679  1.1705  0.8575
 8931TIP3    H248209   3.274   4.812  10.187 -0.8307 -1.0419 -0.3088
 8932TIP3   OH248210   7.146   0.905  14.326 -0.0006  0.6446 -0.2889
 8932TIP3    H148211   7.089   0.828  14.322 -1.7014  1.8987 -0.4850
 8932TIP3    H248212   7.185   0.911  14.239  1.2872 -0.8427  0.1672
 8933TIP3   OH248213   2.886   6.112  13.614 -0.2844 -0.2807  0.3753
 8933TIP3    H148214   2.967   6.064  13.637  0.0771  0.2398  0.1873
 8933TIP3    H248215   2.917   6.197  13.582 -0.8732 -0.3696 -0.4354
 8934TIP3   OH248216   6.773   0.221  10.821  0.2750  0.5329 -0.0281
 8934TIP3    H148217   6.795   0.280  10.892  1.9414 -0.1042 -0.0001
 8934TIP3    H248218   6.747   0.140  10.864 -0.6195  0.7671 -0.1076
 8935TIP3   OH248219   2.163   5.070  12.514  0.2058 -0.8700  0.5772
 8935TIP3    H148220   2.198   4.986  12.484  0.1143 -0.5263 -0.5397
 8935TIP3    H248221   2.188   5.132  12.445 -1.3899 -0.3599  0.4418
 8936TIP3   OH248222   3.714   5.431  11.634  0.2800 -0.0289 -0.2536
 8936TIP3    H148223   3.712   5.521  11.667 -0.1745 -0.5288  1.1119
 8936TIP3    H248224   3.735   5.441  11.541  0.9081  1.4462  0.0167
 8937TIP3   OH248225   5.540   3.464  10.564 -0.1620  0.5375 -0.1895
 8937TIP3    H148226   5.551   3.483  10.471 -2.1055  0.8379 -0.3790
 8937TIP3    H248227   5.447   3.476  10.580  0.3353  1.7406  2.0720
 8938TIP3   OH248228   2.779   2.605   1.688 -0.9104  0.2849 -0.3372
 8938TIP3    H148229   2.743   2.691   1.667 -0.1095  0.3033 -1.7651
 8938TIP3    H248230   2.765   2.553   1.609 -0.3776 -0.5535  0.1044
 8939TIP3   OH248231   5.575   0.183   0.282 -0.4683  0.1529  0.1939
 8939TIP3    H148232   5.628   0.195   0.361  1.2329 -1.5110 -0.6625
 8939TIP3    H248233   5.588   0.264   0.233 -2.5342  1.7439  2.1246
 8940TIP3   OH248234   0.138   0.338  11.725  0.1181  0.0214  0.3505
 8940TIP3    H148235   0.137   0.392  11.647 -1.3158 -1.0526 -0.3961
 8940TIP3    H248236   0.213   0.280  11.714  0.3012  0.3151  0.0720
 8941TIP3   OH248237   5.721   4.389  13.830 -0.0486  0.2898  0.2939
 8941TIP3    H148238   5.814   4.369  13.822  0.0871  0.3300  1.6854
 8941TIP3    H248239   5.698   4.432  13.747  1.1124  0.0694 -0.1439
 8942TIP3   OH248240   0.030   1.670  13.703  0.3155  0.3191  0.5417
 8942TIP3    H148241  -0.049   1.620  13.682  0.7639  0.3893 -1.4536
 8942TIP3    H248242   0.013   1.708  13.789 -1.4694 -0.3785  0.5129
 8943TIP3   OH248243   0.524   4.825  14.227 -0.3286  0.4852 -0.3232
 8943TIP3    H148244   0.440   4.778  14.225 -1.6555  2.6993  1.3737
 8943TIP3    H248245   0.503   4.913  14.198  1.2890  1.2270  0.6994
 8944TIP3   OH248246   0.759   4.758   9.874 -0.3692 -0.4213  0.1892
 8944TIP3    H148247   0.674   4.735   9.836 -1.3067  0.1476  1.9087
 8944TIP3    H248248   0.800   4.674   9.893 -0.0420 -0.7148 -1.6847
 8945TIP3   OH248249   6.991   1.242  13.089  0.4357  0.1473 -0.1759
 8945TIP3    H148250   6.917   1.181  13.083  1.1573 -0.6916 -0.6253
 8945TIP3    H248251   7.028   1.244  13.001  0.7722  0.7911 -0.0255
 8946TIP3   OH248252   4.479   4.768   0.181 -0.4608  0.0991 -0.2369
 8946TIP3    H148253   4.410   4.750   0.245 -3.0904  2.0753 -2.4175
 8946TIP3    H248254   4.524   4.684   0.170 -3.0271 -1.4371  0.6410
 8947TIP3   OH248255   4.350   5.268  12.310 -0.8948  0.6747 -0.4142
 8947TIP3    H148256   4.429   5.282  12.361 -1.2443  0.6769  0.1304
 8947TIP3    H248257   4.354   5.334  12.241 -1.1364  1.6187  0.4674
 8948TIP3   OH248258   1.975   0.993  12.282  0.5547  0.3530  0.2981
 8948TIP3    H148259   2.026   0.945  12.347  0.6306  0.3630  0.2468
 8948TIP3    H248260   2.030   0.991  12.204 -0.0378 -0.6490 -0.1054
 8949TIP3   OH248261   0.220   0.427  12.936 -0.3848 -0.1820 -0.7499
 8949TIP3    H148262   0.255   0.498  12.882 -1.1675  1.5374  0.9595
 8949TIP3    H248263   0.236   0.455  13.026 -2.0588 -1.4952 -0.0250
 8950TIP3   OH248264   6.448   2.704  13.286 -0.5362  0.5429 -0.1938
 8950TIP3    H148265   6.472   2.733  13.374  0.4649 -1.1300  0.1229
 8950TIP3    H248266   6.531   2.681  13.245 -0.8986  2.2680 -1.9602
 8951TIP3   OH248267   2.765   4.680  14.323  0.1446 -0.1735 -0.2329
 8951TIP3    H148268   2.821   4.757  14.328 -3.1913  2.5166 -1.9904
 8951TIP3    H248269   2.767   4.653  14.231  0.4133 -1.5214  0.1503
 8952TIP3   OH248270   4.387   2.882  11.186  0.3009 -0.2304 -0.5819
 8952TIP3    H148271   4.466   2.931  11.163 -0.0042 -0.3401 -1.8944
 8952TIP3    H248272   4.361   2.839  11.104 -0.7253 -0.7467  0.0102
 8953TIP3   OH248273   2.083   2.130  12.218  0.5179  0.2107  0.5214
 8953TIP3    H148274   2.042   2.186  12.151  1.3753  2.4131  1.7797
 8953TIP3    H248275   2.131   2.064  12.168  0.1755  1.1118 -1.0336
 8954TIP3   OH248276   2.217   2.724  14.209 -0.3796 -0.0366 -0.1933
 8954TIP3    H148277   2.122   2.729  14.217 -0.4569 -0.7399 -0.6242
 8954TIP3    H248278   2.246   2.686  14.292 -0.5860 -0.9638 -0.5399
 8955TIP3   OH248279   0.415   5.725  13.774  0.1788 -0.1844  0.8563
 8955TIP3    H148280   0.471   5.800  13.792 -0.3418  0.2076  0.8400
 8955TIP3    H248281   0.355   5.754  13.705 -0.8236 -0.2118  1.7000
 8956TIP3   OH248282   0.707   4.809  13.282 -0.0652  0.9391 -0.1385
 8956TIP3    H148283   0.669   4.882  13.330 -1.8616 -1.8713  2.8714
 8956TIP3    H248284   0.634   4.749  13.267  1.6550 -0.9670 -1.1358
 8957TIP3   OH248285   2.688   3.975  11.955  0.6187 -0.7194 -0.0246
 8957TIP3    H148286   2.690   4.059  12.001  0.2829 -0.1495 -1.0381
 8957TIP3    H248287   2.775   3.938  11.971  0.2838 -0.8543  1.6303
 8958TIP3   OH248288   4.522   2.928  13.634  0.5267 -0.6104  0.4312
 8958TIP3    H148289   4.603   2.976  13.617  0.8666 -1.8348 -1.6277
 8958TIP3    H248290   4.536   2.884  13.718  1.3078  0.5828  0.9225
 8959TIP3   OH248291   6.384   0.128  13.957  0.7213  0.6291  0.8568
 8959TIP3    H148292   6.471   0.088  13.952  0.0528 -0.8015  0.7066
 8959TIP3    H248293   6.392   0.207  13.904  0.9067 -1.3703 -2.1682
 8960TIP3   OH248294   6.626   6.307   1.609  0.7732 -1.1772 -0.5616
 8960TIP3    H148295   6.663   6.283   1.694  1.6201 -1.7529 -1.0900
 8960TIP3    H248296   6.570   6.232   1.586 -0.1726 -0.6275 -0.1035
 8961TIP3   OH248297   2.563   3.594  14.344 -0.8850  0.0293  0.2548
 8961TIP3    H148298   2.575   3.500  14.357  1.9781  0.3164 -0.0503
 8961TIP3    H248299   2.567   3.631  14.432  0.1861  0.0811  0.1885
 8962TIP3   OH248300   0.352   6.274   0.168 -0.3937  0.0256 -0.0500
 8962TIP3    H148301   0.397   6.206   0.218 -0.0880 -0.0969 -0.4908
 8962TIP3    H248302   0.285   6.226   0.119 -0.5426  0.1180  0.0611
 8963TIP3   OH248303   1.712   5.374  11.212 -0.4627  0.5808  0.1709
 8963TIP3    H148304   1.733   5.290  11.253 -0.4171  0.7928  0.5832
 8963TIP3    H248305   1.667   5.350  11.131  0.1901  0.1451 -0.0730
 8964TIP3   OH248306   5.674   6.736   3.196  0.3563 -0.1623 -0.4618
 8964TIP3    H148307   5.657   6.816   3.147 -1.1422 -0.8765 -1.1477
 8964TIP3    H248308   5.769   6.729   3.199  0.4840  1.3327 -0.9109
 8965TIP3   OH248309   1.459   6.122   3.873 -0.5196  0.1989  0.6716
 8965TIP3    H148310   1.398   6.151   3.941 -2.9426 -2.3298 -0.2924
 8965TIP3    H248311   1.424   6.160   3.792 -0.5794 -0.8702  0.1802
 8966TIP3   OH248312   0.026   3.785  13.926  0.4761  0.2083 -0.2662
 8966TIP3    H148313   0.050   3.809  13.837 -0.0437  0.2667 -0.3918
 8966TIP3    H248314   0.067   3.700  13.940  2.0170  0.9635  0.0460
 8967TIP3   OH248315   2.329   6.809   0.330  0.2337 -0.3538  0.5211
 8967TIP3    H148316   2.368   6.896   0.324  0.7469 -0.6989 -1.4400
 8967TIP3    H248317   2.397   6.749   0.297 -0.4049 -1.4069  1.0788
 8968TIP3   OH248318   6.577   6.999   2.223 -0.0769 -0.1552  0.5255
 8968TIP3    H148319   6.606   6.921   2.175 -0.2771  0.0403  0.0916
 8968TIP3    H248320   6.537   7.055   2.157  0.5294  0.5471  0.7473
 8969TIP3   OH248321   1.644   0.810  11.547  0.5353  0.2055  0.0962
 8969TIP3    H148322   1.667   0.722  11.517 -0.3657 -0.3788  1.0596
 8969TIP3    H248323   1.605   0.796  11.633 -0.3779  1.4762 -0.0951
 8970TIP3   OH248324   0.262   1.293  15.449 -0.1778 -0.1296 -0.5447
 8970TIP3    H148325   0.346   1.334  15.430 -0.0747  1.1668  2.4400
 8970TIP3    H248326   0.281   1.227  15.515 -1.3867 -0.3399 -0.3937
 8971TIP3   OH248327   5.517   0.823  14.636 -0.0893 -0.0482 -0.4421
 8971TIP3    H148328   5.494   0.830  14.543 -0.4314 -1.1053 -0.4428
 8971TIP3    H248329   5.445   0.867  14.682 -0.2006 -0.0171 -0.6430
 8972TIP3   OH248330   5.465   1.416   0.045 -0.4777 -0.2898 -0.4598
 8972TIP3    H148331   5.519   1.484   0.006  0.5171 -1.2956 -0.8611
 8972TIP3    H248332   5.375   1.448   0.035  0.0597  1.6810  0.7749
 8973TIP3   OH248333   1.034   1.100  13.396 -0.0609 -0.1051 -0.3944
 8973TIP3    H148334   1.065   1.163  13.331 -0.7031 -0.5929 -1.1880
 8973TIP3    H248335   1.093   1.026  13.389  0.3464  0.1678  0.1346
 8974TIP3   OH248336   5.964   0.596   0.271 -0.2165  0.0782  0.4251
 8974TIP3    H148337   6.018   0.518   0.286 -0.2205 -0.3050 -1.3958
 8974TIP3    H248338   5.886   0.581   0.325  0.8204 -0.0522  1.9326
 8975TIP3   OH248339   1.581   6.525  12.440 -0.0345 -0.3665  0.2271
 8975TIP3    H148340   1.643   6.598  12.433  0.5110 -0.7874  0.6678
 8975TIP3    H248341   1.495   6.567  12.436  0.2107 -0.0120 -3.0287
 8976TIP3   OH248342   2.198   6.649  14.825 -0.2783 -0.8081 -0.5275
 8976TIP3    H148343   2.178   6.676  14.736 -1.1123 -1.4307 -0.5341
 8976TIP3    H248344   2.171   6.557  14.829 -0.3277 -0.7590  0.3897
 8977TIP3   OH248345   0.779   0.159  13.565 -0.3951  0.1838 -0.1271
 8977TIP3    H148346   0.857   0.128  13.611 -1.3087 -1.3018  0.4381
 8977TIP3    H248347   0.784   0.255  13.573  0.3191  0.0286  1.6552
 8978TIP3   OH248348   3.814   4.000  11.401 -0.4226  0.4593  0.1162
 8978TIP3    H148349   3.890   3.943  11.391 -1.0579 -0.5794  1.0402
 8978TIP3    H248350   3.757   3.953  11.461 -2.8338  0.1588 -2.3220
 8979TIP3   OH248351   4.250   2.369   1.553 -0.0381 -0.5199  0.3282
 8979TIP3    H148352   4.168   2.416   1.538 -0.1436 -0.9118 -0.3901
 8979TIP3    H248353   4.311   2.407   1.489 -0.2231 -1.5764 -0.5066
 8980TIP3   OH248354   5.483   2.480  12.944 -0.0249  0.4417  0.5572
 8980TIP3    H148355   5.497   2.423  12.869 -0.9896  0.4087  0.3942
 8980TIP3    H248356   5.478   2.568  12.907  1.8858  0.6988  0.8527
 8981TIP3   OH248357   1.092   1.359  12.008 -0.1821  0.5961  0.0494
 8981TIP3    H148358   1.159   1.371  12.075 -0.5911 -0.0236  0.5796
 8981TIP3    H248359   1.015   1.405  12.042 -0.3028  0.5247 -0.1243
 8982TIP3   OH248360   0.667   0.318   0.304  0.8736  0.6469 -0.1096
 8982TIP3    H148361   0.676   0.225   0.286  0.8873  0.3764  1.2536
 8982TIP3    H248362   0.585   0.343   0.262  0.9976  0.0798 -0.6940
 8983TIP3   OH248363   3.294   2.266   0.547 -0.2095 -0.6619  0.8853
 8983TIP3    H148364   3.354   2.328   0.507 -1.6588  0.0745 -0.1761
 8983TIP3    H248365   3.280   2.300   0.636  1.2431 -1.0735  1.2916
 8984TIP3   OH248366   0.829   0.194  14.534 -0.0793  0.1707  0.5464
 8984TIP3    H148367   0.879   0.202  14.615  1.7705 -0.0738 -0.5371
 8984TIP3    H248368   0.842   0.278  14.489 -1.0926  0.3081  0.4845
 8985TIP3   OH248369   6.405   4.404   3.416 -0.0728 -0.1923 -0.0545
 8985TIP3    H148370   6.397   4.450   3.333  1.4068  1.1291  0.5032
 8985TIP3    H248371   6.314   4.386   3.443 -0.5159 -2.0715 -2.7037
 8986TIP3   OH248372   0.041   0.397  13.492  0.3575 -0.1960  0.2323
 8986TIP3    H148373   0.069   0.306  13.503  1.6295 -0.0059 -1.3507
 8986TIP3    H248374   0.115   0.449  13.525  0.2133  0.2795 -0.1876
 8987TIP3   OH248375   1.061   6.493  13.694  0.2313  0.0861  0.0442
 8987TIP3    H148376   1.152   6.509  13.717  1.0353 -0.9982 -2.3074
 8987TIP3    H248377   1.056   6.398  13.678 -1.0579  0.3018 -0.9100
 8988TIP3   OH248378   1.096   2.225  10.772 -0.0039 -0.0368  0.2086
 8988TIP3    H148379   1.081   2.289  10.702 -1.8449  0.4727  1.0397
 8988TIP3    H248380   1.165   2.168  10.738 -0.6844  0.3567 -1.9252
 8989TIP3   OH248381   1.040   0.070  11.840 -0.2623 -1.0399  0.3757
 8989TIP3    H148382   1.126   0.027  11.843 -0.0134 -0.7177 -1.5650
 8989TIP3    H248383   0.995   0.026  11.768 -0.2214  1.5357 -1.2846
 8990TIP3   OH248384   1.748   4.034  14.081 -0.8407 -0.1124 -0.0298
 8990TIP3    H148385   1.698   3.962  14.119  1.3940 -1.0524  1.2858
 8990TIP3    H248386   1.710   4.113  14.119 -1.7923 -0.7601  0.3782
 8991TIP3   OH248387   1.061   3.807  13.251  0.0938  0.1701 -0.1506
 8991TIP3    H148388   1.011   3.836  13.174  0.2609  1.9105  0.3651
 8991TIP3    H248389   1.142   3.771  13.214  0.9788  2.6502 -0.7579
 8992TIP3   OH248390   6.708   1.646  15.026  0.2624 -0.2748 -0.6397
 8992TIP3    H148391   6.779   1.683  14.973  2.4767  0.1262  2.4740
 8992TIP3    H248392   6.708   1.553  15.003  1.3907 -0.1735 -1.1259
 8993TIP3   OH248393   2.008   6.649  11.045 -0.1226 -0.0991  0.2840
 8993TIP3    H148394   2.052   6.641  10.960 -0.9254 -0.1477 -0.1369
 8993TIP3    H248395   1.927   6.599  11.034  0.4324 -1.2995  1.5451
 8994TIP3   OH248396   2.376   0.214  13.854  0.1693  0.1162 -0.1923
 8994TIP3    H148397   2.305   0.208  13.918  0.0264  0.4338 -0.3193
 8994TIP3    H248398   2.411   0.125  13.849  0.6686  0.2429  0.8732
 8995TIP3   OH248399   1.505   0.121   0.880  0.0125 -0.6037 -0.1965
 8995TIP3    H148400   1.442   0.071   0.932  0.7138 -1.8935 -0.5672
 8995TIP3    H248401   1.548   0.056   0.826 -0.5643  0.6996 -2.2702
 8996TIP3   OH248402   6.725   1.582  14.145 -0.2803 -0.1890 -0.1299
 8996TIP3    H148403   6.670   1.657  14.169  2.2545  0.9470  2.3840
 8996TIP3    H248404   6.694   1.510  14.200  1.6885  0.8696  2.4609
 8997TIP3   OH248405   2.480   0.422  13.728  0.2426  0.3390  0.2329
 8997TIP3    H148406   2.458   0.333  13.754 -1.3097 -0.3566 -3.1519
 8997TIP3    H248407   2.405   0.475  13.754  0.1872  0.2512  0.2490
 8998TIP3   OH248408   4.677   2.024   0.329  0.2989  0.4012  0.4523
 8998TIP3    H148409   4.745   1.971   0.371 -0.4545 -0.9110  0.0478
 8998TIP3    H248410   4.595   1.980   0.351 -0.4573  2.1180  1.1538
 8999TIP3   OH248411   4.672   6.693  14.744 -0.0298 -0.6112 -0.7809
 8999TIP3    H148412   4.598   6.751  14.727  0.7908  0.7914  0.2761
 8999TIP3    H248413   4.672   6.684  14.840  1.0647 -0.7082 -0.7916
 9000TIP3   OH248414   0.417   0.252  10.584  0.0624 -0.4064 -0.0479
 9000TIP3    H148415   0.431   0.160  10.560 -0.0485 -0.4854  0.1888
 9000TIP3    H248416   0.505   0.285  10.603  0.3012 -0.0119 -1.7297
 9001TIP3   OH248417   6.357   1.182  15.453  0.3472  1.4408 -0.3380
 9001TIP3    H148418   6.398   1.116  15.508 -0.0101  1.1402 -0.4267
 9001TIP3    H248419   6.340   1.137  15.370  0.6929  1.8313 -0.6223
 9002TIP3   OH248420   6.617   5.393  10.379  0.3330 -0.3659  0.6152
 9002TIP3    H148421   6.539   5.440  10.408  0.7774  0.3826  0.5853
 9002TIP3    H248422   6.686   5.421  10.438  0.5412 -1.1851  0.7693
 9003TIP3   OH248423   1.272   0.882   2.371  0.2251 -0.2369 -0.3844
 9003TIP3    H148424   1.281   0.960   2.317 -2.3379 -0.9970 -1.9679
 9003TIP3    H248425   1.336   0.895   2.441  2.6890  1.4052 -2.7995
 9004TIP3   OH248426   0.106   0.692  10.764  0.6248 -0.5444  0.1311
 9004TIP3    H148427   0.046   0.753  10.807  0.3165 -0.3435 -0.5771
 9004TIP3    H248428   0.186   0.696  10.816  1.0010  1.2884 -0.5496
 9005TIP3   OH248429   5.840   2.193  12.481 -1.0293  0.9808 -0.2837
 9005TIP3    H148430   5.822   2.122  12.419  0.2957 -0.4664  0.9495
 9005TIP3    H248431   5.792   2.168  12.560  0.7611  0.5860  0.7112
 9006TIP3   OH248432   0.746   5.660   1.558 -0.0914  0.7302 -0.2326
 9006TIP3    H148433   0.674   5.678   1.497  0.5066 -0.7097 -1.3958
 9006TIP3    H248434   0.825   5.662   1.503  0.4338 -0.8794  0.4414
 9007TIP3   OH248435   4.811   5.095  11.595 -0.4754  0.0596  0.3480
 9007TIP3    H148436   4.901   5.125  11.600 -0.5532  0.5919 -1.2603
 9007TIP3    H248437   4.773   5.118  11.680  0.9328 -0.3191  1.0905
 9008TIP3   OH248438   1.197   1.096  14.176 -0.1207 -0.0085 -0.1323
 9008TIP3    H148439   1.112   1.068  14.209  0.1428 -2.5283 -1.3944
 9008TIP3    H248440   1.258   1.029  14.209  1.2867  1.5057  0.3749
 9009TIP3   OH248441   6.688   0.756  13.499 -0.1805 -0.8601  0.5885
 9009TIP3    H148442   6.765   0.765  13.555  1.1299 -0.4185 -1.2438
 9009TIP3    H248443   6.722   0.723  13.416 -1.9582 -0.5096 -0.3053
 9010TIP3   OH248444   4.801   0.903  13.944 -0.0165 -0.7261  0.6009
 9010TIP3    H148445   4.888   0.871  13.968  1.7484  2.0148 -1.6989
 9010TIP3    H248446   4.787   0.979  14.000 -0.1236 -0.1186 -0.2295
 9011TIP3   OH248447   1.260   7.035  10.700 -0.4326 -0.1634  0.0714
 9011TIP3    H148448   1.273   6.980  10.622 -2.0531  0.4405 -0.6499
 9011TIP3    H248449   1.183   7.087  10.680 -1.9670 -1.2806  2.8346
 9012TIP3   OH248450   1.053   6.293   0.179 -0.1406  0.5009  0.4298
 9012TIP3    H148451   1.047   6.218   0.120  1.0078 -1.5729  2.8905
 9012TIP3    H248452   1.145   6.320   0.174 -0.1050  0.4967  1.0468
 9013TIP3   OH248453   2.707   5.753   2.511 -0.1536  0.1178  0.0334
 9013TIP3    H148454   2.729   5.739   2.419 -0.9417  0.2602 -0.1835
 9013TIP3    H248455   2.613   5.771   2.510 -0.7228 -2.6313  1.1407
 9014TIP3   OH248456   3.527   1.110   1.754 -0.5019 -0.0389  0.0344
 9014TIP3    H148457   3.446   1.161   1.755  0.2609  1.2011  0.8207
 9014TIP3    H248458   3.500   1.022   1.727 -2.5375 -0.3654  2.8874
 9015TIP3   OH248459   1.641   2.464  12.067 -0.0278 -0.0753  0.8048
 9015TIP3    H148460   1.696   2.543  12.072 -2.7395  1.9602 -0.3997
 9015TIP3    H248461   1.616   2.447  12.158  0.2843  0.6906  1.0401
 9016TIP3   OH248462   2.187   2.742  12.793 -0.1688  0.1406  0.0757
 9016TIP3    H148463   2.120   2.687  12.835 -0.8405  1.1470  0.3387
 9016TIP3    H248464   2.143   2.826  12.779  1.0237  0.7770  0.1619
 9017TIP3   OH248465   4.935   6.648   1.989 -0.2137 -0.1558  0.1491
 9017TIP3    H148466   4.956   6.706   1.916  0.8491 -0.0463  0.5293
 9017TIP3    H248467   4.911   6.565   1.947 -2.7636  0.8291 -0.4400
 9018TIP3   OH248468   3.619   2.469  15.133 -0.0860 -0.4272 -0.1281
 9018TIP3    H148469   3.581   2.420  15.207 -3.6908  0.1251 -1.5543
 9018TIP3    H248470   3.635   2.402  15.066  0.4971 -0.4891  0.0653
 9019TIP3   OH248471   2.271   1.409   2.037 -0.0464 -0.9719  0.4281
 9019TIP3    H148472   2.250   1.320   2.063 -0.1448 -0.3461  2.5977
 9019TIP3    H248473   2.293   1.454   2.119 -0.7822  1.2022 -0.5147
 9020TIP3   OH248474   4.902   5.946  14.860 -0.0270  0.1583 -0.7081
 9020TIP3    H148475   4.915   5.974  14.950 -1.7609 -2.2722  0.3489
 9020TIP3    H248476   4.852   6.018  14.819 -0.7952  0.4831  0.7665
 9021TIP3   OH248477   3.286   1.242  14.914 -0.5862 -0.1713 -0.0632
 9021TIP3    H148478   3.241   1.278  14.838 -0.1836 -0.0109 -0.2246
 9021TIP3    H248479   3.250   1.154  14.924  0.0356 -0.5343 -0.9924
 9022TIP3   OH248480   3.976   1.032  13.395  0.4146 -0.1582  0.1106
 9022TIP3    H148481   3.983   1.023  13.300  0.7561 -1.9991  0.2924
 9022TIP3    H248482   3.883   1.046  13.412  0.2787 -0.3913 -0.4574
 9023TIP3   OH248483   1.468   5.650   1.923  0.3398 -0.4716 -0.2235
 9023TIP3    H148484   1.546   5.703   1.942  0.8614 -1.5683  0.7452
 9023TIP3    H248485   1.396   5.695   1.966  0.9261 -0.9994  1.3338
 9024TIP3   OH248486   0.498   5.919  14.075  0.0957 -0.2939 -0.6525
 9024TIP3    H148487   0.483   5.955  13.987 -3.5118 -0.3335 -0.1311
 9024TIP3    H248488   0.485   5.825  14.064 -0.8994 -0.2374 -0.0035
 9025TIP3   OH248489   5.802   5.219  13.550  0.2329 -0.3889 -0.8901
 9025TIP3    H148490   5.781   5.147  13.609 -0.6011 -1.0755 -2.0308
 9025TIP3    H248491   5.783   5.298  13.601 -2.6803 -0.9757 -1.0190
 9026TIP3   OH248492   0.698   6.153   0.103 -0.0351 -0.6173  0.1442
 9026TIP3    H148493   0.682   6.202   0.022 -0.3365 -0.0101  0.5592
 9026TIP3    H248494   0.648   6.201   0.169  4.0258  1.8093  1.6618
 9027TIP3   OH248495   5.130   6.932  10.982 -0.2677 -0.0452  0.4908
 9027TIP3    H148496   5.130   6.892  10.895 -2.9008 -2.6096  1.5824
 9027TIP3    H248497   5.214   6.907  11.019  0.5394  0.3795 -0.9949
 9028TIP3   OH248498   2.641   5.425  14.275  0.5562 -0.0517 -0.1791
 9028TIP3    H148499   2.637   5.447  14.368  1.3045 -0.6265 -0.0048
 9028TIP3    H248500   2.580   5.487  14.233  1.1590  1.0499  0.5355
 9029TIP3   OH248501   5.654   0.895  13.873  0.8329  0.2574  0.5237
 9029TIP3    H148502   5.652   0.973  13.818 -2.5156 -0.6138 -0.7545
 9029TIP3    H248503   5.734   0.849  13.847 -0.5535 -0.0217 -3.5558
 9030TIP3   OH248504   1.297   0.087   1.527 -0.5424  0.4447 -0.4920
 9030TIP3    H148505   1.386   0.071   1.557 -0.5957  1.0806  0.0316
 9030TIP3    H248506   1.266   0.002   1.497 -0.4479 -0.2144  1.1795
 9031TIP3   OH248507   2.270   2.507  14.957 -0.4430  0.3234 -0.1662
 9031TIP3    H148508   2.269   2.581  14.896  0.2577  0.3013 -0.2115
 9031TIP3    H248509   2.218   2.536  15.032  0.2044  1.0286  0.0142
 9032TIP3   OH248510   3.798   6.937   1.760  0.0742 -0.3701 -0.0943
 9032TIP3    H148511   3.838   6.900   1.682 -0.0097  0.5445 -0.5787
 9032TIP3    H248512   3.748   6.865   1.798  0.7524 -1.0386 -0.4444
 9033TIP3   OH248513   2.171   0.715   2.203 -0.2005 -0.7058 -0.5889
 9033TIP3    H148514   2.196   0.742   2.115 -1.3361 -0.9460 -0.9963
 9033TIP3    H248515   2.151   0.622   2.196 -2.2072 -0.3059 -0.5268
 9034TIP3   OH248516   0.192   2.597   0.851 -0.3757  0.1811 -0.0326
 9034TIP3    H148517   0.244   2.659   0.903 -1.0490  0.4767  0.3022
 9034TIP3    H248518   0.138   2.653   0.795  0.8963 -0.1468 -1.6196
 9035TIP3   OH248519   3.912   1.690   0.535 -0.4496 -0.1248  0.0580
 9035TIP3    H148520   3.826   1.710   0.500 -0.2612  1.2567  0.3571
 9035TIP3    H248521   3.908   1.717   0.626  0.7216  1.2482 -0.2775
 9036TIP3   OH248522   3.750   3.247  14.508 -1.0971  0.8217 -0.1031
 9036TIP3    H148523   3.660   3.279  14.513 -1.2086  0.4448  0.3904
 9036TIP3    H248524   3.798   3.317  14.463 -1.5743  1.1527 -0.1037
 9037TIP3   OH248525   2.025   4.278  10.598  0.0777 -0.0954 -0.3476
 9037TIP3    H148526   2.109   4.234  10.586 -0.2000 -0.9735  0.7920
 9037TIP3    H248527   2.020   4.296  10.692 -2.3397 -2.9255  0.1782
 9038TIP3   OH248528   0.222   5.477  11.153 -0.4206 -0.2907  0.3249
 9038TIP3    H148529   0.129   5.482  11.175 -0.5061  2.1370 -0.4289
 9038TIP3    H248530   0.251   5.395  11.192 -2.9894 -1.3796  0.1094
 9039TIP3   OH248531   3.364   1.823   1.206 -0.5076  0.5271 -0.7881
 9039TIP3    H148532   3.277   1.859   1.224 -0.6497 -1.2750  2.2649
 9039TIP3    H248533   3.348   1.732   1.180  0.6047 -0.6563  2.4984
 9040TIP3   OH248534   2.558   6.767  15.093 -0.0826 -0.1815 -0.1225
 9040TIP3    H148535   2.501   6.692  15.075  1.4030 -1.1972 -0.6602
 9040TIP3    H248536   2.643   6.743  15.055  0.8446  1.1159  1.0690
 9041TIP3   OH248537   5.454   0.498   3.387  0.3872  0.3579  0.6527
 9041TIP3    H148538   5.507   0.449   3.323  2.0005  1.0293  1.4327
 9041TIP3    H248539   5.433   0.580   3.343 -1.4855 -0.5932 -0.2901
 9042TIP3   OH248540   3.307   6.114  13.482  0.1739  0.2439  0.1817
 9042TIP3    H148541   3.370   6.183  13.501  0.0979  0.9171 -1.9108
 9042TIP3    H248542   3.238   6.157  13.431 -1.4869 -0.6893  1.5657
 9043TIP3   OH248543   0.877   2.896  15.418 -0.3379 -0.0446 -0.1393
 9043TIP3    H148544   0.936   2.970  15.404 -0.7819  0.5191  0.9237
 9043TIP3    H248545   0.789   2.932  15.405 -0.4798 -0.7703 -1.2413
 9044TIP3   OH248546   7.058   6.115  12.591  0.0769 -0.1078 -0.8089
 9044TIP3    H148547   7.004   6.052  12.639  1.7278 -0.4999  0.6114
 9044TIP3    H248548   7.024   6.201  12.617  0.6004 -0.3332  0.6744
 9045TIP3   OH248549   0.518   4.474   0.067 -0.1204  0.1761  0.1120
 9045TIP3    H148550   0.549   4.407   0.006  0.5048 -0.4083  1.0745
 9045TIP3    H248551   0.593   4.532   0.079  0.2503 -0.5885  1.5406
 9046TIP3   OH248552   6.021   0.984  13.216 -0.0004  0.1294  0.1313
 9046TIP3    H148553   5.934   0.991  13.177  0.4883 -2.8248 -1.6322
 9046TIP3    H248554   6.005   0.965  13.309 -1.2853 -2.2516 -0.5437
 9047TIP3   OH248555   5.973   1.235   1.000  0.8296 -0.1198  0.0782
 9047TIP3    H148556   6.040   1.303   0.988  1.7006 -0.6849  1.4856
 9047TIP3    H248557   5.993   1.170   0.932  1.6901 -0.2515  0.4414
 9048TIP3   OH248558   1.759   3.681  13.316 -0.7223 -0.0445  0.6082
 9048TIP3    H148559   1.673   3.684  13.357 -0.9258  2.1952  0.0893
 9048TIP3    H248560   1.754   3.744  13.244  1.1546 -0.3161  0.2036
 9049TIP3   OH248561   6.879   3.531  14.245 -0.2339 -0.2808 -0.1787
 9049TIP3    H148562   6.944   3.546  14.314 -1.7682  0.1977  1.2077
 9049TIP3    H248563   6.930   3.507  14.168  1.7837  2.9289  0.0616
 9050TIP3   OH248564   1.306   6.083   1.288 -0.5889  0.5002 -0.4038
 9050TIP3    H148565   1.364   6.105   1.215 -1.8349  1.6835 -1.0600
 9050TIP3    H248566   1.229   6.045   1.245 -1.7374  2.0945  0.2327
 9051TIP3   OH248567   5.521   6.924   1.304  0.5047 -0.7654 -0.0275
 9051TIP3    H148568   5.524   6.829   1.294 -1.4293 -0.6419 -1.9584
 9051TIP3    H248569   5.544   6.958   1.217  1.9255  0.5620  0.8363
 9052TIP3   OH248570   2.139   1.311  13.457  0.4925  0.4624  0.1312
 9052TIP3    H148571   2.206   1.372  13.488  2.4734 -1.2739 -0.5878
 9052TIP3    H248572   2.132   1.328  13.363  2.6486 -1.8204 -0.4997
 9053TIP3   OH248573   4.898   3.432   1.844 -0.8091 -0.4686 -0.2444
 9053TIP3    H148574   4.914   3.365   1.778 -3.6159  1.0109 -2.5405
 9053TIP3    H248575   4.958   3.503   1.820 -1.6211 -0.0490 -1.0997
 9054TIP3   OH248576   7.133   4.985  15.463  0.2639 -0.1670 -0.3220
 9054TIP3    H148577   7.100   4.900  15.493  2.1142 -1.3326 -1.5277
 9054TIP3    H248578   7.058   5.023  15.417 -1.2285 -0.2205  1.9344
 9055TIP3   OH248579   3.644   0.095   1.658  0.2437 -0.6879 -0.3399
 9055TIP3    H148580   3.556   0.130   1.671  0.2956 -0.4772 -0.5698
 9055TIP3    H248581   3.702   0.161   1.694  0.3629 -0.3359 -1.1692
 9056TIP3   OH248582   0.874   6.709   0.906 -0.1116 -0.4566 -0.1743
 9056TIP3    H148583   0.842   6.798   0.923 -0.0434 -0.3515 -0.5875
 9056TIP3    H248584   0.796   6.655   0.903 -0.1330 -0.4615  0.3727
 9057TIP3   OH248585   0.110   3.790  15.124 -0.3572  0.0735  0.2140
 9057TIP3    H148586   0.116   3.882  15.097 -0.7749  0.1368  0.3361
 9057TIP3    H248587   0.023   3.763  15.096  0.3843 -0.7733 -1.3405
 9058TIP3   OH248588   2.480   7.067  15.479 -0.0824 -0.0928  0.7068
 9058TIP3    H148589   2.450   7.003  15.415 -0.2325  0.1170  0.5678
 9058TIP3    H248590   2.403   7.085  15.533 -0.6152  1.5434 -0.5550
 9059TIP3   OH248591   1.255   5.537  12.156 -0.2357 -0.2165  0.2364
 9059TIP3    H148592   1.253   5.465  12.220 -2.4960  0.7265  1.2896
 9059TIP3    H248593   1.171   5.530  12.111 -0.1636  1.3372 -0.1455
 9060TIP3   OH248594   0.922   1.314   2.213 -0.4744  0.2140 -0.4543
 9060TIP3    H148595   0.836   1.286   2.244 -0.5631  0.6940 -0.2688
 9060TIP3    H248596   0.909   1.337   2.121 -0.7588  1.2476 -0.1571
 9061TIP3   OH248597   0.969   7.028  13.834  0.1121  0.4433 -0.4045
 9061TIP3    H148598   0.938   6.986  13.753 -0.1035 -1.1643  0.4908
 9061TIP3    H248599   1.054   6.986  13.850 -0.3634 -0.0503  0.8123
 9062TIP3   OH248600   1.827   5.902  15.019 -0.0216 -0.3933  0.2446
 9062TIP3    H148601   1.824   5.992  14.984 -1.1756 -0.4172  0.2553
 9062TIP3    H248602   1.910   5.867  14.986 -0.3037  0.1426 -1.1045
 9063TIP3   OH248603   6.114   2.679  15.308 -0.4912  0.2250  0.6283
 9063TIP3    H148604   6.134   2.704  15.398  1.7072 -0.3498  0.3207
 9063TIP3    H248605   6.129   2.759  15.257  3.6442 -0.8160  0.0554
 9064TIP3   OH248606   1.297   2.799   0.600  0.4906  0.3257  0.6062
 9064TIP3    H148607   1.350   2.861   0.650 -0.5068 -0.2093  2.3538
 9064TIP3    H248608   1.209   2.837   0.600  0.1320 -0.4925  0.6516
 9065TIP3   OH248609   5.335   0.937  13.795 -0.0681  0.2878 -0.1720
 9065TIP3    H148610   5.430   0.933  13.808 -0.3178 -0.3566  1.5534
 9065TIP3    H248611   5.323   0.929  13.700  1.4997 -1.5708 -0.2430
 9066TIP3   OH248612   2.202   2.148   1.137  0.1335  0.4210  0.2817
 9066TIP3    H148613   2.227   2.059   1.111  0.8508  0.8734 -0.5992
 9066TIP3    H248614   2.129   2.135   1.198 -0.2837 -0.7497 -0.4318
 9067TIP3   OH248615   6.176   5.485  11.837  0.0512 -0.6705 -0.0833
 9067TIP3    H148616   6.148   5.575  11.819  2.9341  0.3314  0.2864
 9067TIP3    H248617   6.136   5.434  11.766 -1.7584  0.8495 -0.2042
 9068TIP3   OH248618   5.334   0.221  12.294 -0.5444 -0.0184  0.4177
 9068TIP3    H148619   5.373   0.305  12.321 -0.5714  0.2499 -0.3700
 9068TIP3    H248620   5.258   0.245  12.241  0.2682 -0.5208 -1.0150
 9069TIP3   OH248621   3.339   0.805   0.747 -0.1502 -0.0327  0.5750
 9069TIP3    H148622   3.399   0.845   0.683 -0.7196  0.5948  0.4252
 9069TIP3    H248623   3.353   0.855   0.828 -1.3717  0.9729  0.1977
 9070TIP3   OH248624   3.770   6.823  15.083 -0.2815 -0.6315  0.0287
 9070TIP3    H148625   3.751   6.821  15.177 -0.0383 -1.6761  0.0562
 9070TIP3    H248626   3.684   6.834  15.042 -0.2792  0.8896  0.4100
 9071TIP3   OH248627   4.273   0.217  11.244 -0.2499  0.0652  0.2541
 9071TIP3    H148628   4.283   0.126  11.218  1.1077  0.0192  0.9041
 9071TIP3    H248629   4.242   0.261  11.164 -2.1745 -1.1608  0.2893
 9072TIP3   OH248630   2.946   2.866  14.029  0.0058  0.1109  0.1243
 9072TIP3    H148631   2.958   2.786  13.977  1.2815  0.4125 -0.0550
 9072TIP3    H248632   3.012   2.859  14.099 -0.7873  0.3616  0.9109
 9073TIP3   OH248633   0.786   2.482  12.830 -0.7035 -0.1664  0.5509
 9073TIP3    H148634   0.770   2.389  12.816  0.9015 -0.5866  1.4968
 9073TIP3    H248635   0.828   2.512  12.750 -0.5203 -0.4203  0.5537
 9074TIP3   OH248636   3.296   3.472  11.200  0.1136 -0.0892  0.0554
 9074TIP3    H148637   3.361   3.419  11.246  0.2110 -1.1507 -1.2638
 9074TIP3    H248638   3.314   3.561  11.228  2.2427 -0.3402 -0.3768
 9075TIP3   OH248639   6.819   5.983  12.464  0.0856 -0.1946 -0.7085
 9075TIP3    H148640   6.748   5.944  12.415 -1.2281  1.3269 -0.0808
 9075TIP3    H248641   6.833   6.069  12.423  0.7938 -0.0252 -0.1377
 9076TIP3   OH248642   5.805   5.517  12.133  0.1317 -0.6065 -0.4521
 9076TIP3    H148643   5.812   5.559  12.047 -1.3086  0.2044 -0.1912
 9076TIP3    H248644   5.727   5.556  12.172 -1.0641 -3.3045 -0.0678
 9077TIP3   OH248645   4.945   5.931   1.927  0.7230 -0.1492 -0.2842
 9077TIP3    H148646   5.009   5.935   1.855 -0.7432 -1.8101 -1.7153
 9077TIP3    H248647   4.871   5.882   1.891 -2.0917  3.0917  0.8027
 9078TIP3   OH248648   4.995   1.430  12.801  0.2857 -0.6468 -0.8503
 9078TIP3    H148649   4.941   1.411  12.725 -0.8523 -0.3693 -0.1196
 9078TIP3    H248650   5.059   1.495  12.770 -0.1189 -0.5963 -1.5784
 9079TIP3   OH248651   3.226   5.998  14.659 -0.0038 -0.1411 -0.3026
 9079TIP3    H148652   3.232   5.903  14.667 -0.2863 -0.0050  1.8009
 9079TIP3    H248653   3.132   6.016  14.653  0.0087  0.0710  0.1630
 9080TIP3   OH248654   6.845   2.431  13.434 -0.0166 -0.3039 -0.2248
 9080TIP3    H148655   6.846   2.526  13.424 -1.4180 -0.5673 -3.3234
 9080TIP3    H248656   6.921   2.412  13.489  1.6618  2.3971 -1.5089
 9081TIP3   OH248657   4.674   0.484  12.575  0.1895  0.0245  0.5683
 9081TIP3    H148658   4.642   0.401  12.541  1.6988 -1.6550  3.1207
 9081TIP3    H248659   4.596   0.541  12.576 -0.3532 -0.5110 -3.4702
 9082TIP3   OH248660   2.142   0.738   0.353 -0.6594 -0.4126 -1.1286
 9082TIP3    H148661   2.233   0.738   0.384 -1.0185 -1.4718 -0.0073
 9082TIP3    H248662   2.116   0.830   0.353  0.1062 -0.1929 -0.4926
 9083TIP3   OH248663   0.347   5.479  14.222  0.4164  0.4979  0.7358
 9083TIP3    H148664   0.438   5.464  14.198 -0.0264 -3.3120  1.0284
 9083TIP3    H248665   0.340   5.446  14.312 -1.3279  0.2166  0.5288
 9084TIP3   OH248666   2.373   5.429  12.155  0.0386 -0.1019 -0.1215
 9084TIP3    H148667   2.352   5.519  12.132  1.1991  0.2192  0.0112
 9084TIP3    H248668   2.327   5.375  12.091 -1.7318  0.5257  0.6030
 9085TIP3   OH248669   4.216   5.948  15.001 -0.0691  0.0175 -0.4018
 9085TIP3    H148670   4.221   5.866  15.052  1.7222  1.2158  1.4301
 9085TIP3    H248671   4.306   5.964  14.974 -0.5460  0.9910 -1.4022
 9086TIP3   OH248672   5.947   3.365  14.724  0.3660 -0.3551 -0.6081
 9086TIP3    H148673   5.942   3.418  14.804  0.1235 -1.3223  0.0269
 9086TIP3    H248674   5.858   3.369  14.688  0.5497  0.3266 -0.9996
 9087TIP3   OH248675   2.026   3.288   0.778 -0.0604 -0.0278 -0.5573
 9087TIP3    H148676   2.063   3.300   0.865 -0.6460 -0.9231 -0.1808
 9087TIP3    H248677   2.058   3.201   0.751 -3.1689 -1.5401  0.4298
 9088TIP3   OH248678   2.286   2.144  13.017  0.0247 -0.1197 -0.4224
 9088TIP3    H148679   2.300   2.189  12.934  0.7934 -1.9801 -1.3320
 9088TIP3    H248680   2.190   2.144  13.028  0.0551  2.8937  0.3080
 9089TIP3   OH248681   4.274   3.389   0.307 -0.1979 -0.2027  0.0720
 9089TIP3    H148682   4.207   3.322   0.300 -1.2313  0.6316  1.7317
 9089TIP3    H248683   4.304   3.384   0.397  0.1127  1.1922  0.0542
 9090TIP3   OH248684   1.733   2.081  14.075 -0.3338 -0.1307  0.1481
 9090TIP3    H148685   1.644   2.115  14.083 -0.6685 -0.8713 -0.3692
 9090TIP3    H248686   1.741   2.018  14.146 -0.9460 -1.6137 -1.0849
 9091TIP3   OH248687   0.314   3.575  12.029 -0.9305 -0.3137  0.1404
 9091TIP3    H148688   0.351   3.593  12.115 -2.0401 -1.5372  0.8884
 9091TIP3    H248689   0.389   3.559  11.973 -0.0288  3.2002  0.1957
 9092TIP3   OH248690   1.192   4.726   0.446 -0.3971 -0.1997  0.5385
 9092TIP3    H148691   1.143   4.764   0.519  1.1192  1.2221  0.8326
 9092TIP3    H248692   1.168   4.780   0.371  0.7326  0.5151  0.6881
 9093TIP3   OH248693   6.192   5.884  13.772 -0.1995  0.6218 -0.0201
 9093TIP3    H148694   6.249   5.863  13.846  0.0004  0.2818 -0.2662
 9093TIP3    H248695   6.253   5.905  13.700 -0.3680 -0.8146 -0.5946
 9094TIP3   OH248696   4.896   1.460  15.248  0.9551  0.2104  0.2461
 9094TIP3    H148697   4.913   1.499  15.162  1.5083 -3.2376 -1.2922
 9094TIP3    H248698   4.891   1.366  15.231 -2.1991 -0.3167  3.4846
 9095TIP3   OH248699   2.356   5.931  13.483  0.3306  0.5946  0.1487
 9095TIP3    H148700   2.442   5.956  13.517 -0.5369  0.8658  2.1991
 9095TIP3    H248701   2.319   5.874  13.551 -0.5075 -0.7282 -1.3932
 9096TIP3   OH248702   4.905   4.215   0.081 -0.2048  0.1542  0.0422
 9096TIP3    H148703   4.847   4.180   0.149 -0.6178  0.6213 -0.0620
 9096TIP3    H248704   4.989   4.228   0.124 -0.0418 -0.9754  0.0766
 9097TIP3   OH248705   5.571   3.360  11.811  0.1547 -0.5508 -0.0401
 9097TIP3    H148706   5.493   3.360  11.867  0.7202  0.3918  0.7717
 9097TIP3    H248707   5.538   3.345  11.723 -1.1203  1.4777  0.0746
 9098TIP3   OH248708   3.861   5.916  15.374  0.2103  0.3654  0.2191
 9098TIP3    H148709   3.888   5.964  15.296 -0.1382  1.2567  0.6339
 9098TIP3    H248710   3.909   5.833  15.369 -0.3307  0.1245 -1.2778
 9099TIP3   OH248711   3.909   1.079   1.087 -0.5705  0.2289 -0.2456
 9099TIP3    H148712   3.871   1.166   1.071 -1.0781  0.0884  0.2094
 9099TIP3    H248713   3.999   1.097   1.114 -0.7903  0.6317  0.2236
 9100TIP3   OH248714   5.307   4.220   1.357  0.0193 -0.0656 -0.1878
 9100TIP3    H148715   5.384   4.218   1.414  0.5543 -2.6263 -0.9136
 9100TIP3    H248716   5.342   4.237   1.270 -0.2699 -0.7106 -0.4366
 9101TIP3   OH248717   2.451   4.531  11.892  0.0223 -0.1211  0.1722
 9101TIP3    H148718   2.490   4.558  11.809  5.2659  0.6518  2.7121
 9101TIP3    H248719   2.387   4.600  11.912  0.8429  1.2416 -1.7830
 9102TIP3   OH248720   2.787   1.778  11.086  0.7333 -0.1085  0.5124
 9102TIP3    H148721   2.847   1.788  11.012 -0.2104 -1.2276 -0.4166
 9102TIP3    H248722   2.789   1.684  11.107 -0.6753 -0.1604  0.4784
 9103TIP3   OH248723   0.310   0.149   0.333 -0.0760 -0.1005 -0.1285
 9103TIP3    H148724   0.308   0.137   0.238 -1.8468 -1.4682  0.0541
 9103TIP3    H248725   0.348   0.069   0.367  1.4927  0.8000  0.2715
 9104TIP3   OH248726   3.995   4.858  13.006  0.2499 -0.3643  0.1401
 9104TIP3    H148727   3.920   4.831  13.060  1.2142 -0.0829  1.6292
 9104TIP3    H248728   3.955   4.900  12.929 -1.1329 -0.9240  0.5362
 9105TIP3   OH248729   3.779   7.124  13.022  0.0392 -0.4171  0.1794
 9105TIP3    H148730   3.739   7.208  13.042  1.8683  0.4288  0.2938
 9105TIP3    H248731   3.715   7.081  12.964 -1.0748  0.8630  0.4362
 9106TIP3   OH248732   2.532   6.239  15.029  0.1338 -0.0293 -0.6345
 9106TIP3    H148733   2.595   6.294  14.982  1.7981 -1.0381  0.3713
 9106TIP3    H248734   2.455   6.235  14.971  1.7344 -0.4092 -2.7763
 9107TIP3   OH248735   5.640   5.661  13.684 -0.4537  0.5625  0.3783
 9107TIP3    H148736   5.648   5.754  13.664 -0.0167  0.6964  1.1605
 9107TIP3    H248737   5.558   5.653  13.732  0.3728  0.8207  1.8671
 9108TIP3   OH248738   4.124   4.741  14.788  0.0853 -0.6152  0.1699
 9108TIP3    H148739   4.030   4.755  14.779  0.3032  0.6390 -0.2046
 9108TIP3    H248740   4.162   4.776  14.708  0.9439 -0.3042  0.6995
 9109TIP3   OH248741   0.772   0.665  14.801 -0.4047 -0.5622  0.4220
 9109TIP3    H148742   0.801   0.575  14.787  0.8009 -0.3074  1.2499
 9109TIP3    H248743   0.852   0.714  14.821 -1.1472  0.5300  0.7852
 9110TIP3   OH248744   5.801   6.132  12.377  0.0920  0.1612  0.0241
 9110TIP3    H148745   5.797   6.185  12.297  1.4682  1.9131  1.0761
 9110TIP3    H248746   5.873   6.071  12.362  0.7308  0.8766  0.1368
 9111TIP3   OH248747   3.502   1.483  14.148 -0.1120 -0.1063 -0.2537
 9111TIP3    H148748   3.500   1.432  14.229  1.4878 -0.3301 -0.3436
 9111TIP3    H248749   3.506   1.417  14.079 -0.0198  0.1129 -0.4572
 9112TIP3   OH248750   2.196   0.899  13.280  0.1066  0.5870  0.3600
 9112TIP3    H148751   2.106   0.925  13.260 -0.0313  0.3197  0.6266
 9112TIP3    H248752   2.220   0.841  13.207 -0.4193 -0.4367  0.9789
 9113TIP3   OH248753   6.658   7.115   0.990  0.5619 -0.5558  0.0212
 9113TIP3    H148754   6.626   7.028   1.017  3.8648 -0.6803  4.0640
 9113TIP3    H248755   6.720   7.097   0.920 -0.9247 -1.1245 -1.1933
 9114TIP3   OH248756   2.216   5.900  15.162  0.4166 -0.2350 -0.4285
 9114TIP3    H148757   2.266   5.831  15.207 -0.1055  0.5418  1.3841
 9114TIP3    H248758   2.162   5.853  15.099 -0.2420 -1.5530  1.0853
 9115TIP3   OH248759   2.430   7.089  13.943 -0.1468  0.3756 -0.5052
 9115TIP3    H148760   2.442   7.101  14.037  1.1037  0.9887 -0.7307
 9115TIP3    H248761   2.479   7.010  13.922 -0.9743 -0.1326 -0.5327
 9116TIP3   OH248762   7.047   0.998  15.245  0.3194  0.2363  0.4079
 9116TIP3    H148763   7.093   0.989  15.162 -0.4280 -0.6494  0.0876
 9116TIP3    H248764   7.011   1.086  15.243  2.0645  0.9773  0.6993
 9117TIP3   OH248765   5.756   5.413  11.277  0.0473  0.2949  0.0075
 9117TIP3    H148766   5.789   5.352  11.211  0.0494  0.7541 -0.4193
 9117TIP3    H248767   5.731   5.491  11.227 -0.7480  0.3215  0.4500
 9118TIP3   OH248768   3.822   6.155  13.848 -0.8213  0.3372 -0.2840
 9118TIP3    H148769   3.779   6.078  13.885 -0.6484  0.1788 -0.4116
 9118TIP3    H248770   3.817   6.221  13.917  1.1588 -0.5437  0.7307
 9119TIP3   OH248771   5.862   5.970  11.588  0.3956 -0.2308  1.0554
 9119TIP3    H148772   5.879   6.017  11.670  3.1364 -2.1097  1.6330
 9119TIP3    H248773   5.936   5.910  11.579  0.3179  0.1362 -2.9839
 9120TIP3   OH248774   2.055   4.705  13.892 -0.3607  0.3874 -0.2159
 9120TIP3    H148775   2.105   4.705  13.973  0.0031  1.3596 -0.4358
 9120TIP3    H248776   2.090   4.631  13.843  0.9095  1.0736 -0.3863
 9121TIP3   OH248777   6.091   2.322  14.074 -0.3241 -0.3142  0.3877
 9121TIP3    H148778   6.056   2.410  14.086 -1.3964 -0.7725  0.6274
 9121TIP3    H248779   6.173   2.335  14.026 -0.0444  0.8810  1.1683
 9122TIP3   OH248780   0.169   5.984  10.291 -0.4501 -0.0180  0.2629
 9122TIP3    H148781   0.252   6.025  10.268 -1.1946  1.3133 -0.1271
 9122TIP3    H248782   0.138   6.033  10.367 -1.7188  0.6894 -0.6813
 9123TIP3   OH248783   5.258   6.053  12.371 -0.0417 -0.2474 -0.6865
 9123TIP3    H148784   5.295   6.088  12.452 -0.1389  0.0377 -0.7633
 9123TIP3    H248785   5.311   5.976  12.352 -0.0980 -0.3867 -0.2846
 9124TIP3   OH248786   6.858   6.898  14.504 -0.4030 -0.2693  0.2305
 9124TIP3    H148787   6.764   6.914  14.499 -0.4510  0.0839  2.0260
 9124TIP3    H248788   6.883   6.875  14.414 -2.1039  0.1104 -0.3611
 9125TIP3   OH248789   0.606   2.307  14.575 -0.6447 -0.2783 -0.1992
 9125TIP3    H148790   0.618   2.217  14.546  1.9550  0.2374 -0.8809
 9125TIP3    H248791   0.636   2.360  14.501  0.3503  1.1032  1.1559
 9126TIP3   OH248792   0.976   5.332  14.553  0.4458 -0.3075 -0.2243
 9126TIP3    H148793   1.007   5.327  14.462  0.1784  0.4858 -0.3696
 9126TIP3    H248794   0.886   5.299  14.550  0.1886  0.3877 -0.3862
 9127TIP3   OH248795   2.557   1.410   0.415 -0.6814 -0.0431 -0.2649
 9127TIP3    H148796   2.638   1.446   0.449  0.9267 -1.6544 -2.2761
 9127TIP3    H248797   2.544   1.453   0.331 -0.4781 -1.6885 -1.1714
 9128TIP3   OH248798   2.244   3.614  11.912  0.3481 -0.4277 -0.3707
 9128TIP3    H148799   2.197   3.692  11.880  0.6293  0.2360  0.7982
 9128TIP3    H248800   2.328   3.618  11.867  0.3466 -0.0866 -0.3458
 9129TIP3   OH248801   3.347   0.208  13.450 -0.1100 -0.1559 -0.0231
 9129TIP3    H148802   3.313   0.185  13.363  0.1956  0.9153 -0.4417
 9129TIP3    H248803   3.277   0.184  13.510 -0.5836 -0.3369 -0.6341
 9130TIP3   OH248804   6.162   3.260  14.572 -0.2658  0.0246 -0.4979
 9130TIP3    H148805   6.102   3.300  14.635 -0.2563  0.6721 -0.8965
 9130TIP3    H248806   6.114   3.260  14.489 -0.5463 -1.4766 -0.3504
 9131TIP3   OH248807   2.356   6.544  13.422  0.4496 -0.5362  0.1357
 9131TIP3    H148808   2.421   6.571  13.488  1.0777 -1.4530 -0.0975
 9131TIP3    H248809   2.396   6.468  13.379  0.2806  0.3920 -1.6855
 9132TIP3   OH248810   5.868   6.661  13.366 -0.7233  0.3873  0.0254
 9132TIP3    H148811   5.801   6.596  13.346 -1.8217  1.3387  0.5556
 9132TIP3    H248812   5.951   6.613  13.359 -1.4694 -0.8732 -0.3348
 9133TIP3   OH248813   6.929   6.904  13.025  0.2214 -0.1344 -0.2147
 9133TIP3    H148814   6.888   6.901  13.112  0.9059 -2.4153  0.0794
 9133TIP3    H248815   6.993   6.974  13.031  1.2503 -1.1782  1.6088
 9134TIP3   OH248816   2.568   6.984  14.176 -0.2477 -0.0792 -0.7921
 9134TIP3    H148817   2.546   6.898  14.140 -2.1876  0.0294  0.0918
 9134TIP3    H248818   2.664   6.990  14.169 -0.1335 -2.1828 -1.1123
 9135TIP3   OH248819   0.701   4.379  14.960 -0.3062  0.2561  0.0254
 9135TIP3    H148820   0.791   4.354  14.940 -0.6397 -1.5981  0.7000
 9135TIP3    H248821   0.683   4.452  14.902  2.2489  1.9197  1.2010
 9136TIP3   OH248822   2.984   5.500  12.759 -0.0194  0.1987  0.5327
 9136TIP3    H148823   2.939   5.582  12.780  0.9134  0.7299  0.4680
 9136TIP3    H248824   3.077   5.521  12.764  0.2355 -0.9978  1.0506
 9137TIP3   OH248825   5.133   4.662  13.762  0.0873  0.0756  0.0058
 9137TIP3    H148826   5.156   4.720  13.835  0.3904  0.9750 -0.7921
 9137TIP3    H248827   5.216   4.651  13.714 -0.7211  2.0038 -1.9589
 9138TIP3   OH248828   6.561   3.331  14.184  0.8264  0.5026 -0.5406
 9138TIP3    H148829   6.479   3.318  14.230  1.6116  0.0062  0.7311
 9138TIP3    H248830   6.588   3.420  14.207  0.2874  0.9411 -1.5539
 9139TIP3   OH248831   2.850   1.905  12.768 -0.0764 -0.4100 -0.0021
 9139TIP3    H148832   2.756   1.922  12.776 -0.1033 -0.7862  0.5016
 9139TIP3    H248833   2.887   1.989  12.741 -0.4615 -0.0584  0.5371
 9140TIP3   OH248834   4.893   6.099  13.621  0.5060  0.3968  0.1656
 9140TIP3    H148835   4.868   6.007  13.628 -0.3076  0.5600 -0.5456
 9140TIP3    H248836   4.927   6.108  13.532 -1.6131  1.2886 -0.5934
 9141TIP3   OH248837   2.398   2.523  14.045  0.2954  0.0599 -0.2935
 9141TIP3    H148838   2.385   2.439  14.090  1.8189 -1.3637 -2.4280
 9141TIP3    H248839   2.333   2.581  14.084  0.3653 -1.6248  2.4449
 9142TIP3   OH248840   0.459   4.300  11.916  0.3580  0.2904 -0.2117
 9142TIP3    H148841   0.527   4.360  11.886 -2.1653  3.4952  0.1858
 9142TIP3    H248842   0.415   4.271  11.837  1.7205 -1.3173 -0.4227
 9143TIP3   OH248843   5.669   5.795  14.422  0.0948 -0.1637  0.1036
 9143TIP3    H148844   5.625   5.716  14.455 -1.5874  0.0196 -1.5807
 9143TIP3    H248845   5.694   5.843  14.501 -2.9461 -0.2013  1.1629
 9144TIP3   OH248846   3.524   6.899  13.427  0.0240 -0.2971  0.4388
 9144TIP3    H148847   3.591   6.943  13.480 -1.2361 -1.4497  3.0593
 9144TIP3    H248848   3.566   6.818  13.398  0.1380 -0.5202  1.2012
 9145TIP3   OH248849   4.464   4.959  10.940  0.0703  0.1430 -0.0409
 9145TIP3    H148850   4.409   5.026  10.899 -0.3584 -0.0733  0.1650
 9145TIP3    H248851   4.483   4.897  10.869 -1.7422 -0.9113  0.3666
 9146TIP3   OH248852   0.383   0.132  11.704 -0.0303 -0.1148  0.0051
 9146TIP3    H148853   0.451   0.199  11.711  1.1665 -1.3913  0.9155
 9146TIP3    H248854   0.431   0.049  11.705 -1.5428 -1.0090 -0.2513
 9147TIP3   OH248855   5.046   0.844  14.057 -0.1413 -0.5426  0.7998
 9147TIP3    H148856   5.136   0.824  14.084 -0.1088 -0.6418  0.6142
 9147TIP3    H248857   5.021   0.918  14.112 -0.7415 -1.9153  2.4104
 9148TIP3   OH248858   0.433   5.155   3.226  0.1362 -0.1916  0.3283
 9148TIP3    H148859   0.467   5.222   3.168 -0.2448  1.7589  2.2962
 9148TIP3    H248860   0.338   5.161   3.217  0.0985 -0.4893  0.5014
 9149TIP3   OH248861   0.591   0.495   0.646 -0.1165  0.4671 -0.2172
 9149TIP3    H148862   0.534   0.492   0.723  2.1898  1.7125  1.5845
 9149TIP3    H248863   0.608   0.404   0.625 -1.0921  0.1120  0.5107
 9150TIP3   OH248864   2.482   4.885  15.401 -0.1255 -0.1068  0.2291
 9150TIP3    H148865   2.531   4.847  15.328  1.6235  0.2733  1.1533
 9150TIP3    H248866   2.531   4.963  15.425 -0.3200 -0.5343  2.1659
 9151TIP3   OH248867   4.106   5.002   4.959 -0.0707  0.3924 -0.1564
 9151TIP3    H148868   4.113   4.947   4.881  0.4738 -2.0208  1.5456
 9151TIP3    H248869   4.012   5.008   4.976 -0.2863  2.1479 -1.8031
 9152TIP3   OH248870   1.720   5.874  14.079 -0.4475  0.5659  0.2372
 9152TIP3    H148871   1.650   5.902  14.021  0.8580 -0.0165 -1.7004
 9152TIP3    H248872   1.787   5.941  14.070  0.4712 -0.4000 -0.2887
 9153TIP3   OH248873   3.947   5.789   0.133 -0.4092 -0.3386  0.1167
 9153TIP3    H148874   3.901   5.870   0.110  1.8494  0.9799  0.1069
 9153TIP3    H248875   3.911   5.764   0.219 -1.1294  0.6563  0.1105
 9154TIP3   OH248876   3.158   1.341   2.147  0.4541 -0.1297  0.8599
 9154TIP3    H148877   3.212   1.305   2.076  0.9360  0.8820  0.6989
 9154TIP3    H248878   3.147   1.433   2.124 -0.0558  0.0214  1.6907
 9155TIP3   OH248879   2.039   3.436  14.513  0.4320 -0.2807 -0.3904
 9155TIP3    H148880   2.057   3.355  14.561  0.0518  0.2835  0.7203
 9155TIP3    H248881   2.006   3.406  14.428 -0.7645 -1.2946  0.4168
 9156TIP3   OH248882   4.372   0.512  10.671 -0.0698 -0.3836  0.2676
 9156TIP3    H148883   4.421   0.586  10.635 -1.7892  0.2339 -0.9220
 9156TIP3    H248884   4.352   0.457  10.595 -0.5168 -1.0295  0.8441
 9157TIP3   OH248885   5.417   0.517  15.196  0.5259  0.0073 -0.2744
 9157TIP3    H148886   5.499   0.469  15.187  1.6194  1.0713  3.2480
 9157TIP3    H248887   5.433   0.601  15.153  1.0228 -0.0710 -0.2472
 9158TIP3   OH248888   3.777   6.659  11.058  0.3269 -0.4395 -0.8911
 9158TIP3    H148889   3.756   6.579  11.010  1.1772  0.2582 -2.4585
 9158TIP3    H248890   3.695   6.710  11.056  0.3426 -0.4357 -1.5684
 9159TIP3   OH248891   0.656   1.646  13.160  0.5757  0.0182  0.3393
 9159TIP3    H148892   0.691   1.706  13.226  1.0128 -0.2560  0.3574
 9159TIP3    H248893   0.565   1.674  13.148  1.1734  1.5651 -0.6799
 9160TIP3   OH248894   5.640   0.633  12.388  0.0492 -0.3057  0.2085
 9160TIP3    H148895   5.728   0.596  12.385 -0.4320 -1.3482 -1.4674
 9160TIP3    H248896   5.629   0.677  12.304 -1.5334 -1.3988 -0.1721
 9161TIP3   OH248897   1.232   0.598  12.486 -1.2830 -0.2082  0.4047
 9161TIP3    H148898   1.291   0.553  12.547 -0.5970 -0.5128 -0.4718
 9161TIP3    H248899   1.290   0.637  12.421 -2.1009 -1.5670 -1.1670
 9162TIP3   OH248900   2.710   4.954  11.977 -0.4405  0.0500 -0.1199
 9162TIP3    H148901   2.749   4.871  12.003 -3.6665 -1.4295  0.2842
 9162TIP3    H248902   2.770   4.989  11.911  1.3449 -2.2594  0.2059
 9163TIP3   OH248903   2.508   4.879  12.331 -0.4455  0.0862 -1.0370
 9163TIP3    H148904   2.527   4.924  12.249  2.6481  1.5246  0.4347
 9163TIP3    H248905   2.580   4.816  12.342 -0.9328 -0.2346  0.4852
 9164TIP3   OH248906   4.120   4.835   1.804  0.4045 -0.0962 -0.5581
 9164TIP3    H148907   4.080   4.751   1.825 -0.4151 -0.0485 -1.8283
 9164TIP3    H248908   4.046   4.894   1.787  0.9677  0.8680  0.2445
 9165TIP3   OH248909   2.185   1.333  12.740  0.3349  0.2977 -0.1462
 9165TIP3    H148910   2.091   1.316  12.730  0.6968 -0.6199 -2.3017
 9165TIP3    H248911   2.218   1.341  12.650  2.2582  0.9930  0.5928
 9166TIP3   OH248912   5.958   0.973  11.407  0.2384 -0.4455  0.1201
 9166TIP3    H148913   5.979   1.024  11.486 -0.7210  0.3439 -0.1249
 9166TIP3    H248914   6.042   0.964  11.362  1.0015 -1.8200  1.7505
 9167TIP3   OH248915   1.311   1.512  11.463  0.5720 -0.1600  0.3468
 9167TIP3    H148916   1.401   1.482  11.452  1.2306  2.1040 -0.9474
 9167TIP3    H248917   1.303   1.532  11.556  1.2272 -0.9272  0.5664
 9168TIP3   OH248918   2.451   1.256  12.843 -0.4119 -0.0248  0.2031
 9168TIP3    H148919   2.437   1.165  12.872 -0.3714 -0.2849 -0.5860
 9168TIP3    H248920   2.363   1.291  12.831 -0.4204 -0.2814 -0.4889
 9169TIP3   OH248921   5.025   1.138   0.951  0.6040 -0.4924  0.4776
 9169TIP3    H148922   5.099   1.143   1.011  1.5565  1.7925 -0.8296
 9169TIP3    H248923   5.047   1.068   0.890  1.8558  0.3772 -0.0814
 9170TIP3   OH248924   6.926   2.213  11.085  0.0801  0.2214  0.3849
 9170TIP3    H148925   6.862   2.249  11.147  0.4704  0.2381  0.7750
 9170TIP3    H248926   6.981   2.156  11.137  1.8700  2.0171  0.5100
 9171TIP3   OH248927   1.676   5.215  11.745 -0.2571  0.2442  0.4112
 9171TIP3    H148928   1.595   5.265  11.754 -1.9722 -2.3805  0.1331
 9171TIP3    H248929   1.676   5.156  11.821  1.4327  0.2725  0.4433
 9172TIP3   OH248930   0.082   0.468   1.841  0.3604  0.4298 -0.6212
 9172TIP3    H148931   0.169   0.437   1.866  0.4808 -0.1368 -1.7176
 9172TIP3    H248932   0.025   0.392   1.853 -0.0377  0.8639  0.3185
 9173TIP3   OH248933   3.092   5.505   3.898  0.2515  0.1590  0.0792
 9173TIP3    H148934   3.031   5.563   3.942  0.6851  0.2309  0.5927
 9173TIP3    H248935   3.169   5.559   3.881 -0.3422  0.4698 -1.8492
 9174TIP3   OH248936   1.365   3.414  11.200 -0.3424 -0.0217  0.1732
 9174TIP3    H148937   1.319   3.488  11.238 -0.6417 -0.1707  0.1022
 9174TIP3    H248938   1.367   3.432  11.106  2.5423  1.5581  0.4632
 9175TIP3   OH248939   1.769   6.000  13.692 -0.5376 -0.1769  1.2705
 9175TIP3    H148940   1.796   5.986  13.601 -2.8801 -0.3731  0.5832
 9175TIP3    H248941   1.791   6.092  13.709  0.6301 -0.3544  0.7684
 9176TIP3   OH248942   3.076   3.811  11.108 -0.2718 -0.0675  0.7345
 9176TIP3    H148943   3.161   3.803  11.064  0.2397  0.6581  1.5785
 9176TIP3    H248944   3.013   3.822  11.037  0.5308  0.9634  0.1799
 9177TIP3   OH248945   2.010   6.931  12.361 -0.2966  0.0997  0.3360
 9177TIP3    H148946   2.002   7.006  12.303 -0.2045 -0.1341  0.0219
 9177TIP3    H248947   1.928   6.932  12.412 -0.2654  0.4476  0.3808
 9178TIP3   OH248948   5.466   0.414  12.961 -0.3977 -0.1937 -0.3463
 9178TIP3    H148949   5.417   0.380  13.036 -0.5191  0.4293 -0.1426
 9178TIP3    H248950   5.431   0.366  12.886  0.7471 -1.8940  0.1640
 9179TIP3   OH248951   0.341   0.269   0.636 -0.3050 -0.2692  0.4808
 9179TIP3    H148952   0.257   0.316   0.637  0.0976  0.4494  0.4852
 9179TIP3    H248953   0.358   0.255   0.542 -0.2991 -0.1881  0.4698
 9180TIP3   OH248954   1.600   0.479  14.557  0.1442  0.8742  1.1535
 9180TIP3    H148955   1.642   0.394  14.547 -1.3849  0.4086 -2.0520
 9180TIP3    H248956   1.658   0.541  14.513 -0.8573  0.7304 -0.4404
 9181TIP3   OH248957   2.431   6.044   1.535 -0.1670  0.3987 -0.1833
 9181TIP3    H148958   2.523   6.034   1.514 -0.0959  2.8467 -1.2619
 9181TIP3    H248959   2.400   6.113   1.476 -3.0254 -1.3046 -0.8002
 9182TIP3   OH248960   4.285   5.762  15.211  0.5261 -0.7603 -0.4576
 9182TIP3    H148961   4.325   5.817  15.279  0.9896 -1.7541  0.0813
 9182TIP3    H248962   4.354   5.754  15.145 -0.5080  1.6540 -1.9199
 9183TIP3   OH248963   2.676   6.641  10.266  0.0130 -0.2297 -0.5214
 9183TIP3    H148964   2.700   6.716  10.211  1.5974 -0.0755  0.3510
 9183TIP3    H248965   2.603   6.599  10.219  0.0542  1.0156 -1.7385
 9184TIP3   OH248966   0.132   1.843  15.524 -0.1775  0.5376  0.5492
 9184TIP3    H148967   0.041   1.818  15.505  0.1107 -0.0685 -0.0421
 9184TIP3    H248968   0.165   1.772  15.579  0.3569  0.0662 -0.3691
 9185TIP3   OH248969   4.325   6.363   0.683 -0.0873  0.4545  0.4248
 9185TIP3    H148970   4.409   6.330   0.715  0.5337  0.0933 -1.4814
 9185TIP3    H248971   4.279   6.392   0.761  1.2074 -0.7377  1.6614
 9186TIP3   OH248972   1.747   3.724  14.398 -0.1990 -0.3974  0.2468
 9186TIP3    H148973   1.707   3.810  14.411 -0.8379 -0.7772  0.8323
 9186TIP3    H248974   1.838   3.735  14.425 -0.1767  0.2019 -0.0843
 9187TIP3   OH248975   0.059   0.193  12.961 -0.4339 -0.1827  0.2575
 9187TIP3    H148976   0.113   0.159  13.033 -0.0774 -0.4284 -0.1247
 9187TIP3    H248977   0.092   0.281  12.946 -1.0470  0.1732  0.9349
 9188TIP3   OH248978   2.072   0.977  15.228  0.2637  0.6096 -0.4397
 9188TIP3    H148979   2.115   0.892  15.235  0.6466  0.6188 -2.4511
 9188TIP3    H248980   2.131   1.029  15.173 -0.6258  1.7437 -0.3340
 9189TIP3   OH248981   3.233   4.953   0.356 -0.1646 -0.0362  0.1831
 9189TIP3    H148982   3.268   4.868   0.328 -1.2604  0.1206 -1.7256
 9189TIP3    H248983   3.306   5.014   0.345  0.0563 -0.3818 -0.2891
 9190TIP3   OH248984   2.029   2.282  13.412  0.5168 -0.5776  0.0110
 9190TIP3    H148985   1.949   2.307  13.365 -0.4459  1.6044  2.6525
 9190TIP3    H248986   2.096   2.342  13.379  0.5363 -0.9475 -0.6247
 9191TIP3   OH248987   4.748   5.853  13.562 -0.3780  0.5266 -0.3642
 9191TIP3    H148988   4.822   5.853  13.501 -0.9420 -0.6952 -1.0851
 9191TIP3    H248989   4.777   5.798  13.635  0.0465  1.4335  0.1523
 9192TIP3   OH248990   3.162   4.934   1.020 -0.1036  0.2566  0.1263
 9192TIP3    H148991   3.078   4.960   0.980 -0.7882 -0.8013  0.8369
 9192TIP3    H248992   3.209   5.016   1.033 -1.8031  1.0691  1.4178
 9193TIP3   OH248993   5.968   0.092  14.388  0.0512 -0.2528  0.0880
 9193TIP3    H148994   5.939   0.062  14.302  0.9047 -0.3585 -0.1660
 9193TIP3    H248995   5.896   0.146  14.420 -0.5527 -0.7539 -0.4074
 9194TIP3   OH248996   2.759   5.911  13.806  0.1103  0.0536  0.5987
 9194TIP3    H148997   2.852   5.893  13.818  0.4481  2.0996  1.2403
 9194TIP3    H248998   2.756   5.980  13.740 -1.0962 -1.5995 -1.1485
 9195TIP3   OH248999   5.568   1.624  12.503 -0.1114 -0.5283 -0.1149
 9195TIP3    H149000   5.519   1.679  12.441  0.2747 -2.5305 -2.2490
 9195TIP3    H249001   5.652   1.669  12.513 -0.0459 -0.3582 -1.3288
 9196TIP3   OH249002   2.640   4.825   2.594 -0.3846  0.1975 -0.3863
 9196TIP3    H149003   2.721   4.794   2.634 -0.5876 -0.9159 -0.8149
 9196TIP3    H249004   2.668   4.881   2.522  0.0474 -1.4967 -1.5714
 9197TIP3   OH249005   4.239   0.896  14.310  0.1014  0.1092 -0.1055
 9197TIP3    H149006   4.276   0.875  14.225  1.0279  1.1860  0.0136
 9197TIP3    H249007   4.315   0.917  14.365 -0.6135  1.6176  0.3484
 9198TIP3   OH249008   1.503   5.123   1.227 -0.1843 -0.1964  0.3111
 9198TIP3    H149009   1.558   5.139   1.150 -2.4981 -1.7881 -1.7632
 9198TIP3    H249010   1.532   5.037   1.258 -1.1538 -0.8414 -0.5260
 9199TIP3   OH249011   5.599   3.276   1.526  0.0796  0.0126 -0.1246
 9199TIP3    H149012   5.668   3.314   1.580 -1.2020 -0.6685  2.0325
 9199TIP3    H249013   5.582   3.342   1.459  0.9611  1.3189  0.9115
 9200TIP3   OH249014   2.269   5.190   0.179 -0.0343  0.4096 -0.0400
 9200TIP3    H149015   2.333   5.130   0.218 -0.7031 -1.3924 -1.6726
 9200TIP3    H249016   2.320   5.268   0.157  1.3562 -0.5407 -0.2293
 9201TIP3   OH249017   3.188   1.196   0.044 -0.5631 -0.4965 -0.6631
 9201TIP3    H149018   3.131   1.123   0.067 -0.7362 -1.3415 -3.5808
 9201TIP3    H249019   3.129   1.259   0.001  0.3326 -0.4656 -1.8495
 9202TIP3   OH249020   4.389   4.672   3.099 -0.3061 -0.4568 -0.3539
 9202TIP3    H149021   4.467   4.706   3.142 -0.7100 -1.6376  1.3536
 9202TIP3    H249022   4.393   4.707   3.010  2.3186 -0.7298 -0.3664
 9203TIP3   OH249023   4.930   4.635  14.610 -0.3634 -0.4577 -0.0327
 9203TIP3    H149024   4.913   4.569  14.677  0.2286  0.6749  1.2654
 9203TIP3    H249025   4.918   4.718  14.655 -0.8680  0.3370 -1.5813
 9204TIP3   OH249026   2.689   2.932  13.936  0.2317  0.7542  0.4718
 9204TIP3    H149027   2.780   2.922  13.965  0.5809  2.3122 -0.0502
 9204TIP3    H249028   2.694   2.925  13.840 -0.2722  0.3399  0.4739
 9205TIP3   OH249029   4.599   5.083   0.764  0.6304  0.5601  0.6612
 9205TIP3    H149030   4.554   5.101   0.847 -0.1861 -0.2922  0.4168
 9205TIP3    H249031   4.655   5.008   0.783  2.0036  1.6341  0.9699
 9206TIP3   OH249032   2.320   4.999   0.693 -0.0566 -0.5838  0.4415
 9206TIP3    H149033   2.368   5.077   0.667 -2.4734  0.6325 -0.5197
 9206TIP3    H249034   2.287   5.019   0.781 -1.4951 -0.0909 -0.1896
 9207TIP3   OH249035   2.886   4.540  15.061 -0.3997  0.0861 -0.0056
 9207TIP3    H149036   2.946   4.524  15.133  1.1677 -0.3627 -1.3733
 9207TIP3    H249037   2.942   4.567  14.988 -2.1241  2.7405 -0.4437
 9208TIP3   OH249038   1.578   0.737  15.103 -0.1447 -0.5350 -0.4625
 9208TIP3    H149039   1.544   0.720  15.015 -0.0876 -0.3622 -0.5172
 9208TIP3    H249040   1.648   0.673  15.115 -1.6681 -2.1061  0.3320
 9209TIP3   OH249041   0.455   6.461   1.267  0.0831  0.2048 -0.0480
 9209TIP3    H149042   0.411   6.408   1.200 -0.4519 -0.1882  0.6166
 9209TIP3    H249043   0.392   6.530   1.289  0.1664  0.1915  0.2341
 9210TIP3   OH249044   2.168   7.120  13.864 -0.1389  0.3295  0.2568
 9210TIP3    H149045   2.106   7.101  13.934  0.4009 -0.5829  0.4968
 9210TIP3    H249046   2.252   7.128  13.908  0.2586 -0.5862 -0.3138
 9211TIP3   OH249047   2.209   0.177   3.755 -0.0324  0.2865  0.5355
 9211TIP3    H149048   2.294   0.222   3.756 -0.5181  1.2370 -0.2297
 9211TIP3    H249049   2.232   0.084   3.761  1.0752  0.5279  0.2656
 9212TIP3   OH249050   2.328   5.987  13.194 -0.0487  0.3029 -0.0408
 9212TIP3    H149051   2.338   6.029  13.280  1.0789 -0.6261  0.2914
 9212TIP3    H249052   2.261   6.038  13.150 -1.3039  0.2491  1.7577
 9213TIP3   OH249053   6.995   3.743  15.257  0.1522  0.3427 -0.6642
 9213TIP3    H149054   6.961   3.770  15.172 -1.4715  0.9734  0.1605
 9213TIP3    H249055   6.947   3.797  15.321  0.0399 -1.3529  0.7381
 9214TIP3   OH249056   2.500   2.200  11.032  0.1791  0.0704 -0.0560
 9214TIP3    H149057   2.431   2.171  11.091  2.8071 -2.5092  1.8733
 9214TIP3    H249058   2.509   2.294  11.049 -1.6284  0.0884  0.8790
 9215TIP3   OH249059   1.026   0.086   0.025 -0.1043  0.5574 -1.1127
 9215TIP3    H149060   1.089   0.014   0.031 -1.9763 -1.0717 -0.7495
 9215TIP3    H249061   1.072   0.153  -0.026  2.3797 -0.0947  0.1718
 9216TIP3   OH249062   3.584   4.958   0.122  0.3736  0.1928 -0.1559
 9216TIP3    H149063   3.584   4.864   0.139 -0.2901  0.0245 -1.0323
 9216TIP3    H249064   3.660   4.991   0.169 -0.5448 -0.4685  1.8309
 9217TIP3   OH249065   1.741   5.761   0.245 -0.3412  0.0619 -0.1392
 9217TIP3    H149066   1.825   5.757   0.199 -0.5621 -0.7832 -0.4902
 9217TIP3    H249067   1.757   5.817   0.320 -0.2066  2.1763 -1.7050
 9218TIP3   OH249068   3.708   2.605  14.631 -0.2750  0.2487 -0.3491
 9218TIP3    H149069   3.683   2.688  14.670  0.2893 -0.0543  0.6702
 9218TIP3    H249070   3.657   2.539  14.678  1.4805 -0.2543  0.9167
 9219TIP3   OH249071   2.277   0.582  13.832 -0.0548  0.3175 -0.3228
 9219TIP3    H149072   2.226   0.554  13.909 -0.0530  3.0562  0.7250
 9219TIP3    H249073   2.314   0.666  13.857  1.6654  0.2885 -2.6062
 9220TIP3   OH249074   2.694   6.562  14.075 -0.3918  0.0591  0.3214
 9220TIP3    H149075   2.630   6.493  14.056 -0.9629  0.9603 -1.1236
 9220TIP3    H249076   2.708   6.556  14.170 -1.4172 -1.1908  0.4139
 9221TIP3   OH249077   2.699   1.367   1.010  1.0611 -0.6920  0.2651
 9221TIP3    H149078   2.720   1.274   0.997 -1.3767 -1.1436 -0.7341
 9221TIP3    H249079   2.609   1.367   1.042 -0.3370  1.4455 -3.3604
 9222TIP3   OH249080   3.418   5.972   0.674 -0.1307  0.5979 -0.1361
 9222TIP3    H149081   3.492   6.003   0.621  1.4626  0.9812  2.2348
 9222TIP3    H249082   3.346   6.030   0.649  0.7462  1.1913 -1.3992
 9223TIP3   OH249083   3.226   5.127  15.472 -0.2852  0.1575 -0.1148
 9223TIP3    H149084   3.131   5.130  15.473 -0.3348 -1.0266  1.4783
 9223TIP3    H249085   3.253   5.209  15.430 -1.9902  0.6942 -0.1869
 9224TIP3   OH249086   2.346   3.622  10.607  0.3586 -0.3278 -0.1486
 9224TIP3    H149087   2.387   3.541  10.579  1.3105  0.3198 -0.6596
 9224TIP3    H249088   2.345   3.617  10.703  1.1203 -0.6009 -0.1521
 9225TIP3   OH249089   1.781   1.534  14.500 -0.7963 -0.6516  0.0488
 9225TIP3    H149090   1.717   1.577  14.444 -1.7676 -0.5954  1.1765
 9225TIP3    H249091   1.816   1.463  14.447 -1.2674 -0.2264 -0.8328
 9226TIP3   OH249092   3.797   0.065  14.697 -0.3553  0.2580 -0.0938
 9226TIP3    H149093   3.819  -0.004  14.635 -1.2100 -2.0319  2.0630
 9226TIP3    H249094   3.877   0.080  14.747 -0.6680 -0.4992  0.6514
 9227TIP3   OH249095   0.021   5.304  12.330  0.0091  0.0161 -0.1550
 9227TIP3    H149096   0.031   5.393  12.364 -0.1036 -1.0715  2.9358
 9227TIP3    H249097  -0.046   5.311  12.262  0.7827  2.4488 -0.7297
 9228TIP3   OH249098   5.391   3.749   3.157 -0.5971 -0.2194  0.2606
 9228TIP3    H149099   5.325   3.738   3.225 -0.2155  0.4689  0.7563
 9228TIP3    H249100   5.341   3.756   3.075 -1.2393  1.8342  0.8051
 9229TIP3   OH249101   1.924   6.138  13.419  0.0334 -0.4469  0.7669
 9229TIP3    H149102   1.937   6.054  13.375 -0.4638  0.2054 -0.6507
 9229TIP3    H249103   1.978   6.200  13.370 -1.1522  0.4502  0.5657
 9230TIP3   OH249104   2.179   3.037  10.258 -0.6042  0.0090 -0.2176
 9230TIP3    H149105   2.136   2.963  10.215 -0.2379 -0.3482  0.0143
 9230TIP3    H249106   2.180   3.013  10.351  0.3258 -0.1194 -0.2525
 9231TIP3   OH249107   2.437   2.858  12.713  0.5229  0.1005 -0.3539
 9231TIP3    H149108   2.423   2.919  12.641  0.7919  0.6871  0.0904
 9231TIP3    H249109   2.353   2.812  12.721 -0.0633  1.2044  0.0437
 9232TIP3   OH249110   4.365   4.091  14.793  0.2955  0.0023  0.0532
 9232TIP3    H149111   4.279   4.132  14.789 -0.2399 -1.2050 -1.2622
 9232TIP3    H249112   4.361   4.034  14.869  0.2711  0.6815  0.5650
 9233TIP3   OH249113   3.001   0.317  12.167 -0.1811 -0.0207 -0.7637
 9233TIP3    H149114   3.043   0.400  12.190 -0.9725 -0.1649  1.2379
 9233TIP3    H249115   3.018   0.307  12.073  0.8390  1.8714 -0.7965
 9234TIP3   OH249116   2.955   3.002   0.607  0.5714  0.6533 -0.1219
 9234TIP3    H149117   2.873   2.989   0.654  0.5830 -1.1915 -0.5979
 9234TIP3    H249118   2.959   3.097   0.593 -1.4160  0.7846  0.0152
 9235TIP3   OH249119   6.262   3.524  12.848  0.0625  0.0926  0.1435
 9235TIP3    H149120   6.305   3.601  12.812 -0.7405  1.0035  1.0739
 9235TIP3    H249121   6.187   3.508  12.791 -0.7514  1.0524  0.9193
 9236TIP3   OH249122   0.707   6.025  13.125 -0.1082 -0.0033 -0.1379
 9236TIP3    H149123   0.710   6.113  13.161  0.2425  0.8390 -2.1595
 9236TIP3    H249124   0.615   6.011  13.103  0.0196  0.3309 -0.9106
 9237TIP3   OH249125   3.422   0.610  13.512 -0.0468  0.2156  0.6098
 9237TIP3    H149126   3.441   0.523  13.475  2.4639  0.3062  1.5845
 9237TIP3    H249127   3.350   0.594  13.573 -0.4558 -0.9640 -0.1561
 9238TIP3   OH249128   2.278   0.493   1.601 -0.4063 -0.2321  0.0691
 9238TIP3    H149129   2.321   0.545   1.668 -1.0238  0.6838 -0.2442
 9238TIP3    H249130   2.186   0.492   1.626 -0.7910  0.8622 -1.2449
 9239TIP3   OH249131   3.485   5.911  14.548  0.2658 -0.2689  0.4485
 9239TIP3    H149132   3.555   5.919  14.613 -0.0042 -1.9807  0.9785
 9239TIP3    H249133   3.413   5.963  14.583  0.7212  0.2065  0.6815
 9240TIP3   OH249134   2.947   6.685   1.099  0.0960  0.5879 -0.4159
 9240TIP3    H149135   2.994   6.622   1.045  0.6965  0.6618  0.0124
 9240TIP3    H249136   2.923   6.756   1.039 -1.6463 -0.5884 -1.1646
 9241TIP3   OH249137   2.118   4.644  10.524  0.0947  0.2966 -0.4543
 9241TIP3    H149138   2.132   4.683  10.438  0.2633 -0.5466 -0.8077
 9241TIP3    H249139   2.030   4.605  10.519  0.3072 -0.1866 -0.4030
 9242TIP3   OH249140   6.740   1.254   0.033  0.3918 -0.1090 -0.0115
 9242TIP3    H149141   6.762   1.347   0.040  0.1517  0.0984 -1.6401
 9242TIP3    H249142   6.673   1.240   0.100 -0.8000  1.3103 -0.8615
 9243TIP3   OH249143   3.835   6.842  11.332 -0.0013  0.4357 -0.5567
 9243TIP3    H149144   3.847   6.871  11.423 -0.1166 -3.1785  0.6955
 9243TIP3    H249145   3.773   6.770  11.338  2.1629 -1.7589 -3.1449
 9244TIP3   OH249146   1.318   3.938  15.476  0.6240 -0.4416  0.5733
 9244TIP3    H149147   1.361   3.980  15.401 -1.2566 -0.5008 -0.6025
 9244TIP3    H249148   1.305   3.847  15.448 -1.7189 -0.0376  0.1702
 9245TIP3   OH249149   3.902   4.348   1.133  0.1432 -0.1800  0.3492
 9245TIP3    H149150   3.814   4.313   1.134 -0.7475  1.9732  0.5180
 9245TIP3    H249151   3.943   4.314   1.212 -1.0478  0.0575  1.0700
 9246TIP3   OH249152   2.369   1.534  11.190  0.0667  0.1301  0.4815
 9246TIP3    H149153   2.319   1.564  11.115 -0.2889  1.4291  1.2261
 9246TIP3    H249154   2.460   1.538  11.162 -0.0750  0.4029  0.0620
 9247TIP3   OH249155   6.942   6.408  12.706 -0.3829  0.4340  0.0715
 9247TIP3    H149156   6.858   6.431  12.667 -0.5267  0.9482  0.6698
 9247TIP3    H249157   6.921   6.382  12.796 -0.0885 -0.9892 -0.2537
 9248TIP3   OH249158   5.866   5.889  11.998 -0.4082  0.0250  0.4405
 9248TIP3    H149159   5.815   5.963  11.965 -1.4583 -0.4373  0.9955
 9248TIP3    H249160   5.947   5.928  12.032 -0.9381  0.9141  0.6856
 9249TIP3   OH249161   0.633   1.349  13.378  0.6380 -0.1184  0.3605
 9249TIP3    H149162   0.671   1.426  13.421  1.9479  0.5958 -1.9848
 9249TIP3    H249163   0.541   1.372  13.363  0.6521  0.3850  1.0469
 9250TIP3   OH249164   5.368   4.383  14.593  0.2410 -0.0343  0.7825
 9250TIP3    H149165   5.427   4.415  14.525  0.3262 -0.3510  0.7081
 9250TIP3    H249166   5.420   4.387  14.674 -0.4439  2.0847  1.1448
 9251TIP3   OH249167   1.529   0.996   1.809 -0.0922 -0.8269 -0.3098
 9251TIP3    H149168   1.484   1.030   1.886 -1.2530  0.6188 -1.5873
 9251TIP3    H249169   1.461   0.990   1.742  1.3107  0.0690 -1.8649
 9252TIP3   OH249170   3.775   6.310  13.620 -0.0322 -0.1664  0.2253
 9252TIP3    H149171   3.796   6.245  13.687 -1.0549 -0.2942  0.4426
 9252TIP3    H249172   3.735   6.382  13.669 -0.6092 -0.1787 -0.2155
 9253TIP3   OH249173   4.036   4.340  10.094 -0.3898  0.1631  0.1347
 9253TIP3    H149174   4.057   4.391  10.172  0.2413 -0.2533  0.2418
 9253TIP3    H249175   4.017   4.252  10.127  1.2664 -0.3724 -0.3044
 9254TIP3   OH249176   2.040   1.182  13.944 -0.1882 -0.0806 -0.0107
 9254TIP3    H149177   2.013   1.111  14.003 -2.6416  1.2917  0.5814
 9254TIP3    H249178   2.135   1.177  13.943 -0.2309 -2.0398  1.7091
 9255TIP3   OH249179   2.621   2.046   1.166 -0.1751  0.0578 -0.2484
 9255TIP3    H149180   2.563   1.970   1.164  0.2056 -0.2616  0.6208
 9255TIP3    H249181   2.568   2.117   1.129 -0.5020 -0.6480 -1.1392
 9256TIP3   OH249182   0.450   5.463  13.689  0.1880 -0.3221  0.5823
 9256TIP3    H149183   0.425   5.547  13.729  0.3717 -0.2377  0.5215
 9256TIP3    H249184   0.455   5.482  13.595  0.0225 -0.4548  0.5462
 9257TIP3   OH249185   3.690   0.332  14.813  0.5919  0.3408  0.0903
 9257TIP3    H149186   3.771   0.361  14.854  1.1360  0.3015 -0.9581
 9257TIP3    H249187   3.700   0.237  14.805  0.1155  0.2363  0.6611
 9258TIP3   OH249188   2.767   1.120  12.040 -0.1962  0.2117 -0.0861
 9258TIP3    H149189   2.853   1.082  12.023 -0.1921 -0.5027  1.4787
 9258TIP3    H249190   2.721   1.112  11.956  0.8290 -0.5250 -0.5954
 9259TIP3   OH249191   4.583   1.118  13.544 -0.9086 -0.3580  0.1663
 9259TIP3    H149192   4.636   1.144  13.619 -1.5469  1.3994  0.0414
 9259TIP3    H249193   4.617   1.170  13.471  1.3891 -3.8795 -1.3977
 9260TIP3   OH249194   1.881   5.843  14.626  0.4953  0.5130  0.0586
 9260TIP3    H149195   1.823   5.819  14.698  0.5142  1.5629  0.4256
 9260TIP3    H249196   1.892   5.762  14.576  0.4103 -0.1904  1.1766
 9261TIP3   OH249197   0.825   0.971   2.080  0.1550  0.0411  0.5234
 9261TIP3    H149198   0.814   0.879   2.056  1.1969 -0.0934  0.5194
 9261TIP3    H249199   0.877   1.008   2.009  1.8235  0.0492  1.7263
 9262TIP3   OH249200   6.216   5.645   2.480 -0.3764  0.5719 -0.8344
 9262TIP3    H149201   6.298   5.602   2.504 -0.3770  0.7646 -0.4796
 9262TIP3    H249202   6.224   5.662   2.386  0.7040  2.1203 -0.4757
 9263TIP3   OH249203   6.429   4.980  15.266  0.1325 -0.4960  0.5082
 9263TIP3    H149204   6.508   4.959  15.316 -0.7690 -1.2003  1.6921
 9263TIP3    H249205   6.432   5.074  15.253  2.1341 -0.7701 -1.1529
 9264TIP3   OH249206   3.605   2.752   9.789  0.4801 -0.1227  0.2531
 9264TIP3    H149207   3.600   2.742   9.694 -0.1639 -2.4144  0.4839
 9264TIP3    H249208   3.631   2.843   9.803  0.7013  0.2029 -2.1113
 9265TIP3   OH249209   0.187   6.950   1.953 -0.2890  0.4382  0.1212
 9265TIP3    H149210   0.129   6.914   1.886 -2.9489  2.9141  1.0054
 9265TIP3    H249211   0.141   6.934   2.035  2.3248 -1.3957  1.2815
 9266TIP3   OH249212   0.617   7.040   2.358 -1.0814  0.2423 -0.1835
 9266TIP3    H149213   0.675   7.115   2.341  1.2574 -1.0616  1.6788
 9266TIP3    H249214   0.564   7.068   2.433 -3.0712  1.5023 -1.9975
 9267TIP3   OH249215   3.468   4.039   0.185  0.4129  0.0341  0.1026
 9267TIP3    H149216   3.532   4.107   0.205  2.0790 -0.8300 -2.0942
 9267TIP3    H249217   3.514   3.979   0.127 -1.5891 -2.0297  0.5705
 9268TIP3   OH249218   2.926   3.782  14.548  0.4706  0.0204  0.3028
 9268TIP3    H149219   2.940   3.794  14.454  0.0155  2.4074  0.5145
 9268TIP3    H249220   2.841   3.740  14.554  1.5089 -2.2814 -0.4186
 9269TIP3   OH249221   4.506   6.392  11.891 -0.0288 -0.3226 -0.4560
 9269TIP3    H149222   4.486   6.436  11.809 -0.9193  0.0596 -0.0348
 9269TIP3    H249223   4.600   6.376  11.887  0.0693  0.4183 -1.1880
 9270TIP3   OH249224   6.697   0.917   0.075  0.0071 -0.2077 -0.8925
 9270TIP3    H149225   6.743   0.861   0.138 -0.4515 -0.0392 -0.4125
 9270TIP3    H249226   6.618   0.946   0.120  0.6244  1.4813 -0.8501
 9271TIP3   OH249227   4.732   0.093  15.448 -0.0170  0.3335 -0.1464
 9271TIP3    H149228   4.653   0.119  15.496 -0.3712  0.3564 -0.7414
 9271TIP3    H249229   4.706   0.093  15.356  0.4007 -0.6454 -0.2669
 9272TIP3   OH249230   6.418   3.310  11.944 -0.2680 -0.3691 -0.5157
 9272TIP3    H149231   6.446   3.230  11.990  1.5511  0.0364 -0.8593
 9272TIP3    H249232   6.480   3.317  11.871 -3.2508 -1.1442 -3.2112
 9273TIP3   OH249233   0.450   3.735  14.840  0.2046  0.4736 -0.1958
 9273TIP3    H149234   0.517   3.670  14.860  2.2124  2.5216 -0.1043
 9273TIP3    H249235   0.395   3.737  14.919  0.6671 -0.4341  0.1589
 9274TIP3   OH249236   1.205   4.516  13.633  0.3818 -0.8761  0.0486
 9274TIP3    H149237   1.162   4.440  13.593 -3.5384  1.6239 -0.7188
 9274TIP3    H249238   1.167   4.521  13.721  1.8374 -0.6857  0.6916
 9275TIP3   OH249239   4.206   1.126  12.809  0.3476 -1.1110  0.1150
 9275TIP3    H149240   4.138   1.150  12.871  1.3775  0.0062  0.8188
 9275TIP3    H249241   4.219   1.032  12.822  0.8774 -0.8015  1.9200
 9276TIP3   OH249242   4.322   0.914  14.022  0.0309  0.1051 -0.0564
 9276TIP3    H149243   4.252   0.977  14.037 -0.6277 -0.5724 -0.2566
 9276TIP3    H249244   4.348   0.927  13.931 -0.0529  0.1443 -0.0753
 9277TIP3   OH249245   2.923   4.797  15.475 -0.3557  0.2630  0.3807
 9277TIP3    H149246   2.901   4.704  15.463  0.4860  0.0667  0.3152
 9277TIP3    H249247   2.844   4.836  15.513 -0.1599 -0.8072  1.9124
 9278TIP3   OH249248   5.522   5.602   1.209  0.4183 -0.1813 -0.1542
 9278TIP3    H149249   5.480   5.558   1.135  1.3806  0.5249 -1.1454
 9278TIP3    H249250   5.469   5.680   1.223 -0.1723 -0.6714  0.3618
 9279TIP3   OH249251   6.487   0.202  14.307 -0.3686  0.2505  0.5115
 9279TIP3    H149252   6.473   0.107  14.298  0.0368  0.1099  1.3143
 9279TIP3    H249253   6.402   0.236  14.335 -0.1256 -0.0856  1.6796
 9280TIP3   OH249254   5.320   7.156  12.933 -0.7113  0.3052 -0.3497
 9280TIP3    H149255   5.365   7.096  12.873 -0.5744 -0.1150  0.1692
 9280TIP3    H249256   5.384   7.226  12.949 -0.0221 -0.5894  0.8458
 9281TIP3   OH249257   5.821   6.794   0.426 -0.6494  0.2891  0.4768
 9281TIP3    H149258   5.900   6.803   0.373  0.3461 -1.1987  1.6300
 9281TIP3    H249259   5.842   6.839   0.508 -0.0281 -2.2054  1.7419
 9282TIP3   OH249260   1.893   5.778   3.031 -0.5318 -0.0961  0.3442
 9282TIP3    H149261   1.943   5.782   2.950 -1.7448  2.6711 -0.3145
 9282TIP3    H249262   1.805   5.808   3.007 -1.3278 -0.6650  2.3827
 9283TIP3   OH249263   4.529   4.436  13.104 -0.2268 -0.1122 -0.1400
 9283TIP3    H149264   4.486   4.521  13.095 -2.8144 -1.4769 -1.1122
 9283TIP3    H249265   4.582   4.427  13.025 -1.0928 -0.0129 -0.7396
 9284TIP3   OH249266   4.871   5.009  14.603 -0.0502  0.1174  0.8973
 9284TIP3    H149267   4.821   4.932  14.578  1.4695 -0.9265  0.9623
 9284TIP3    H249268   4.813   5.083  14.586 -1.5811 -1.0520  0.9692
 9285TIP3   OH249269   3.356   0.107  14.670 -0.3517 -0.1029  0.3382
 9285TIP3    H149270   3.286   0.156  14.628  0.9590  1.7674  0.2683
 9285TIP3    H249271   3.384   0.162  14.743  1.7783 -0.2861 -0.2999
 9286TIP3   OH249272   1.054   2.728  11.852 -0.1173 -0.3436 -0.1103
 9286TIP3    H149273   1.088   2.669  11.919  0.6095 -0.5716 -0.6715
 9286TIP3    H249274   0.961   2.736  11.872  0.0951 -0.3954  0.9357
 9287TIP3   OH249275   3.140   3.941  14.586  0.8381  0.0299  0.5358
 9287TIP3    H149276   3.053   3.901  14.580  0.9964 -0.3232  0.5867
 9287TIP3    H249277   3.130   4.027  14.546  1.1273 -1.0677 -2.0099
 9288TIP3   OH249278   2.121   1.588  11.520 -0.1011 -0.2659 -0.7092
 9288TIP3    H149279   2.183   1.533  11.473  1.4076  0.5803  0.2690
 9288TIP3    H249280   2.068   1.629  11.451  0.8182 -0.5315 -1.5776
 9289TIP3   OH249281   5.068   3.863   3.376  0.4057  0.3973 -0.1011
 9289TIP3    H149282   4.988   3.861   3.323  0.5431 -0.9084 -0.2684
 9289TIP3    H249283   5.055   3.936   3.436 -0.2167  1.2151 -1.2139
 9290TIP3   OH249284   4.048   4.792  11.932 -0.6983 -0.2962 -0.4415
 9290TIP3    H149285   4.086   4.727  11.991 -0.5458 -0.4743 -0.7340
 9290TIP3    H249286   4.023   4.741  11.855 -0.5365  0.0014 -0.6882
 9291TIP3   OH249287   6.630   0.571   0.326  0.4824 -0.0507  0.6362
 9291TIP3    H149288   6.536   0.574   0.305  1.2723  0.1441 -3.3806
 9291TIP3    H249289   6.651   0.478   0.330  0.5140 -0.1155 -0.7225
 9292TIP3   OH249290   6.118   0.107  11.635 -0.3660  0.3340 -0.2512
 9292TIP3    H149291   6.126   0.047  11.561 -1.5063  0.1567 -0.2455
 9292TIP3    H249292   6.147   0.191  11.600  2.2491 -0.4059  0.0354
 9293TIP3   OH249293   2.704   0.880  14.939 -0.2024  0.1879  0.2469
 9293TIP3    H149294   2.616   0.869  14.974  0.0187 -1.0173  0.4603
 9293TIP3    H249295   2.758   0.819  14.990  0.4407 -0.3142 -0.9955
 9294TIP3   OH249296   1.987   3.451  15.058  1.1301  0.0449  0.0114
 9294TIP3    H149297   2.010   3.431  15.149 -0.2748 -0.6483  0.2347
 9294TIP3    H249298   1.988   3.546  15.053  2.0820  0.0650  0.5238
 9295TIP3   OH249299   5.179   5.243  13.130 -0.0716 -1.1466 -0.5747
 9295TIP3    H149300   5.205   5.152  13.122  1.4493 -0.6573 -1.2847
 9295TIP3    H249301   5.259   5.290  13.153 -0.6871  0.1079 -0.9140
 9296TIP3   OH249302   0.665   4.584  11.443  0.2034 -0.5521  0.2337
 9296TIP3    H149303   0.677   4.673  11.477  1.8826 -0.6766  0.0410
 9296TIP3    H249304   0.591   4.549  11.493 -0.4161  0.9141  0.3720
 9297TIP3   OH249305   4.445   6.278   2.110  0.0690 -0.3055  0.3573
 9297TIP3    H149306   4.483   6.223   2.178 -0.8077 -2.2670 -0.6952
 9297TIP3    H249307   4.399   6.347   2.157  3.6538  1.2994  1.6901
 9298TIP3   OH249308   0.135   0.108  12.473  0.1243  0.0900  0.2680
 9298TIP3    H149309   0.055   0.064  12.445 -0.0704 -0.1473  1.1727
 9298TIP3    H249310   0.104   0.185  12.522  0.4365 -0.2320  0.9801
 9299TIP3   OH249311   1.577   6.637  11.708  0.2000  0.4295 -0.0027
 9299TIP3    H149312   1.651   6.579  11.692  0.7558  0.6690  1.5650
 9299TIP3    H249313   1.606   6.694  11.779 -0.2044  2.8539 -1.7201
 9300TIP3   OH249314   7.044   2.386  12.447  0.4562  0.2791  0.1920
 9300TIP3    H149315   6.984   2.315  12.467  2.2186 -1.3719 -0.2278
 9300TIP3    H249316   7.006   2.463  12.489 -0.8502 -1.1665  1.6989
 9301TIP3   OH249317   1.645   2.476   0.381 -0.3460 -0.1085  0.5102
 9301TIP3    H149318   1.633   2.548   0.318  0.1593 -1.1539 -0.8158
 9301TIP3    H249319   1.669   2.401   0.326 -1.2649 -1.3874  1.8400
 9302TIP3   OH249320   4.478   3.902  15.238 -0.0330  0.5082 -0.1857
 9302TIP3    H149321   4.567   3.869  15.240  0.3446  1.4054 -1.5580
 9302TIP3    H249322   4.484   3.991  15.272 -0.2891  0.8290 -0.9749
 9303TIP3   OH249323   4.203   4.348   1.389 -0.1874 -0.1381  0.3758
 9303TIP3    H149324   4.198   4.424   1.331  2.7155 -0.0814  0.1129
 9303TIP3    H249325   4.255   4.284   1.339  0.4017 -0.9307  1.9906
 9304TIP3   OH249326   2.836   0.662  14.407 -0.5535 -0.0696  0.2821
 9304TIP3    H149327   2.799   0.602  14.343 -0.6873 -1.6054  1.7517
 9304TIP3    H249328   2.849   0.608  14.485  0.3249  1.5731  1.2980
 9305TIP3   OH249329   4.662   6.013   2.165  0.0969 -0.3081  0.1152
 9305TIP3    H149330   4.694   5.937   2.116 -1.6338 -0.0784 -1.4419
 9305TIP3    H249331   4.741   6.060   2.190  1.0953 -1.2608 -1.1591
 9306TIP3   OH249332   2.783   5.415  12.934  0.4287 -0.1891  0.1249
 9306TIP3    H149333   2.855   5.433  12.874 -1.0161  2.2078 -0.9567
 9306TIP3    H249334   2.721   5.362  12.884 -0.1020  0.5870 -0.0534
 9307TIP3   OH249335   6.315   1.905  11.502  0.2181  0.0298 -0.0222
 9307TIP3    H149336   6.222   1.915  11.520  0.1216 -0.1692 -0.4125
 9307TIP3    H249337   6.355   1.985  11.536 -0.0494 -0.0425  0.4683
 9308TIP3   OH249338   0.134   5.946  13.933 -0.5194  0.1585  0.0640
 9308TIP3    H149339   0.115   5.969  13.842 -1.5720  0.4170  0.3420
 9308TIP3    H249340   0.151   6.029  13.976 -0.9719  0.1255  0.3133
 9309TIP3   OH249341   3.879   4.384  13.057 -0.5101  0.0434 -0.3480
 9309TIP3    H149342   3.916   4.345  13.137  0.5751  1.3519 -0.2155
 9309TIP3    H249343   3.787   4.398  13.079 -0.5288 -0.8664  0.2016
 9310TIP3   OH249344   4.365   4.770  12.198 -0.2501  0.2130  0.2941
 9310TIP3    H149345   4.278   4.781  12.235 -0.4293  0.9011 -0.3301
 9310TIP3    H249346   4.353   4.780  12.103 -0.0321 -2.9000 -0.1076
 9311TIP3   OH249347   3.426   3.629  15.154  0.0683  0.3162 -0.1305
 9311TIP3    H149348   3.513   3.643  15.116  0.6045 -0.6430  0.7120
 9311TIP3    H249349   3.422   3.692  15.227  0.1738  0.1762 -0.0008
 9312TIP3   OH249350   1.073   2.187  14.654  0.1796  0.4633 -0.5707
 9312TIP3    H149351   1.161   2.204  14.623  0.0213  0.4832 -1.0036
 9312TIP3    H249352   1.045   2.270  14.694  0.1303  0.6382 -0.9669
 9313TIP3   OH249353   2.442   3.376  15.309  0.7830 -0.6657  0.4375
 9313TIP3    H149354   2.535   3.381  15.332  0.9905 -0.9390 -0.3092
 9313TIP3    H249355   2.433   3.291  15.265  0.3853 -0.2030 -0.3772
 9314TIP3   OH249356   7.113   2.639  14.710  0.2260  0.3778 -0.0803
 9314TIP3    H149357   7.164   2.561  14.731 -0.7478  0.0959  1.2732
 9314TIP3    H249358   7.117   2.646  14.615  4.8174  1.7016  0.0830
 9315TIP3   OH249359   2.960   2.948  12.807 -0.7311 -0.1351 -0.2868
 9315TIP3    H149360   2.898   2.997  12.752 -0.0532  0.8929 -0.1461
 9315TIP3    H249361   2.907   2.916  12.880 -0.9587  1.4283  0.2594
 9316TIP3   OH249362   3.863   2.187   1.700 -0.0497  0.2040 -0.5213
 9316TIP3    H149363   3.897   2.210   1.613  1.3692 -1.3307 -0.4010
 9316TIP3    H249364   3.833   2.097   1.690  2.7625 -1.0058  1.2693
 9317TIP3   OH249365   3.216   5.099  14.758 -0.4755 -0.6480  0.0725
 9317TIP3    H149366   3.286   5.145  14.804 -0.8341  0.4421 -0.4273
 9317TIP3    H249367   3.211   5.013  14.799  1.3910 -0.8631 -0.1276
 9318TIP3   OH249368   6.819   5.252  13.813  0.0535 -0.0449 -0.8628
 9318TIP3    H149369   6.754   5.245  13.743  1.0079 -0.6831 -1.6928
 9318TIP3    H249370   6.903   5.246  13.769  0.7555  2.8473 -0.0171
 9319TIP3   OH249371   6.301   6.762  15.313  0.3246  0.7320  0.3528
 9319TIP3    H149372   6.284   6.726  15.226 -0.4590  0.0185  0.7967
 9319TIP3    H249373   6.397   6.767  15.318  0.4298 -0.5978 -0.0062
 9320TIP3   OH249374   2.986   5.332   1.445 -0.3136  0.2691 -0.1814
 9320TIP3    H149375   2.917   5.354   1.382  0.8972  0.8609 -1.3284
 9320TIP3    H249376   2.943   5.340   1.531 -1.6204  0.8052 -0.8625
 9321TIP3   OH249377   2.490   0.485  13.437 -0.3579  0.5951 -0.0588
 9321TIP3    H149378   2.471   0.406  13.487 -0.1746  1.0036  0.6670
 9321TIP3    H249379   2.409   0.536  13.440  0.8695  2.5062  3.3453
 9322TIP3   OH249380   0.993   1.040  13.053  0.5547  0.0779 -0.0039
 9322TIP3    H149381   0.921   0.977  13.052  0.4624  0.2034 -1.7941
 9322TIP3    H249382   1.026   1.036  13.143 -0.8210 -0.9490  0.4806
 9323TIP3   OH249383   2.904   2.938  10.295  0.2557  0.0164  0.0510
 9323TIP3    H149384   2.831   2.975  10.245 -0.4159  1.0969  1.7863
 9323TIP3    H249385   2.958   3.014  10.318  1.9166 -0.7655 -1.1520
 9324TIP3   OH249386   3.931   3.302  13.388 -0.2068 -0.3188  0.3243
 9324TIP3    H149387   3.997   3.261  13.331  0.3908 -0.9330  1.4272
 9324TIP3    H249388   3.939   3.254  13.471  0.6243  2.1487  1.7298
 9325TIP3   OH249389   5.160   5.223  15.248 -0.3877  0.4145 -0.0454
 9325TIP3    H149390   5.128   5.148  15.199 -0.2173  0.1585  0.2289
 9325TIP3    H249391   5.181   5.289  15.182  1.9648 -0.7261 -0.5022
 9326TIP3   OH249392   1.293   4.685  14.504 -0.1373 -0.5210  0.3177
 9326TIP3    H149393   1.379   4.701  14.464 -0.0044 -1.4933  0.2154
 9326TIP3    H249394   1.236   4.748  14.459  0.0293 -1.5369 -1.3767
 9327TIP3   OH249395   4.979   2.708  14.105  0.0953 -0.2410  0.1609
 9327TIP3    H149396   5.043   2.666  14.163 -0.5934 -0.6809  0.6154
 9327TIP3    H249397   4.898   2.660  14.121  0.0827 -0.9256 -1.7928
 9328TIP3   OH249398   6.466   5.940  12.571  0.1050 -0.4676  0.3374
 9328TIP3    H149399   6.452   5.969  12.481 -0.6572 -0.0969  0.5793
 9328TIP3    H249400   6.391   5.884  12.591  0.7734 -1.3548  0.4070
 9329TIP3   OH249401   5.710   1.006  15.299  1.0423  0.4480  0.1183
 9329TIP3    H149402   5.737   1.058  15.375 -0.9785  0.1210  1.0886
 9329TIP3    H249403   5.751   1.049  15.224  3.3123  0.5990  1.4066
 9330TIP3   OH249404   0.004   1.863  13.945  0.3601  0.4641 -0.0867
 9330TIP3    H149405  -0.035   1.857  14.032  1.1453 -0.0618  0.2286
 9330TIP3    H249406   0.098   1.852  13.959  0.3619 -1.0792 -1.1546
 9331TIP3   OH249407   0.152   3.659  14.651  0.3275  0.0906  0.3074
 9331TIP3    H149408   0.128   3.607  14.574  2.0930 -0.2714 -0.0210
 9331TIP3    H249409   0.174   3.595  14.718  3.5775  0.3079 -0.4297
 9332TIP3   OH249410   1.309   0.236  14.488  0.3763  0.0530 -0.0418
 9332TIP3    H149411   1.275   0.248  14.577  2.2888  0.3248  0.6885
 9332TIP3    H249412   1.244   0.180  14.445 -0.1742 -0.7764  1.7833
 9333TIP3   OH249413   6.609   4.400   1.415 -0.4247 -0.5511 -0.0650
 9333TIP3    H149414   6.603   4.476   1.473 -0.0051 -1.0115  0.5981
 9333TIP3    H249415   6.701   4.399   1.387  0.0869 -1.9558  1.5356
 9334TIP3   OH249416   2.073   3.710  14.536  0.1740 -0.2451 -0.3435
 9334TIP3    H149417   2.066   3.615  14.526  0.4179 -0.1575 -1.3420
 9334TIP3    H249418   2.050   3.725  14.628  1.4906 -1.4148  0.2030
 9335TIP3   OH249419   7.091   6.263  10.163 -0.1484 -0.2493 -0.5104
 9335TIP3    H149420   7.097   6.292  10.254 -0.5155  1.5992 -1.0470
 9335TIP3    H249421   6.997   6.248  10.149  0.1514 -2.8730  0.0902
 9336TIP3   OH249422   3.100   2.787   0.733  0.1090 -0.1901  0.8021
 9336TIP3    H149423   3.067   2.855   0.674  1.5116 -0.9525 -0.8860
 9336TIP3    H249424   3.053   2.803   0.815 -1.1016  1.5370 -0.1785
 9337TIP3   OH249425   6.544   3.671   0.622  0.8926  0.1168  0.1727
 9337TIP3    H149426   6.461   3.651   0.665  1.6154 -0.3708  1.3541
 9337TIP3    H249427   6.519   3.700   0.534 -0.4174 -2.2483 -0.2915
 9338TIP3   OH249428   4.083   4.123  10.753 -0.4811  0.2077 -0.0353
 9338TIP3    H149429   4.127   4.039  10.735 -0.7948  0.1243 -0.4125
 9338TIP3    H249430   4.140   4.189  10.713 -0.6585  0.1059 -0.4577
 9339TIP3   OH249431   6.445   4.358  15.210 -0.3304 -0.6559  0.0241
 9339TIP3    H149432   6.462   4.445  15.245 -0.8700 -1.4528  2.3265
 9339TIP3    H249433   6.531   4.326  15.184  0.1637 -0.3059  1.2222
 9340TIP3   OH249434   1.823   3.245  12.671 -0.6547  0.1950 -0.2998
 9340TIP3    H149435   1.843   3.290  12.589 -0.9085 -0.4395 -0.7146
 9340TIP3    H249436   1.877   3.166  12.669 -2.0196 -0.7301 -0.6979
 9341TIP3   OH249437   4.613   6.675  12.429 -0.2037 -0.1726 -0.2955
 9341TIP3    H149438   4.563   6.755  12.444 -0.1349  0.3570 -2.6502
 9341TIP3    H249439   4.672   6.669  12.505 -1.2846  1.1504  0.6810
 9342TIP3   OH249440   6.414   5.497   1.663 -0.3783  0.0895 -0.1211
 9342TIP3    H149441   6.388   5.550   1.588  0.6979  0.4514 -0.2537
 9342TIP3    H249442   6.458   5.421   1.625 -2.3966 -1.1857  0.0510
 9343TIP3   OH249443   5.817   6.546  15.064  0.1712 -0.1224 -0.1452
 9343TIP3    H149444   5.837   6.596  15.143  0.5693 -0.7806  0.1717
 9343TIP3    H249445   5.729   6.511  15.080 -0.8367  1.9074 -1.1039
 9344TIP3   OH249446   4.696   1.233  12.059 -0.1497  0.0007 -0.4280
 9344TIP3    H149447   4.624   1.170  12.055 -0.3220  0.1180  0.6503
 9344TIP3    H249448   4.771   1.182  12.090 -0.0667  0.1340 -0.4080
 9345TIP3   OH249449   1.447   3.248  11.412  0.2587  0.0560  0.0456
 9345TIP3    H149450   1.460   3.278  11.322  1.2936 -0.1443  0.1234
 9345TIP3    H249451   1.353   3.232  11.419  0.1536  0.2261 -0.9532
 9346TIP3   OH249452   5.905   3.049  14.119  0.7329 -0.2041 -0.2399
 9346TIP3    H149453   5.840   3.118  14.132  0.6876 -0.3955  0.5765
 9346TIP3    H249454   5.953   3.076  14.041 -0.2280  0.0077 -0.7629
 9347TIP3   OH249455   0.270   0.511  13.601  0.5358  0.0395  0.1084
 9347TIP3    H149456   0.273   0.593  13.552 -0.1692  0.9992  1.6625
 9347TIP3    H249457   0.322   0.527  13.680  2.4583 -1.8053 -0.7066
 9348TIP3   OH249458   3.426   0.794  14.386  0.2169  0.4400  0.3731
 9348TIP3    H149459   3.351   0.774  14.442 -0.3259  0.4032 -0.3580
 9348TIP3    H249460   3.478   0.856  14.437  0.6816 -0.9776  1.6814
 9349TIP3   OH249461   1.760   1.905  14.753  0.0037  0.2976 -0.2851
 9349TIP3    H149462   1.671   1.875  14.733 -0.1580  1.0518 -0.6846
 9349TIP3    H249463   1.772   1.983  14.700  0.1947  1.3455  1.2810
 9350TIP3   OH249464   0.504   2.945  12.949  0.5942 -0.0178 -0.1401
 9350TIP3    H149465   0.524   2.857  12.916  1.6266  0.7110 -1.4717
 9350TIP3    H249466   0.528   2.941  13.042  1.9550 -0.7509 -0.5044
 9351TIP3   OH249467   3.617   0.279  10.295 -0.1774  0.5149 -0.3068
 9351TIP3    H149468   3.698   0.251  10.337 -1.8202 -0.8868  2.0043
 9351TIP3    H249469   3.612   0.372  10.312  0.7279  0.5331 -0.1087
 9352TIP3   OH249470   1.000   4.811  12.943  0.0817  0.4188  0.3934
 9352TIP3    H149471   0.954   4.782  13.021 -0.1324 -0.1574  0.0572
 9352TIP3    H249472   1.088   4.774  12.952 -0.5092 -1.2825 -0.5549
 9353TIP3   OH249473   2.702   3.281  12.845  0.2176 -0.4520  0.2138
 9353TIP3    H149474   2.736   3.258  12.931 -0.4800  1.2668  0.9714
 9353TIP3    H249475   2.609   3.257  12.849 -0.2477  1.3341  0.6082
 9354TIP3   OH249476   4.046   3.565  13.549 -0.5942  0.0387 -0.1989
 9354TIP3    H149477   3.965   3.554  13.600 -2.9978  3.4304 -3.0711
 9354TIP3    H249478   4.036   3.505  13.475  1.2993 -2.3086  1.3995
 9355TIP3   OH249479   2.789   0.274  13.373 -0.4070  0.2346  0.0209
 9355TIP3    H149480   2.756   0.227  13.296 -0.5245  1.1762 -0.5077
 9355TIP3    H249481   2.809   0.362  13.341  2.5927 -0.2817  0.3381
 9356TIP3   OH249482   4.711   4.353  13.746  0.0831 -0.0018  0.4288
 9356TIP3    H149483   4.656   4.397  13.811 -2.7586 -0.1128 -1.8071
 9356TIP3    H249484   4.769   4.297  13.798 -0.0149  2.1497  3.0075
 9357TIP3   OH249485   1.157   4.807  11.929 -0.2909  0.2582 -0.1869
 9357TIP3    H149486   1.243   4.809  11.970 -0.7277  0.0479  0.7617
 9357TIP3    H249487   1.160   4.874  11.862  1.1240 -0.8001 -1.2055
 9358TIP3   OH249488   3.557   5.106  12.865 -0.1900  0.2089  0.3733
 9358TIP3    H149489   3.591   5.129  12.952 -0.3605  1.2937  0.1524
 9358TIP3    H249490   3.501   5.180  12.840 -0.1257 -0.0875 -0.6704
 9359TIP3   OH249491   3.916   0.312  14.982 -0.3023 -0.2841 -0.3039
 9359TIP3    H149492   3.952   0.240  14.931  0.5828  1.1592 -1.7725
 9359TIP3    H249493   3.934   0.390  14.930 -1.4807  0.9819  1.1209
 9360TIP3   OH249494   0.203   4.224  10.541 -0.0240  0.0688 -0.6077
 9360TIP3    H149495   0.113   4.232  10.509  0.1353  0.7611 -0.8825
 9360TIP3    H249496   0.205   4.138  10.584 -1.0173  0.3402  0.0180
 9361TIP3   OH249497   5.395   5.039  13.434 -0.3608 -0.2891  0.4612
 9361TIP3    H149498   5.367   5.051  13.343 -0.9976 -3.0130  0.2465
 9361TIP3    H249499   5.472   4.982  13.428 -0.3313 -0.3844  1.6284
 9362TIP3   OH249500   1.376   2.862  11.389  0.1911 -0.0185  0.4388
 9362TIP3    H149501   1.433   2.926  11.347 -0.4149  0.1313 -0.1618
 9362TIP3    H249502   1.317   2.914  11.444  0.1964 -0.1232  0.5449
 9363TIP3   OH249503   2.230   1.418  13.806 -0.4020  0.6940 -0.2804
 9363TIP3    H149504   2.313   1.454  13.774  0.4013 -1.7238 -0.9565
 9363TIP3    H249505   2.171   1.494  13.807  1.5569  2.2735 -0.6016
 9364TIP3   OH249506   5.615   5.639  13.122 -0.0272 -0.2347 -0.0544
 9364TIP3    H149507   5.640   5.585  13.047 -0.4741 -1.7052  0.8329
 9364TIP3    H249508   5.696   5.678  13.153  0.5794 -1.8065  0.3704
 9365TIP3   OH249509   5.028   6.105  13.371  0.1034 -0.2879 -0.1317
 9365TIP3    H149510   5.067   6.186  13.337 -0.2102  0.2960  0.8657
 9365TIP3    H249511   5.100   6.063  13.419 -0.2335  0.3369  0.9356
 9366TIP3   OH249512   5.570   3.952  12.283  0.0082 -0.3718  0.0842
 9366TIP3    H149513   5.588   3.865  12.318 -0.1443 -0.9669 -1.3055
 9366TIP3    H249514   5.505   3.938  12.214 -0.7283  0.9596  0.4946
 9367TIP3   OH249515   5.568   6.494  13.896  0.2325  0.1821  0.5805
 9367TIP3    H149516   5.555   6.410  13.940 -0.4008  0.2177  0.4675
 9367TIP3    H249517   5.484   6.539  13.904 -0.1853 -0.1718 -1.4277
 9368TIP3   OH249518   1.319   0.172  13.622 -0.0990 -0.0982 -0.4067
 9368TIP3    H149519   1.270   0.095  13.594  2.1694 -1.5019 -0.6246
 9368TIP3    H249520   1.295   0.240  13.559 -1.3111 -0.9085 -0.8372
 9369TIP3   OH249521   6.138   4.788   0.521  0.3220 -0.4646 -0.1151
 9369TIP3    H149522   6.045   4.769   0.511  0.5975 -1.4202 -0.9117
 9369TIP3    H249523   6.141   4.879   0.552 -0.8970 -0.6925  0.7050
 9370TIP3   OH249524   3.223   5.960   1.212 -0.3473 -0.0999 -0.3875
 9370TIP3    H149525   3.211   6.021   1.139  0.7063 -1.5476 -1.7882
 9370TIP3    H249526   3.292   5.901   1.183  0.3222 -0.4974  1.9347
 9371TIP3   OH249527   4.678   0.549  15.189  0.1624 -0.2095  0.5752
 9371TIP3    H149528   4.763   0.524  15.225  0.8001  0.6503 -0.2943
 9371TIP3    H249529   4.696   0.573  15.098 -1.1708 -0.8948  0.1110
 9372TIP3   OH249530   4.053   1.133  11.966  0.6739  0.3945  0.4189
 9372TIP3    H149531   4.115   1.201  11.994  1.7010  0.0565 -0.9578
 9372TIP3    H249532   3.982   1.181  11.924  0.3000  0.7493  1.4425
 9373TIP3   OH249533   4.582   2.968  14.702 -0.1382  0.0375 -0.2518
 9373TIP3    H149534   4.559   3.058  14.724  0.7906  0.0962  0.5503
 9373TIP3    H249535   4.575   2.963  14.607 -1.0341  0.7139 -0.2229
 9374TIP3   OH249536   4.104   5.245  14.567 -0.2384 -0.6085 -0.8436
 9374TIP3    H149537   4.033   5.288  14.615 -1.8583 -0.2467 -3.4699
 9374TIP3    H249538   4.170   5.314  14.556  0.1629 -0.6972  0.8047
 9375TIP3   OH249539   0.951   3.774   1.394  0.4147  0.7054  0.3372
 9375TIP3    H149540   0.924   3.721   1.319  0.7605  1.4033 -0.2811
 9375TIP3    H249541   0.991   3.710   1.454  0.9460  0.2731 -0.4599
 9376TIP3   OH249542   0.907   5.443  12.459 -0.1444 -0.2473  0.2049
 9376TIP3    H149543   0.841   5.399  12.404 -0.1499 -0.0991  0.0913
 9376TIP3    H249544   0.957   5.372  12.498  0.1966 -0.3476 -0.4035
 9377TIP3   OH249545   0.994   1.366  13.817 -0.0349  0.2490  0.4450
 9377TIP3    H149546   1.019   1.276  13.834  3.0796  0.3220 -3.2192
 9377TIP3    H249547   1.020   1.413  13.896  1.7233 -1.4793  0.9413
 9378TIP3   OH249548   2.174   6.732   1.133 -0.1649  0.2436  0.1523
 9378TIP3    H149549   2.206   6.809   1.180  2.5163  0.3482 -1.7547
 9378TIP3    H249550   2.242   6.712   1.069 -2.5079 -1.4825 -1.9230
 9379TIP3   OH249551   5.960   6.221  14.236 -0.1278 -0.1367  0.4718
 9379TIP3    H149552   6.025   6.181  14.178 -2.9421 -0.3892 -2.6290
 9379TIP3    H249553   5.948   6.310  14.202 -0.4829  0.3235  1.7778
 9380TIP3   OH249554   2.196   5.526  14.020 -0.1047 -0.3298 -0.0366
 9380TIP3    H149555   2.173   5.616  14.045 -1.2528 -0.7310  0.3738
 9380TIP3    H249556   2.201   5.529  13.925  0.2613  0.2673 -0.0025
 9381TIP3   OH249557   3.036   2.466  12.108 -0.2670  0.5113  0.1685
 9381TIP3    H149558   3.093   2.413  12.052 -0.9568 -1.3310  1.1614
 9381TIP3    H249559   3.082   2.550  12.117  0.3240  0.4904 -2.3140
 9382TIP3   OH249560   4.915   3.101  11.726 -0.3130  0.3948  0.8565
 9382TIP3    H149561   4.859   3.034  11.765 -2.0568  1.1280 -0.3296
 9382TIP3    H249562   4.982   3.053  11.679 -0.0740 -0.5075  2.1093
 9383TIP3   OH249563   7.034   5.587   1.719  0.7474 -0.1459  0.4692
 9383TIP3    H149564   7.078   5.623   1.642 -0.1265  0.6930  0.3539
 9383TIP3    H249565   6.997   5.504   1.690  1.1232 -0.2194  0.2067
 9384TIP3   OH249566   3.987   4.360  13.484 -0.4139  0.4761 -0.3714
 9384TIP3    H149567   3.964   4.280  13.435  2.1084 -0.4254 -0.1601
 9384TIP3    H249568   4.045   4.408  13.424 -1.9595  2.1890 -0.5123
 9385TIP3   OH249569   4.443   6.378   3.260 -0.6083  0.8689  0.0819
 9385TIP3    H149570   4.529   6.419   3.248 -1.0121  1.6629 -0.1120
 9385TIP3    H249571   4.404   6.424   3.334 -0.7651  0.3273  0.3414
 9386TIP3   OH249572   2.979   4.841  14.291 -0.1054  0.1073 -0.2850
 9386TIP3    H149573   3.023   4.925  14.303 -2.0867  1.0167  0.8796
 9386TIP3    H249574   3.027   4.799  14.219  1.4196  1.8720 -0.3369
 9387TIP3   OH249575   4.563   5.970   0.622  0.3023  0.2401  0.3449
 9387TIP3    H149576   4.614   5.894   0.594 -0.2211 -0.2767  0.7731
 9387TIP3    H249577   4.628   6.035   0.649  0.7775  0.2411 -0.7788
 9388TIP3   OH249578   4.873   4.210   0.877  0.1748 -0.1802 -0.2875
 9388TIP3    H149579   4.931   4.263   0.932 -0.0479  0.0004 -0.2253
 9388TIP3    H249580   4.795   4.195   0.931 -0.2384  0.3897 -0.7164
 9389TIP3   OH249581   5.121   3.921   1.433 -0.7174 -0.2202  0.1687
 9389TIP3    H149582   5.029   3.923   1.405 -1.1632  0.3361  1.6544
 9389TIP3    H249583   5.119   3.948   1.524  1.1906  2.0728 -0.4272
 9390TIP3   OH249584   6.198   1.251  13.928  0.4479  0.6360 -0.5149
 9390TIP3    H149585   6.129   1.186  13.937 -0.1728  1.4452  0.7120
 9390TIP3    H249586   6.154   1.329  13.895  0.8964  0.9154 -0.4587
 9391TIP3   OH249587   1.327   2.978   1.274  0.3092 -0.6561 -0.1940
 9391TIP3    H149588   1.304   3.042   1.340  1.1727 -0.2926 -0.2405
 9391TIP3    H249589   1.292   2.895   1.308 -1.3832 -0.0642 -0.4505
 9392TIP3   OH249590   0.480   6.055  15.070 -0.1917 -0.1923  0.3327
 9392TIP3    H149591   0.496   6.147  15.048 -0.2817 -0.1728  0.3473
 9392TIP3    H249592   0.386   6.050  15.088 -0.3291 -0.4458 -0.4406
 9393TIP3   OH249593   1.762   6.845   1.450 -0.0229  0.1589  0.5175
 9393TIP3    H149594   1.780   6.757   1.416 -2.4433 -0.0372 -0.3116
 9393TIP3    H249595   1.771   6.837   1.545 -1.4602 -1.3012  0.5426
 9394TIP3   OH249596   2.710   6.822  12.723  0.6711  0.3685 -0.2845
 9394TIP3    H149597   2.784   6.779  12.765 -0.3910 -2.0158 -0.7667
 9394TIP3    H249598   2.679   6.886  12.788  1.9233  0.0037  0.6792
 9395TIP3   OH249599   3.622   0.557  14.934  0.0059 -0.2240 -0.6320
 9395TIP3    H149600   3.603   0.636  14.882  3.4552  0.1953 -1.3700
 9395TIP3    H249601   3.648   0.492  14.869  0.3599 -0.9759  0.2663
 9396TIP3   OH249602   3.311   1.609   0.531 -0.1910  0.6713  0.0985
 9396TIP3    H149603   3.370   1.635   0.602 -1.5083 -0.3694  1.6062
 9396TIP3    H249604   3.354   1.534   0.490 -0.0995  0.4052  0.6825
 9397TIP3   OH249605   7.076   3.532  12.176  0.4532 -0.1892 -0.2895
 9397TIP3    H149606   7.158   3.525  12.224  0.6002  2.3607 -0.0747
 9397TIP3    H249607   7.102   3.554  12.087  0.0634 -1.9311 -0.8607
 9398TIP3   OH249608   6.740   4.596   2.281 -0.1405 -0.3100  0.3638
 9398TIP3    H149609   6.800   4.568   2.212 -1.1713  1.0014 -1.1165
 9398TIP3    H249610   6.792   4.657   2.334 -0.0693  0.6043 -0.7408
 9399TIP3   OH249611   6.354   6.390   1.759 -0.0786 -0.1173 -0.5739
 9399TIP3    H149612   6.292   6.451   1.719 -0.8091 -2.3760 -3.0165
 9399TIP3    H249613   6.301   6.339   1.820 -0.0458 -0.2082 -0.6219
 9400TIP3   OH249614   1.119   0.488  14.719  0.1019  0.3535  0.4274
 9400TIP3    H149615   1.076   0.560  14.672  0.3298  0.3595  0.2304
 9400TIP3    H249616   1.049   0.449  14.772  0.0054  0.8133  0.6474
 9401TIP3   OH249617   7.148   0.697   0.550 -0.0412  0.2486  0.0631
 9401TIP3    H149618   7.123   0.784   0.583 -0.6941 -0.0864  0.4729
 9401TIP3    H249619   7.095   0.685   0.471 -2.2182 -0.9921  1.6281
 9402TIP3   OH249620   3.606   0.689   0.260 -0.1356 -0.4878  0.0697
 9402TIP3    H149621   3.642   0.657   0.343  0.0782  1.0433  0.5879
 9402TIP3    H249622   3.641   0.778   0.252 -1.7865  0.1051 -0.6770
 9403TIP3   OH249623   6.513   1.477  13.845 -0.3875 -0.2192 -0.5807
 9403TIP3    H149624   6.440   1.511  13.793 -1.3876  0.1190  1.0024
 9403TIP3    H249625   6.471   1.432  13.919  0.9791  1.8410  1.5220
 9404TIP3   OH249626   3.179   2.968  13.426 -0.0319 -0.1341 -0.2576
 9404TIP3    H149627   3.163   2.900  13.361  0.7685  0.4771 -1.1139
 9404TIP3    H249628   3.257   3.014  13.394 -1.0194  1.6982 -0.1442
 9405TIP3   OH249629   4.283   5.695  13.817  0.0096 -0.0108  0.0276
 9405TIP3    H149630   4.205   5.655  13.857  0.4458 -0.1775  0.7164
 9405TIP3    H249631   4.304   5.637  13.744  1.3837 -1.7699  1.7843
 9406TIP3   OH249632   2.175   7.137  15.036 -0.6697  0.2331  0.5571
 9406TIP3    H149633   2.100   7.179  14.995 -1.2318 -0.0452  1.3044
 9406TIP3    H249634   2.248   7.197  15.020 -1.1436  0.7261  0.2524
 9407TIP3   OH249635   5.738   4.182  14.478 -0.1624  0.4630 -0.1523
 9407TIP3    H149636   5.805   4.216  14.418 -0.1331  0.4015 -0.1550
 9407TIP3    H249637   5.694   4.114  14.427 -0.4945  0.7823 -0.2900
 9408TIP3   OH249638   3.940   3.242  12.668 -0.3445  0.0786 -0.0238
 9408TIP3    H149639   3.952   3.246  12.762 -0.4234 -0.3981  0.0079
 9408TIP3    H249640   3.908   3.329  12.644 -0.2944  0.2094  0.3814
 9409TIP3   OH249641   5.660   6.465  10.713  0.0353  1.1022 -0.3393
 9409TIP3    H149642   5.580   6.416  10.693  1.0629 -2.1021  2.8387
 9409TIP3    H249643   5.721   6.441  10.643  0.5499 -2.3790  1.2182
 9410TIP3   OH249644   1.361   1.302  15.469  0.1770  0.0290 -1.0163
 9410TIP3    H149645   1.310   1.358  15.528  0.1641  0.8643 -1.8100
 9410TIP3    H249646   1.411   1.363  15.415  0.3926 -0.7407 -1.6948
 9411TIP3   OH249647   6.495   1.213  13.982  0.6655  0.0694 -0.1022
 9411TIP3    H149648   6.399   1.214  13.986  0.7022 -1.2398  1.8544
 9411TIP3    H249649   6.515   1.160  13.905 -0.1642  0.3057 -0.4997
 9412TIP3   OH249650   6.184   3.661  15.469  0.3913 -0.3126  0.2659
 9412TIP3    H149651   6.215   3.752  15.471 -1.3643  0.3049  0.6848
 9412TIP3    H249652   6.090   3.668  15.487  0.1250 -2.1670 -0.3284
 9413TIP3   OH249653   3.845   3.380  13.680  0.1112  0.4048  0.0442
 9413TIP3    H149654   3.769   3.428  13.646 -0.6170 -1.6028 -1.2623
 9413TIP3    H249655   3.810   3.327  13.752  0.0791 -1.1527 -1.0961
 9414TIP3   OH249656   1.298   4.529   1.443 -0.0367  0.6797  0.3859
 9414TIP3    H149657   1.387   4.556   1.463  0.9474 -0.9023 -1.6733
 9414TIP3    H249658   1.246   4.609   1.454  2.3262  2.7589 -2.6611
 9415TIP3   OH249659   2.102   4.059  11.038 -0.3021  0.4178  0.3955
 9415TIP3    H149660   2.090   4.152  11.052 -1.0258  0.5201 -0.8113
 9415TIP3    H249661   2.164   4.053  10.965 -0.5012 -0.0293  0.2548
 9416TIP3   OH249662   6.303   0.946  12.618  0.2071  0.3336 -0.0286
 9416TIP3    H149663   6.305   0.992  12.702  0.4279 -0.2147  0.2608
 9416TIP3    H249664   6.386   0.899  12.614  1.4864  2.6156 -1.8153
 9417TIP3   OH249665   6.311   6.692  14.277  0.1120 -0.3252  0.4317
 9417TIP3    H149666   6.300   6.609  14.230  0.3344  0.1455 -0.4573
 9417TIP3    H249667   6.311   6.758  14.209  0.2715  0.3833  1.1151
 9418TIP3   OH249668   2.131   5.266   1.772  0.2963  0.4762  0.6593
 9418TIP3    H149669   2.066   5.278   1.704  0.8526 -1.1558 -0.1853
 9418TIP3    H249670   2.212   5.300   1.734  0.1876  1.4058  1.2570
 9419TIP3   OH249671   0.526   5.413  15.178 -0.0338 -0.2763  0.1580
 9419TIP3    H149672   0.602   5.387  15.229  0.7043  0.4362 -0.5579
 9419TIP3    H249673   0.531   5.509  15.174 -0.6509 -0.2560 -0.3628
 9420TIP3   OH249674   1.207   5.769  13.828 -0.0231 -0.1258  0.0415
 9420TIP3    H149675   1.164   5.854  13.830  1.8769  0.8676 -0.3732
 9420TIP3    H249676   1.281   5.778  13.888  0.7347 -1.1809 -0.7121
 9421TIP3   OH249677   0.738   6.226   2.949  0.1334  0.0541 -0.3484
 9421TIP3    H149678   0.712   6.295   3.011  0.4784 -0.9520  0.9235
 9421TIP3    H249679   0.674   6.157   2.961  0.9288 -0.6686 -0.2403
 9422TIP3   OH249680   6.603   6.479  14.151  1.0543  0.0335  0.0533
 9422TIP3    H149681   6.675   6.428  14.188  0.2579 -0.9027  0.3281
 9422TIP3    H249682   6.524   6.434  14.180  0.3417  1.2642  0.0618
 9423TIP3   OH249683   2.757   0.793   2.122 -0.0042 -0.1145 -0.5176
 9423TIP3    H149684   2.843   0.823   2.151 -0.7127  0.3928  1.1425
 9423TIP3    H249685   2.731   0.854   2.053 -0.7021  2.1592  1.6726
 9424TIP3   OH249686   4.768   5.074  13.491 -0.3422  0.0521  0.0983
 9424TIP3    H149687   4.675   5.091  13.507 -0.1759  1.8138 -0.6218
 9424TIP3    H249688   4.779   5.093  13.397  0.5113 -1.2527 -0.0719
 9425TIP3   OH249689   4.382   2.843  11.778  0.5078 -0.2395  0.1213
 9425TIP3    H149690   4.377   2.861  11.872 -1.5895  0.0889 -0.0218
 9425TIP3    H249691   4.407   2.750  11.773  2.0052  0.0954  0.9577
 9426TIP3   OH249692   4.313   1.194  13.258 -0.5621 -0.1470 -0.1011
 9426TIP3    H149693   4.337   1.118  13.204  0.0085 -2.0294  2.6953
 9426TIP3    H249694   4.374   1.262  13.233  0.8800 -1.5809 -0.5517
 9427TIP3   OH249695   6.023   4.209  13.977  0.3127 -0.8934  0.2273
 9427TIP3    H149696   6.042   4.292  13.934  0.4383 -1.8402 -1.6288
 9427TIP3    H249697   6.109   4.170  13.993  0.3707  0.4906  3.5409
 9428TIP3   OH249698   2.126   5.147  15.270  0.0192  0.0557 -0.7829
 9428TIP3    H149699   2.055   5.179  15.326  1.1217 -0.1819  0.7500
 9428TIP3    H249700   2.146   5.060  15.303  2.7556  1.1034  0.4601
 9429TIP3   OH249701   3.092   5.006  14.078 -0.3531  0.4132 -0.3735
 9429TIP3    H149702   3.075   5.085  14.129  0.5502  1.4231 -1.6064
 9429TIP3    H249703   3.173   5.024  14.030 -1.1192 -0.5178 -2.1050
 9430TIP3   OH249704   5.593   0.305  12.622  0.3729 -0.0003  0.3063
 9430TIP3    H149705   5.647   0.376  12.657  0.2958  0.5572 -0.6916
 9430TIP3    H249706   5.507   0.319  12.661 -0.0033  1.2610 -0.9405
 9431TIP3   OH249707   2.438   4.071  14.018  0.5164  0.3167 -0.3454
 9431TIP3    H149708   2.427   4.011  13.945  1.8812 -0.3637 -0.0165
 9431TIP3    H249709   2.364   4.053  14.076  0.9246 -1.0775 -0.2428
 9432TIP3   OH249710   4.880   2.179  12.729  0.0147  0.1171 -0.2805
 9432TIP3    H149711   4.838   2.165  12.814 -0.0807  0.1776 -0.3172
 9432TIP3    H249712   4.808   2.179  12.666  0.0597  0.3089 -0.3328
 9433TIP3   OH249713   4.343   0.379   0.311  0.4344 -0.2778 -0.6182
 9433TIP3    H149714   4.283   0.337   0.373 -0.0749 -0.8255 -1.4754
 9433TIP3    H249715   4.399   0.308   0.281  0.8019  0.0257 -0.6462
 9434TIP3   OH249716   0.846   3.156  14.318 -0.1222 -0.0653  0.1891
 9434TIP3    H149717   0.921   3.123  14.368  0.3577  1.7152  0.6777
 9434TIP3    H249718   0.775   3.095  14.337  1.2264 -1.8303 -0.3614
 9435TIP3   OH249719   6.005   4.003  11.314 -0.2490  1.3737  0.3140
 9435TIP3    H149720   5.975   4.086  11.278 -0.1604  0.2899 -2.3901
 9435TIP3    H249721   5.949   3.987  11.390 -1.7769  2.7689 -0.5076
 9436TIP3   OH249722   1.019   4.243  13.914  0.0103 -0.0713 -0.0251
 9436TIP3    H149723   1.006   4.154  13.948  2.5437 -0.7812 -0.7938
 9436TIP3    H249724   0.935   4.266  13.875 -0.4213 -2.5060 -0.6216
 9437TIP3   OH249725   3.332   3.306   0.052  0.1798 -0.6777 -0.1488
 9437TIP3    H149726   3.381   3.266   0.125  1.8179  0.3231 -0.6900
 9437TIP3    H249727   3.320   3.397   0.078  0.2619 -0.4561 -0.8813
 9438TIP3   OH249728   1.968   5.217  13.789  0.6236 -0.1371  0.2824
 9438TIP3    H149729   2.034   5.284  13.770  1.4321 -1.1264 -0.5079
 9438TIP3    H249730   1.929   5.244  13.872  2.2342  0.3247  0.9082
 9439TIP3   OH249731   4.022   2.925   1.649 -0.1059  0.3142 -0.1806
 9439TIP3    H149732   3.982   2.900   1.732  2.2255  0.7401  1.1066
 9439TIP3    H249733   4.007   3.020   1.643 -1.3932  0.0806 -0.8938
 9440TIP3   OH249734   1.633   5.979  11.844  0.0494  0.2893  0.4754
 9440TIP3    H149735   1.546   5.944  11.825 -0.3058  1.2049  0.4002
 9440TIP3    H249736   1.692   5.904  11.834 -0.7423 -0.3565  0.6366
 9441TIP3   OH249737   0.198   0.685   0.775 -0.0185 -0.5145  0.5447
 9441TIP3    H149738   0.285   0.705   0.741 -0.0435 -0.3179  0.5952
 9441TIP3    H249739   0.144   0.671   0.697 -0.1612  0.2928  0.4919
 9442TIP3   OH249740   5.712   0.767   0.602  0.4396  0.3817  0.4222
 9442TIP3    H149741   5.632   0.762   0.655 -2.3784  1.4782 -3.4673
 9442TIP3    H249742   5.702   0.695   0.539  2.7654  0.2612  0.1698
 9443TIP3   OH249743   0.664   3.846  14.502  0.3405  0.0435 -0.2379
 9443TIP3    H149744   0.698   3.787  14.569 -2.5535 -0.5963  0.7176
 9443TIP3    H249745   0.694   3.933  14.530 -0.6053 -0.2469  1.7549
 9444TIP3   OH249746   5.304   0.356  12.726 -0.5426 -0.4836 -0.4211
 9444TIP3    H149747   5.305   0.442  12.684 -0.2678 -0.2116  0.1354
 9444TIP3    H249748   5.221   0.354  12.774  1.2154  1.0760  2.8298
 9445TIP3   OH249749   3.149   5.434  13.766 -0.4380 -0.0292  0.4874
 9445TIP3    H149750   3.138   5.429  13.860 -1.1372  0.2475  0.4195
 9445TIP3    H249751   3.140   5.528  13.745 -2.1530 -0.3038 -0.0809
 9446TIP3   OH249752   1.196   0.595  15.439 -0.0855  0.5427  0.1704
 9446TIP3    H149753   1.289   0.576  15.454 -0.2918 -1.8879 -1.4178
 9446TIP3    H249754   1.196   0.668  15.376  0.6998  3.0016  2.8933
 9447TIP3   OH249755   0.195   1.016  14.871  0.2637  0.7239 -0.5120
 9447TIP3    H149756   0.260   0.947  14.875 -2.8728 -2.2375  3.7333
 9447TIP3    H249757   0.234   1.089  14.918  0.7464 -0.8641  1.5998
 9448TIP3   OH249758   6.170   0.260  14.360 -0.0880  0.2079  0.4625
 9448TIP3    H149759   6.172   0.262  14.264  0.1714  2.1623  0.4911
 9448TIP3    H249760   6.100   0.198  14.381 -0.9397  0.6463 -0.9977
 9449TIP3   OH249761   4.070   0.292  12.179  0.1229  0.5853  0.1642
 9449TIP3    H149762   4.035   0.357  12.240 -0.5191 -0.1157  0.5570
 9449TIP3    H249763   4.003   0.287  12.110  0.6644  1.0970 -0.3989
 9450TIP3   OH249764   3.725   6.156   0.280 -0.2813  0.7251  0.2745
 9450TIP3    H149765   3.804   6.121   0.320 -0.2809 -0.1522 -0.4849
 9450TIP3    H249766   3.728   6.250   0.299  0.8617  0.6691  0.3862
 9451TIP3   OH249767   4.425   6.034  11.034  0.3341 -0.1513 -0.0796
 9451TIP3    H149768   4.391   5.968  10.974 -1.3235 -1.7163  2.4853
 9451TIP3    H249769   4.434   6.113  10.980 -1.9446 -1.2534 -2.1804
 9452TIP3   OH249770   1.671   4.295   0.949  0.0996 -0.2328  0.4518
 9452TIP3    H149771   1.662   4.348   0.870  1.6621 -3.3344 -1.8968
 9452TIP3    H249772   1.613   4.221   0.935 -0.0946 -0.5182  2.5500
 9453TIP3   OH249773   5.785   4.844  11.336 -0.6454  0.0480  0.1592
 9453TIP3    H149774   5.768   4.891  11.254 -0.0077 -0.1703 -0.1022
 9453TIP3    H249775   5.812   4.912  11.398 -1.0501  0.2030  0.1667
 9454TIP3   OH249776   5.863   2.754  11.468  0.3140  0.1727  0.5334
 9454TIP3    H149777   5.769   2.739  11.457  0.2714 -0.1284  1.2569
 9454TIP3    H249778   5.893   2.782  11.382 -0.0658 -1.6638 -0.2171
 9455TIP3   OH249779   1.022   4.904  12.428  0.0668 -0.2142 -0.3297
 9455TIP3    H149780   1.084   4.977  12.432 -0.9489  0.5813  3.0658
 9455TIP3    H249781   1.071   4.833  12.387  3.1602  0.4824  1.9738
 9456TIP3   OH249782   2.233   5.860  14.389  0.2208  0.7121 -0.2709
 9456TIP3    H149783   2.264   5.946  14.361  1.8513  0.2644  0.1117
 9456TIP3    H249784   2.201   5.874  14.478  1.0504  0.8040  0.0160
 9457TIP3   OH249785   6.099   1.494  13.523  0.1165 -0.2560 -0.0792
 9457TIP3    H149786   6.126   1.410  13.486  1.2066  0.4240 -0.8566
 9457TIP3    H249787   6.036   1.528  13.460 -1.5052 -1.1917  1.0185
 9458TIP3   OH249788   7.037   4.252  15.204  0.3154  0.3241  0.3641
 9458TIP3    H149789   7.061   4.344  15.204 -1.9399  0.9413  0.9824
 9458TIP3    H249790   7.059   4.221  15.292  2.3470 -0.1001 -0.2726
 9459TIP3   OH249791   2.096   2.569  10.553 -0.7289  0.3821 -0.0300
 9459TIP3    H149792   2.038   2.513  10.605  0.6514 -0.6744  0.3915
 9459TIP3    H249793   2.160   2.508  10.515 -0.6174  1.3831 -1.4748
 9460TIP3   OH249794   4.603   2.726   0.348 -0.0019  0.0292  0.2959
 9460TIP3    H149795   4.584   2.634   0.327  1.1755  0.3608 -2.4387
 9460TIP3    H249796   4.690   2.723   0.388 -0.2210 -0.1107  0.7635
 9461TIP3   OH249797   6.222   7.048  13.963  0.5856  0.1188 -0.3679
 9461TIP3    H149798   6.278   7.125  13.977  2.2664 -1.1529  0.1691
 9461TIP3    H249799   6.175   7.066  13.882  1.2044  1.5694 -0.4178
 9462TIP3   OH249800   0.984   4.519  15.468  0.1059  0.1642  0.1647
 9462TIP3    H149801   0.918   4.520  15.399 -0.5477 -2.0814  0.7214
 9462TIP3    H249802   0.934   4.527  15.550  0.6188 -0.1451  0.5116
 9463TIP3   OH249803   5.732   0.329   0.780 -0.0815 -0.7237  0.1879
 9463TIP3    H149804   5.696   0.274   0.710 -0.2852 -0.8624  0.3979
 9463TIP3    H249805   5.725   0.275   0.858  0.3388 -0.6461  0.2782
 9464TIP3   OH249806   7.061   4.174   0.831 -0.3945 -0.0409  0.2360
 9464TIP3    H149807   7.152   4.197   0.815  0.3333 -3.1852 -0.4994
 9464TIP3    H249808   7.064   4.089   0.876 -2.9269 -0.0160  0.5718
 9465TIP3   OH249809   5.691   2.554  10.376 -0.1773 -0.0154 -0.2171
 9465TIP3    H149810   5.702   2.606  10.455 -0.4322  0.0076 -0.1983
 9465TIP3    H249811   5.781   2.532  10.350 -0.1500 -1.0739  0.7687
 9466TIP3   OH249812   5.159   0.242   3.358  0.2939  0.1968  0.3334
 9466TIP3    H149813   5.144   0.290   3.276 -1.4885  1.4496  1.3525
 9466TIP3    H249814   5.095   0.172   3.357 -0.5357  0.9304  1.1880
 9467TIP3   OH249815   1.633   6.882  14.820  0.3390  0.6383 -0.0732
 9467TIP3    H149816   1.662   6.937  14.893 -0.6812 -0.6025  1.3044
 9467TIP3    H249817   1.707   6.881  14.760  2.1098 -0.2372  2.0489
 9468TIP3   OH249818   1.210   5.481  11.645 -0.1805 -0.0590  0.7554
 9468TIP3    H149819   1.166   5.446  11.567  2.0866 -0.2575 -0.4850
 9468TIP3    H249820   1.140   5.520  11.697 -1.7512  0.0416 -1.3714
 9469TIP3   OH249821   0.865   0.670  15.384  0.7305 -0.3075 -0.4172
 9469TIP3    H149822   0.878   0.755  15.427  1.4682  0.3631 -1.9021
 9469TIP3    H249823   0.934   0.667  15.317 -1.6825 -0.3624 -2.9662
 9470TIP3   OH249824   2.475   5.295  14.621  0.8465  0.1529 -0.1104
 9470TIP3    H149825   2.542   5.227  14.632 -0.2357 -0.8540  0.3374
 9470TIP3    H249826   2.393   5.246  14.609  0.6112  1.2839 -3.7769
 9471TIP3   OH249827   6.332   2.001  13.031  0.0485  0.1429  0.1924
 9471TIP3    H149828   6.356   1.927  12.975  0.4025  0.3866  0.0147
 9471TIP3    H249829   6.344   2.078  12.975 -3.1916  0.1393 -0.5867
 9472TIP3   OH249830   5.573   5.499  13.932 -0.3623 -0.0768 -0.5801
 9472TIP3    H149831   5.555   5.527  14.022  0.0198  0.1712 -0.5799
 9472TIP3    H249832   5.498   5.445  13.908 -0.9921  0.7660 -0.4983
 9473TIP3   OH249833   6.554   5.135   3.405  0.0114 -0.7136 -0.0573
 9473TIP3    H149834   6.619   5.075   3.369  1.9379  0.9981  0.5020
 9473TIP3    H249835   6.603   5.215   3.424 -2.5193  1.0877 -0.8694
 9474TIP3   OH249836   1.937   5.222   0.365  0.0870 -0.8547 -0.7548
 9474TIP3    H149837   1.951   5.199   0.273  2.0907 -0.4541 -0.5851
 9474TIP3    H249838   2.010   5.180   0.411  0.5401  1.0210  0.3017
 9475TIP3   OH249839   6.020   0.020   0.381 -0.3466 -0.9765  0.4135
 9475TIP3    H149840   6.086  -0.008   0.445  1.2669 -0.7691 -1.1076
 9475TIP3    H249841   6.021  -0.048   0.314 -1.0760 -0.5447 -0.0468
 9476TIP3   OH249842   1.407   4.532  11.953 -0.1904  0.2789 -0.6139
 9476TIP3    H149843   1.416   4.602  11.889  0.0078  1.8282  1.0589
 9476TIP3    H249844   1.357   4.464  11.908  2.4262  0.0847 -3.3748
 9477TIP3   OH249845   4.267   4.872  13.744 -0.4035 -0.0026  0.5358
 9477TIP3    H149846   4.174   4.855  13.736 -0.2975 -0.4050  0.1928
 9477TIP3    H249847   4.291   4.837  13.830 -0.4068 -0.5815  0.2951
 9478TIP3   OH249848   5.458   6.221  15.144 -0.3792 -0.1430  0.5344
 9478TIP3    H149849   5.465   6.316  15.129  0.7971 -0.5242 -1.5198
 9478TIP3    H249850   5.516   6.203  15.217  2.1528  0.2259 -1.3348
 9479TIP3   OH249851   4.931   6.992   0.952 -0.2182 -0.2655 -0.6082
 9479TIP3    H149852   5.014   6.997   0.905 -0.8022  0.6712 -1.5777
 9479TIP3    H249853   4.883   6.920   0.911 -0.2735 -0.1887 -0.6780
 9480TIP3   OH249854   6.871   3.258   0.494  0.0252 -0.3571  0.5561
 9480TIP3    H149855   6.939   3.300   0.441  0.2942 -1.3099  0.1431
 9480TIP3    H249856   6.813   3.330   0.520  0.8120  0.3582  0.3527
 9481TIP3   OH249857   5.552   4.845  13.793  0.0723  0.4064  0.0166
 9481TIP3    H149858   5.618   4.850  13.724 -2.7904 -0.6128 -2.9563
 9481TIP3    H249859   5.513   4.758  13.782 -0.2021  0.0989  3.2008
 9482TIP3   OH249860   4.878   5.372  13.091  0.8634 -0.7425  0.2172
 9482TIP3    H149861   4.873   5.288  13.137  0.7547 -0.5860  0.4956
 9482TIP3    H249862   4.965   5.407  13.113  1.6587 -1.6490 -1.4271
 9483TIP3   OH249863   5.817   0.804  14.281  0.0499 -0.2604  0.0180
 9483TIP3    H149864   5.784   0.822  14.369 -1.2128  2.6615 -1.0035
 9483TIP3    H249865   5.740   0.779  14.230  0.6850 -1.3203 -0.4633
 9484TIP3   OH249866   2.096   3.506  11.403 -0.5611  0.4778 -0.0397
 9484TIP3    H149867   2.072   3.597  11.423  0.5243  0.9954 -1.0429
 9484TIP3    H249868   2.080   3.498  11.309  0.0976 -0.1379 -0.0951
 9485TIP3   OH249869   5.575   2.165  13.101  0.5916 -0.1126  0.0318
 9485TIP3    H149870   5.655   2.206  13.069  0.6072  0.0275  0.2568
 9485TIP3    H249871   5.596   2.071  13.105  0.2923 -0.2457 -1.2734
 9486TIP3   OH249872   5.269   4.415  15.509  0.0469  0.5419 -0.6379
 9486TIP3    H149873   5.289   4.330  15.549 -0.2482 -0.4626 -2.5268
 9486TIP3    H249874   5.236   4.392  15.421 -1.1772  2.5558 -0.7261
 9487TIP3   OH249875   4.199   5.439   0.861  0.1428  0.3628  0.1466
 9487TIP3    H149876   4.264   5.460   0.794  0.0316  0.7800  0.1662
 9487TIP3    H249877   4.147   5.368   0.823 -0.6580  1.3791 -0.6850
 9488TIP3   OH249878   0.669   5.966   0.316 -0.4548  0.4775  0.0101
 9488TIP3    H149879   0.693   6.025   0.244  0.1607 -0.0942 -0.2620
 9488TIP3    H249880   0.579   5.941   0.297  0.0297 -0.4957 -1.1677
 9489TIP3   OH249881   5.261   0.969   0.568 -0.2297  0.2737 -0.0293
 9489TIP3    H149882   5.213   0.927   0.497  0.7796 -0.9166 -0.0366
 9489TIP3    H249883   5.301   1.046   0.528  0.6271 -0.5901 -0.8561
 9490TIP3   OH249884   4.103   5.896  12.638  0.3196  0.5989 -0.9705
 9490TIP3    H149885   4.061   5.963  12.584 -1.2239 -0.7646 -1.5140
 9490TIP3    H249886   4.030   5.846  12.676  1.4217 -0.5596 -0.3153
 9491TIP3   OH249887   5.055   6.465  12.751  0.2241  0.0886 -0.2759
 9491TIP3    H149888   4.971   6.486  12.709  0.0590 -2.4308 -1.3594
 9491TIP3    H249889   5.116   6.530  12.717 -0.7440  0.3656 -1.5326
 9492TIP3   OH249890   1.511   0.342  11.140  0.0012  0.3958 -0.2787
 9492TIP3    H149891   1.422   0.325  11.108 -0.6093  0.6703  1.2446
 9492TIP3    H249892   1.558   0.376  11.063 -1.9494  2.8858 -0.4388
 9493TIP3   OH249893   1.720   4.863  14.350  0.1419  0.3598  0.0004
 9493TIP3    H149894   1.785   4.873  14.419 -0.0417  3.4573 -0.1687
 9493TIP3    H249895   1.770   4.867  14.268  0.1727 -1.5760 -0.0978
 9494TIP3   OH249896   3.915   5.860  13.805  0.5448  0.4469 -0.2277
 9494TIP3    H149897   3.913   5.771  13.839 -0.4331  0.9000  0.9500
 9494TIP3    H249898   4.008   5.883  13.803  0.6718  0.1800  1.6149
 9495TIP3   OH249899   6.612   0.036   0.009  0.7677  0.1497 -0.4543
 9495TIP3    H149900   6.548   0.101   0.038  1.2398  0.3519  0.1360
 9495TIP3    H249901   6.664   0.017   0.087  1.8564  0.4759 -1.0945
 9496TIP3   OH249902   0.882   5.712  12.437  0.0865 -0.0643 -0.5045
 9496TIP3    H149903   0.950   5.751  12.492 -1.0555  1.6083 -0.2498
 9496TIP3    H249904   0.880   5.620  12.465  0.7999  0.3303  0.9427
 9497TIP3   OH249905   6.083   5.616   1.356 -0.8321  0.2592 -0.5224
 9497TIP3    H149906   6.038   5.700   1.348 -2.7498 -0.6076  0.9860
 9497TIP3    H249907   6.019   5.551   1.328  0.1722 -0.8274 -0.3478
 9498TIP3   OH249908   4.895   3.914   0.224  0.3963 -0.3848  0.6999
 9498TIP3    H149909   4.882   3.909   0.318  0.0382 -1.5928  0.5984
 9498TIP3    H249910   4.932   3.829   0.201  0.8874  0.0599 -0.1909
 9499TIP3   OH249911   1.545   2.665  12.555  0.2713  0.3400  0.4030
 9499TIP3    H149912   1.524   2.584  12.599  1.0617 -0.2444 -0.2703
 9499TIP3    H249913   1.606   2.710  12.614  0.5362  0.0275  0.3675
 9500TIP3   OH249914   1.221   2.829   2.067 -0.6042 -0.3382 -0.3350
 9500TIP3    H149915   1.201   2.919   2.044  0.0091 -0.5282 -1.6435
 9500TIP3    H249916   1.299   2.835   2.122 -1.2980  0.0145  0.6224
 9501TIP3   OH249917   5.646   6.798  12.403 -1.3209 -0.6409 -0.1688
 9501TIP3    H149918   5.613   6.766  12.487 -0.9211 -0.6449 -0.0122
 9501TIP3    H249919   5.617   6.732  12.339 -0.2533 -1.4764  0.1937
 9502TIP3   OH249920   2.522   6.233   0.382 -0.3299 -0.1674  0.3365
 9502TIP3    H149921   2.602   6.187   0.356 -0.0718  1.0160 -1.0051
 9502TIP3    H249922   2.551   6.294   0.450  0.3323  1.7619 -1.6293
 9503TIP3   OH249923   1.063   2.683  13.816 -0.4676 -0.9692  0.9329
 9503TIP3    H149924   1.080   2.688  13.910  2.1745  0.5166  0.3901
 9503TIP3    H249925   1.008   2.759  13.797 -0.2245 -0.7595  1.0824
 9504TIP3   OH249926   4.194   1.072   1.080 -0.3268 -0.7965  0.0556
 9504TIP3    H149927   4.213   0.981   1.057 -0.9684 -0.5461 -1.5393
 9504TIP3    H249928   4.251   1.124   1.024 -1.3068 -0.1911 -0.4081
 9505TIP3   OH249929   6.299   1.595   1.916  0.2987 -0.1923  0.2057
 9505TIP3    H149930   6.288   1.684   1.884 -2.8536 -1.6757 -3.0916
 9505TIP3    H249931   6.391   1.574   1.897  0.5805  1.6927 -0.5855
 9506TIP3   OH249932   6.755   4.535  10.567  0.6597  0.1264 -0.8295
 9506TIP3    H149933   6.776   4.454  10.520 -0.3957  0.9901 -2.8298
 9506TIP3    H249934   6.834   4.555  10.616  0.8586 -2.2411 -0.1368
 9507TIP3   OH249935   0.920   0.381  14.143 -0.0927 -0.0137 -0.4223
 9507TIP3    H149936   0.836   0.409  14.179  0.3578  1.2861 -0.3586
 9507TIP3    H249937   0.932   0.292  14.176 -0.0371  0.8574  2.0677
 9508TIP3   OH249938   5.318   0.731  12.090 -0.1741  0.2415  0.0973
 9508TIP3    H149939   5.264   0.657  12.062  0.9731 -0.4029 -0.4657
 9508TIP3    H249940   5.256   0.794  12.128 -1.4575  0.0350 -1.6156
 9509TIP3   OH249941   6.956   6.885   0.023 -0.3256  0.2125  0.1141
 9509TIP3    H149942   7.003   6.949  -0.031 -1.0316  1.7672  1.3286
 9509TIP3    H249943   6.952   6.806  -0.031  1.0093  1.0272 -1.1916
 9510TIP3   OH249944   6.806   6.577  13.951  0.5287  0.0542 -0.1518
 9510TIP3    H149945   6.777   6.525  14.026 -1.4442  1.1220 -0.1604
 9510TIP3    H249946   6.787   6.667  13.975  1.9434  0.6057 -1.0404
 9511TIP3   OH249947   1.436   6.282  14.264 -0.4256  0.7140 -0.0442
 9511TIP3    H149948   1.404   6.371  14.277 -1.1177  0.3721  0.5919
 9511TIP3    H249949   1.373   6.242  14.204 -0.6318  0.3626  0.4027
 9512TIP3   OH249950   3.539   1.091   1.156 -0.1885 -0.1418 -0.0022
 9512TIP3    H149951   3.585   1.171   1.131 -0.1397 -0.8661 -2.3624
 9512TIP3    H249952   3.577   1.067   1.241  1.2271  1.2483 -0.2163
 9513TIP3   OH249953   4.324   0.574  11.840  0.3630 -0.1034 -0.2400
 9513TIP3    H149954   4.310   0.631  11.765  0.6226  0.1359 -0.1095
 9513TIP3    H249955   4.237   0.561  11.878  0.3885  0.7561  0.1239
 9514TIP3   OH249956   4.622   1.602  12.811  0.8568 -0.3298  0.3269
 9514TIP3    H149957   4.683   1.534  12.781 -0.9088 -1.6403 -0.4398
 9514TIP3    H249958   4.536   1.571  12.781  0.0477  2.4523 -0.3824
 9515TIP3   OH249959   4.420   3.122  14.272  0.0536 -0.4746 -0.1978
 9515TIP3    H149960   4.352   3.172  14.317 -0.8336 -1.3611 -0.5243
 9515TIP3    H249961   4.373   3.050  14.231  1.2707 -1.4229  0.0363
 9516TIP3   OH249962   2.995   1.418   3.121  0.1556  0.2642  0.3430
 9516TIP3    H149963   3.066   1.413   3.057 -0.7569 -0.7112 -0.5998
 9516TIP3    H249964   3.036   1.395   3.205  0.3365 -3.3865 -0.6608
 9517TIP3   OH249965   5.848   2.766  15.535 -0.0243 -1.1030  0.3318
 9517TIP3    H149966   5.824   2.680  15.502 -1.6788 -0.3987 -0.3715
 9517TIP3    H249967   5.934   2.754  15.575  0.1683 -2.8735 -0.5755
 9518TIP3   OH249968   6.313   0.667  11.436  0.4168 -0.1016  0.3034
 9518TIP3    H149969   6.224   0.658  11.402  0.8015 -1.6202 -0.3638
 9518TIP3    H249970   6.360   0.713  11.367  0.4400 -0.3901  0.1258
 9519TIP3   OH249971   0.805   4.374  12.004  0.2987 -0.8841 -0.1046
 9519TIP3    H149972   0.872   4.305  11.999  1.9011  0.4535  2.3883
 9519TIP3    H249973   0.744   4.343  12.071  0.0529 -0.6920 -0.2403
 9520TIP3   OH249974   5.615   3.947  11.309  0.2525 -0.2651 -0.0319
 9520TIP3    H149975   5.631   3.883  11.379 -0.1442  1.8970  2.1164
 9520TIP3    H249976   5.536   3.916  11.265 -0.9868 -0.3188  2.1632
 9521TIP3   OH249977   2.754   3.731  10.342 -0.2017 -0.1716  0.1418
 9521TIP3    H149978   2.845   3.703  10.333 -0.2446 -0.3428  0.2279
 9521TIP3    H249979   2.717   3.722  10.254  0.2486  1.2710 -0.1957
 9522TIP3   OH249980   4.616   6.489   0.222  0.0856 -0.3667 -0.3502
 9522TIP3    H149981   4.614   6.464   0.129 -0.1696 -3.2552  0.3845
 9522TIP3    H249982   4.525   6.500   0.246  0.2307  2.2505 -0.8785
 9523TIP3   OH249983   6.165   7.103   0.607 -0.4099  0.2417  0.4489
 9523TIP3    H149984   6.234   7.137   0.664 -0.4185  0.6113  0.2432
 9523TIP3    H249985   6.205   7.030   0.561  0.9204  2.5729 -2.2022
 9524TIP3   OH249986   2.204   2.771   0.715  0.9571  0.5760  0.3671
 9524TIP3    H149987   2.268   2.745   0.782  0.7301 -0.8366  0.0480
 9524TIP3    H249988   2.139   2.701   0.715  0.4138  1.0698 -0.6301
 9525TIP3   OH249989   0.882   0.961  13.867 -0.7441 -0.0472 -0.1403
 9525TIP3    H149990   0.887   0.925  13.955 -1.0848  0.1263 -0.0464
 9525TIP3    H249991   0.951   1.028  13.864 -2.0386  1.3687  0.6693
 9526TIP3   OH249992   3.773   3.019  10.384  0.2485  0.5773  0.5420
 9526TIP3    H149993   3.853   2.979  10.419 -0.4729 -1.7819 -0.3640
 9526TIP3    H249994   3.797   3.050  10.297  0.0724 -0.5713  0.0754
 9527TIP3   OH249995   4.010   6.419  11.104 -0.3896 -0.7974  0.1454
 9527TIP3    H149996   4.033   6.475  11.178  0.7611 -3.8287  2.1722
 9527TIP3    H249997   4.024   6.475  11.027 -0.2970  1.9993  2.0924
 9528TIP3   OH249998   6.915   6.120  15.006  0.0641 -0.4468  0.4957
 9528TIP3    H149999   6.955   6.065  15.073 -3.1807  0.4222  3.2957
 9528TIP3    H250000   6.821   6.110  15.020 -0.7342  0.1343 -3.6955
 9529TIP3   OH250001   4.993   1.559  15.018 -0.3403 -0.1810  0.0655
 9529TIP3    H150002   5.024   1.632  14.964 -1.6132 -1.0489 -1.9309
 9529TIP3    H250003   5.002   1.482  14.960 -1.9687 -1.1035  1.0125
 9530TIP3   OH250004   2.596   5.576  12.315 -0.2940 -0.3479  0.1706
 9530TIP3    H150005   2.523   5.521  12.286 -0.2172 -0.3213 -0.0752
 9530TIP3    H250006   2.633   5.530  12.390  1.1089 -1.7385 -1.3271
 9531TIP3   OH250007   6.214   0.517   1.441 -0.5171  0.2302 -0.2377
 9531TIP3    H150008   6.295   0.495   1.395  0.3869  1.3842  0.7731
 9531TIP3    H250009   6.145   0.485   1.383  0.6626 -2.0208 -0.4962
 9532TIP3   OH250010   6.646   6.237  13.788 -0.7545  1.0418 -0.2045
 9532TIP3    H150011   6.577   6.209  13.848 -0.3311 -1.3523 -0.7586
 9532TIP3    H250012   6.717   6.265  13.845  0.0527 -2.2275  0.4878
 9533TIP3   OH250013   6.466   2.223  14.948  0.2007 -0.1573  1.1086
 9533TIP3    H150014   6.561   2.229  14.956  0.6381  1.3034 -3.4324
 9533TIP3    H250015   6.447   2.130  14.950  1.5654 -0.4138  3.2893
 9534TIP3   OH250016   3.806   3.178  13.047  0.3577 -0.0405  0.1711
 9534TIP3    H150017   3.813   3.273  13.061 -0.0344  0.0334 -0.1601
 9534TIP3    H250018   3.785   3.143  13.134 -1.1001  0.3311 -0.0293
 9535TIP3   OH250019   1.201   3.634  11.362 -0.3263 -0.4739  0.1128
 9535TIP3    H150020   1.200   3.726  11.385  1.4927 -0.5682  0.6811
 9535TIP3    H250021   1.175   3.589  11.443 -1.5872 -0.4506 -0.2709
 9536TIP3   OH250022   4.653   4.658   0.784 -0.3154 -0.2778 -0.1377
 9536TIP3    H150023   4.620   4.747   0.794  0.7011  0.0322  0.4970
 9536TIP3    H250024   4.682   4.654   0.693 -1.4631 -0.3500 -0.5193
 9537TIP3   OH250025   0.567   3.494  11.196 -0.1668 -0.6147  0.2279
 9537TIP3    H150026   0.593   3.581  11.164  0.3955 -1.8757 -2.8172
 9537TIP3    H250027   0.475   3.486  11.173  0.1450 -1.3873 -0.7603
 9538TIP3   OH250028   2.558   5.583  11.494  0.2734  0.1651  0.5928
 9538TIP3    H150029   2.566   5.635  11.414  5.3695  1.4801  1.7837
 9538TIP3    H250030   2.535   5.648  11.561 -1.4630 -0.5271  0.6910
 9539TIP3   OH250031   5.729   5.236  14.742 -0.0153 -0.5002 -0.3098
 9539TIP3    H150032   5.668   5.308  14.728  0.6760  0.0784 -0.3837
 9539TIP3    H250033   5.678   5.170  14.791 -0.1817  0.7288  1.2163
 9540TIP3   OH250034   5.394   7.094  12.268 -0.0729  0.0878  0.7139
 9540TIP3    H150035   5.456   7.061  12.203  0.7422 -0.6352  1.8427
 9540TIP3    H250036   5.396   7.189  12.256  1.5369  0.0972  0.9767
 9541TIP3   OH250037   3.272   5.752  15.200 -0.5032  0.1871  0.1810
 9541TIP3    H150038   3.289   5.826  15.259  0.7575 -1.2010  1.6086
 9541TIP3    H250039   3.191   5.775  15.155  1.2809  3.6691 -1.4202
 9542TIP3   OH250040   4.008   0.370   0.649  0.5804 -0.2445  0.1431
 9542TIP3    H150041   3.926   0.359   0.600  0.6467  0.5802 -0.1659
 9542TIP3    H250042   3.997   0.453   0.695  2.4181  1.3999 -2.2556
 9543TIP3   OH250043   4.369   4.187  10.659  0.4257  0.1180  0.1087
 9543TIP3    H150044   4.364   4.091  10.667  0.5005 -0.0966 -1.9627
 9543TIP3    H250045   4.418   4.201  10.578 -0.9333  1.8923 -0.4353
 9544TIP3   OH250046   4.020   6.422   0.223  0.0347  0.1206  0.6119
 9544TIP3    H150047   4.036   6.489   0.290  0.7551 -0.0337  0.5903
 9544TIP3    H250048   3.929   6.438   0.195  0.4412  1.5747  0.0687
 9545TIP3   OH250049   5.225   6.691  12.907 -0.1407  0.4125 -0.6716
 9545TIP3    H150050   5.201   6.658  12.820 -0.0178 -0.2947 -0.4384
 9545TIP3    H250051   5.162   6.761  12.923 -1.1424 -0.4671 -0.6848
 9546TIP3   OH250052   6.663   5.683  13.257  0.4987  0.2324 -0.4236
 9546TIP3    H150053   6.731   5.722  13.203  0.9435  1.9046  1.2545
 9546TIP3    H250054   6.585   5.735  13.238  0.0397 -0.7521 -1.2670
 9547TIP3   OH250055   1.752   1.705  12.654 -1.0778  0.5576  0.0544
 9547TIP3    H150056   1.739   1.761  12.578 -1.2723  1.4599  0.7459
 9547TIP3    H250057   1.675   1.719  12.708  0.0931  1.6402  1.4766
 9548TIP3   OH250058   3.197   0.135   2.193 -0.2741  0.1860 -0.2722
 9548TIP3    H150059   3.218   0.195   2.265 -1.1618 -0.5643  0.6345
 9548TIP3    H250060   3.102   0.137   2.186 -0.3010 -0.8756 -0.4319
 9549TIP3   OH250061   5.578   0.109  12.982 -0.4080  0.0090  0.3562
 9549TIP3    H150062   5.646   0.176  12.980 -1.4795  1.3709  4.5361
 9549TIP3    H250063   5.618   0.034  13.025 -0.6896 -0.2848  0.1151
 9550TIP3   OH250064   5.861   1.931   0.700  0.0737 -0.3674 -0.2712
 9550TIP3    H150065   5.906   1.859   0.745 -0.6426 -1.3861 -1.1506
 9550TIP3    H250066   5.781   1.891   0.666 -2.1718  1.6747  2.3083
 9551TIP3   OH250067   5.566   5.267   0.213 -0.4829 -0.6271 -0.1821
 9551TIP3    H150068   5.626   5.284   0.286 -0.2104 -0.9238 -0.3348
 9551TIP3    H250069   5.524   5.351   0.196 -1.9757 -0.9648  1.5880
 9552TIP3   OH250070   5.074   7.082   0.583 -0.1839  0.1735  0.1943
 9552TIP3    H150071   5.114   7.146   0.643 -0.9729  1.3655 -0.5481
 9552TIP3    H250072   5.134   7.007   0.586  1.0242  1.1373  0.6725
 9553TIP3   OH250073   4.422   2.572   1.709 -0.0912 -0.0967  0.1804
 9553TIP3    H150074   4.344   2.527   1.739 -1.1449  0.0486 -2.2904
 9553TIP3    H250075   4.391   2.659   1.682  1.0490  0.2035 -0.1918
 9554TIP3   OH250076   7.021   0.372   1.558  0.2866  0.0903  0.3922
 9554TIP3    H150077   7.014   0.448   1.500  0.1492  1.8514  2.6541
 9554TIP3    H250078   6.957   0.389   1.627  2.3299 -0.6568  2.5184
 9555TIP3   OH250079   1.458   5.214  11.462 -0.2645  0.0640 -0.2232
 9555TIP3    H150080   1.499   5.215  11.549 -3.1710 -2.7469  1.2933
 9555TIP3    H250081   1.503   5.144  11.415 -0.1545  0.1201 -0.2004
 9556TIP3   OH250082   4.844   1.255  13.796 -0.0427 -0.1227  0.0858
 9556TIP3    H150083   4.882   1.232  13.881  1.1843 -0.4413 -0.5393
 9556TIP3    H250084   4.849   1.351  13.793 -0.2130 -0.1002  0.4201
 9557TIP3   OH250085   5.423   5.155  15.225 -0.3950  0.4674  0.1035
 9557TIP3    H150086   5.466   5.231  15.265 -0.0054 -0.3534  1.2451
 9557TIP3    H250087   5.330   5.176  15.229 -0.3536  0.4790  1.2943
 9558TIP3   OH250088   4.450   0.695  14.127  0.0989 -0.0523  0.5284
 9558TIP3    H150089   4.404   0.774  14.099 -0.1098  0.0459  1.1232
 9558TIP3    H250090   4.540   0.723  14.142  0.2539 -0.1473 -0.2135
 9559TIP3   OH250091   2.652   1.079   1.189 -0.3835  0.7254  0.4588
 9559TIP3    H150092   2.738   1.039   1.175 -0.9555 -0.2355 -0.3683
 9559TIP3    H250093   2.672   1.166   1.225  0.9790  1.1409 -1.2032
 9560TIP3   OH250094   1.372   6.264   0.369 -0.1848  0.4807 -0.7176
 9560TIP3    H150095   1.344   6.299   0.284  0.4481  2.3561 -0.1792
 9560TIP3    H250096   1.455   6.308   0.386  2.1355 -3.4262 -1.3308
 9561TIP3   OH250097   3.507   6.468  13.933  0.3566 -0.6404  0.0762
 9561TIP3    H150098   3.556   6.536  13.979 -0.1199 -0.0612 -0.2694
 9561TIP3    H250099   3.474   6.511  13.854  1.7545 -1.7907 -1.1769
 9562TIP3   OH250100   1.221   5.753   1.119  0.0176 -0.3915  0.1330
 9562TIP3    H150101   1.211   5.730   1.212  0.6212  0.2290  0.3567
 9562TIP3    H250102   1.312   5.783   1.112 -0.1086 -0.1870 -0.6083
 9563TIP3   OH250103   6.004   4.640   4.413  0.5007  0.0457  0.4433
 9563TIP3    H150104   5.993   4.689   4.331  0.3104 -0.5271  0.1245
 9563TIP3    H250105   6.076   4.580   4.394  1.2797  0.7504  1.0956
 9564TIP3   OH250106   5.396   0.831  13.138 -0.1884  0.0561  0.3046
 9564TIP3    H150107   5.428   0.916  13.108  0.6889 -0.1918  0.5203
 9564TIP3    H250108   5.456   0.768  13.098 -2.1717 -0.6278 -1.6993
 9565TIP3   OH250109   0.806   5.522  15.194 -0.3193 -0.0931 -0.1100
 9565TIP3    H150110   0.762   5.606  15.210  2.3584  1.1898  0.8207
 9565TIP3    H250111   0.885   5.546  15.146  0.4006 -2.1219  0.0479
 9566TIP3   OH250112   4.749   5.482  11.321 -0.7983  0.0381 -0.2000
 9566TIP3    H150113   4.674   5.542  11.328 -0.4086  0.7644 -2.0203
 9566TIP3    H250114   4.822   5.531  11.360 -1.0129 -0.2227  0.5366
 9567TIP3   OH250115   2.212   1.204  11.962 -0.3940  0.3075 -0.1637
 9567TIP3    H150116   2.212   1.196  11.867 -1.5736  0.5670 -0.1938
 9567TIP3    H250117   2.148   1.140  11.992 -1.5269  1.6242  0.3137
 9568TIP3   OH250118   4.250   1.235   0.667  0.5628  0.1378 -0.4130
 9568TIP3    H150119   4.178   1.251   0.728  1.9819 -1.3106  1.7011
 9568TIP3    H250120   4.208   1.201   0.588 -1.5765  4.6736 -1.3601
 9569TIP3   OH250121   1.594   5.764   3.934 -0.1576 -0.2503 -0.4667
 9569TIP3    H150122   1.673   5.728   3.974 -0.5058 -1.4808 -0.8732
 9569TIP3    H250123   1.527   5.757   4.002 -0.0872  0.1869 -0.3476
 9570TIP3   OH250124   1.325   6.462  11.508 -0.1399  0.1172  0.1185
 9570TIP3    H150125   1.261   6.527  11.480 -0.0292 -0.6640 -1.9541
 9570TIP3    H250126   1.357   6.496  11.592 -1.4268  1.7896 -0.0439
 9571TIP3   OH250127   6.934   5.949  15.233  0.0216  0.0102 -0.0924
 9571TIP3    H150128   6.880   5.979  15.306  1.1874  1.6689  0.1401
 9571TIP3    H250129   6.913   5.857  15.223 -1.9355  0.3424  0.7738
 9572TIP3   OH250130   6.504   5.356   3.170 -0.0592  0.6569 -0.0693
 9572TIP3    H150131   6.576   5.336   3.230 -0.3691  0.8642  0.3732
 9572TIP3    H250132   6.544   5.408   3.101  0.6337 -0.9131 -0.8954
 9573TIP3   OH250133   6.757   6.612   1.478 -0.3870 -0.0657 -0.0125
 9573TIP3    H150134   6.726   6.651   1.396 -2.6395  0.9060  1.2497
 9573TIP3    H250135   6.677   6.590   1.525  0.8649  0.5422  2.4738
 9574TIP3   OH250136   1.554   1.052   0.976  0.4453  0.2718 -0.0837
 9574TIP3    H150137   1.561   1.027   1.069 -0.3479  1.4032  0.2826
 9574TIP3    H250138   1.559   0.968   0.929 -1.7602 -0.5633  1.1075
 9575TIP3   OH250139   4.996   4.347  15.318 -0.5415 -0.1149  0.1586
 9575TIP3    H150140   5.068   4.364  15.258  0.6921  1.3878  1.9875
 9575TIP3    H250141   4.994   4.252  15.328 -0.5345 -0.3530 -1.9327
 9576TIP3   OH250142   0.249   1.096  15.222 -0.1823 -0.2175 -0.0166
 9576TIP3    H150143   0.228   1.024  15.282  0.5953 -0.7124 -0.3377
 9576TIP3    H250144   0.216   1.174  15.267  0.3827 -0.5847  1.0604
 9577TIP3   OH250145   5.085   3.397  13.856 -0.3993  0.4606  0.3434
 9577TIP3    H150146   5.029   3.394  13.778  1.0171 -0.7828 -0.6420
 9577TIP3    H250147   5.139   3.475  13.843 -0.0146  0.1342 -0.0279
 9578TIP3   OH250148   1.412   7.145  14.826 -0.1636  0.2839 -0.6533
 9578TIP3    H150149   1.392   7.157  14.919 -1.8703  2.6904 -1.3016
 9578TIP3    H250150   1.435   7.052  14.819 -0.9780 -0.1694  1.9783
 9579TIP3   OH250151   7.070   6.118  15.503  0.1479  0.1830  0.0663
 9579TIP3    H150152   7.072   6.079  15.591 -0.9666  1.1453  0.5370
 9579TIP3    H250153   6.998   6.074  15.459  1.3118 -0.9780 -0.7074
 9580TIP3   OH250154   1.100   5.516  14.699  0.2424  0.8351  0.1231
 9580TIP3    H150155   1.039   5.588  14.688  0.6883  1.3635  1.0560
 9580TIP3    H250156   1.075   5.453  14.631 -0.6008  1.5428 -0.2370
 9581TIP3   OH250157   3.318   1.187   0.282  0.5450  0.0571 -0.0623
 9581TIP3    H150158   3.253   1.209   0.215 -0.8144 -0.1125  1.1641
 9581TIP3    H250159   3.337   1.094   0.266 -0.2542 -0.1554  0.1615
 9582TIP3   OH250160   1.140   2.578  15.313 -0.3354  0.2854 -0.4154
 9582TIP3    H150161   1.224   2.623  15.313  1.3168 -2.6571  0.3689
 9582TIP3    H250162   1.112   2.577  15.404 -0.0307 -0.7859 -0.3187
 9583TIP3   OH250163   0.027   5.274  13.961  0.3309 -0.4148 -0.4714
 9583TIP3    H150164   0.094   5.342  13.958 -0.8824  0.8334  0.1095
 9583TIP3    H250165   0.012   5.251  13.869 -1.8825  2.7886 -1.0040
 9584TIP3   OH250166   5.913   2.574  13.416 -0.4200  0.2095 -0.0159
 9584TIP3    H150167   6.008   2.581  13.412 -0.5604  2.5089 -0.2452
 9584TIP3    H250168   5.891   2.591  13.508 -0.6474  0.7025 -0.1544
 9585TIP3   OH250169   5.985   6.896  12.926  0.3960  0.6915  0.1536
 9585TIP3    H150170   5.982   6.905  13.021 -0.0680  0.7594  0.1328
 9585TIP3    H250171   6.054   6.956  12.898 -1.9546  3.4424  0.1126
 9586TIP3   OH250172   1.301   6.412   0.146  0.1776  0.5786  0.4570
 9586TIP3    H150173   1.261   6.492   0.111  1.2182  1.2560  0.7770
 9586TIP3    H250174   1.333   6.366   0.069 -0.5102  0.4154  0.2630
 9587TIP3   OH250175   6.319   6.266   0.308  0.0408  0.1657  0.4305
 9587TIP3    H150176   6.260   6.202   0.268 -0.3055  0.9875 -0.4058
 9587TIP3    H250177   6.264   6.314   0.370  0.0175  0.4114  0.2210
 9588TIP3   OH250178   3.911   2.968  15.189  0.1933 -0.2817  0.3586
 9588TIP3    H150179   3.824   2.977  15.228 -0.1071 -3.0402  0.4334
 9588TIP3    H250180   3.970   2.959  15.264  0.3254 -0.1199  0.2734
 9589TIP3   OH250181   6.456   1.880  13.280  0.4826  0.1915 -0.6169
 9589TIP3    H150182   6.518   1.930  13.227  0.3628  0.0587 -0.8804
 9589TIP3    H250183   6.371   1.898  13.241  0.2908  0.7775  0.0509
 9590TIP3   OH250184   5.774   4.119  12.211  0.0263  0.0939  0.1104
 9590TIP3    H150185   5.716   4.047  12.236  0.1989 -0.0722  0.0258
 9590TIP3    H250186   5.743   4.193  12.263  0.2533 -0.2005  0.6553
 9591TIP3   OH250187   2.346   4.640  14.854  0.7896  0.5787  0.2074
 9591TIP3    H150188   2.265   4.598  14.881  1.8076 -2.3647 -1.0993
 9591TIP3    H250189   2.415   4.595  14.904  1.8653  1.1230 -0.7468
 9592TIP3   OH250190   1.951   2.410  13.984 -0.1236 -0.1185 -0.7649
 9592TIP3    H150191   2.010   2.336  13.970 -0.8197 -0.8874  0.3332
 9592TIP3    H250192   1.866   2.379  13.954 -0.5866 -0.0583  0.4411
 9593TIP3   OH250193   0.335   3.429  11.084 -0.2762 -0.2633  0.3338
 9593TIP3    H150194   0.245   3.436  11.050 -0.7736 -0.8380  1.4918
 9593TIP3    H250195   0.380   3.373  11.021 -1.7069 -2.9098  1.5638
 9594TIP3   OH250196   2.274   2.075   1.424 -0.1434  0.1400 -0.0302
 9594TIP3    H150197   2.306   2.086   1.334  0.8237 -1.2414  0.1170
 9594TIP3    H250198   2.201   2.014   1.416  0.0979 -0.1741  0.1390
 9595TIP3   OH250199   5.862   2.742  15.220 -0.3774  0.5917 -0.4421
 9595TIP3    H150200   5.893   2.674  15.161  0.6094  1.3865 -0.8687
 9595TIP3    H250201   5.923   2.739  15.294  1.1918  2.6219 -1.6029
 9596TIP3   OH250202   6.088   5.089  13.918  0.1714 -0.1180  0.5986
 9596TIP3    H150203   6.091   5.035  13.997  1.6398  0.9338  1.2834
 9596TIP3    H250204   6.094   5.179  13.951 -0.2927  0.3694 -0.6416
 9597TIP3   OH250205   0.230   6.319  14.697  0.2005 -0.6211  0.0497
 9597TIP3    H150206   0.164   6.334  14.629 -0.0272 -0.7044  0.2533
 9597TIP3    H250207   0.257   6.228  14.684 -1.5520 -1.3822  1.5637
 9598TIP3   OH250208   5.436   7.051  15.102  0.0232  0.6698  0.7463
 9598TIP3    H150209   5.508   7.101  15.063  0.4600  0.4252  1.2272
 9598TIP3    H250210   5.357   7.099  15.079  0.4294  1.5128  1.1136
 9599TIP3   OH250211   4.337   6.583  14.657 -0.2915  0.2998 -0.1426
 9599TIP3    H150212   4.250   6.556  14.686  0.3552  0.1580  1.6825
 9599TIP3    H250213   4.342   6.551  14.566 -2.6981  1.6275 -0.7937
 9600TIP3   OH250214   4.349   3.922   1.063  0.1611  0.3986  0.4341
 9600TIP3    H150215   4.434   3.950   1.028  0.3365  0.4385  0.8904
 9600TIP3    H250216   4.285   3.975   1.015  0.3929  0.3652  0.0840
 9601TIP3   OH250217   6.902   0.314   1.987  0.5582 -0.9291 -0.3755
 9601TIP3    H150218   6.975   0.277   1.939  0.9285 -2.1859  1.1057
 9601TIP3    H250219   6.824   0.276   1.947  0.7447 -0.2293 -1.4189
 9602TIP3   OH250220   1.292   1.871  14.616 -0.0422  0.4629  0.6579
 9602TIP3    H150221   1.228   1.879  14.686 -0.0273 -0.9344  0.8586
 9602TIP3    H250222   1.368   1.831  14.658 -0.3580 -1.2302 -0.3261
 9603TIP3   OH250223   0.192   6.621   3.656 -0.0454 -0.1392 -0.2373
 9603TIP3    H150224   0.278   6.651   3.684 -0.9974  2.3494  0.1907
 9603TIP3    H250225   0.206   6.585   3.568  1.3271  0.8197 -0.4301
 9604TIP3   OH250226   0.079   1.763  14.465 -0.0314 -0.7243 -0.2460
 9604TIP3    H150227   0.077   1.700  14.394 -0.0928 -0.9325 -0.0572
 9604TIP3    H250228   0.043   1.717  14.540 -0.2924 -0.3951 -0.1670
 9605TIP3   OH250229   3.118   5.652  15.432  0.4942  0.2882 -0.1781
 9605TIP3    H150230   3.156   5.679  15.348 -1.4160  0.9139 -0.8830
 9605TIP3    H250231   3.119   5.731  15.485  1.2924  0.0012  0.2416
 9606TIP3   OH250232   0.525   3.757  13.434  0.0815  0.1278  0.5018
 9606TIP3    H150233   0.497   3.731  13.521 -0.0040 -1.1528  0.0999
 9606TIP3    H250234   0.619   3.742  13.433  0.2616  1.1891  0.7263
 9607TIP3   OH250235   2.743   3.685  14.166  0.0095 -0.2175 -0.7829
 9607TIP3    H150236   2.685   3.758  14.143  0.7415  0.7464  0.4199
 9607TIP3    H250237   2.689   3.628  14.221  0.1619  0.6448  0.2804
 9608TIP3   OH250238   0.749   3.987  13.590  0.0551  0.0563 -0.8269
 9608TIP3    H150239   0.693   3.985  13.668  1.3539  1.3834  0.1735
 9608TIP3    H250240   0.836   4.006  13.624  0.6955  0.3655 -2.5986
 9609TIP3   OH250241   6.433   4.067   0.195  0.4814 -0.4499 -0.1395
 9609TIP3    H150242   6.396   4.150   0.227  0.7144 -0.7846  1.0195
 9609TIP3    H250243   6.526   4.087   0.180  0.7769 -0.7755  1.1781
 9610TIP3   OH250244   5.241   6.385  13.789 -0.0456 -0.2110  0.3666
 9610TIP3    H150245   5.247   6.480  13.798  0.9114 -0.3202  0.9904
 9610TIP3    H250246   5.176   6.371  13.721  0.3821  0.9130 -0.2740
 9611TIP3   OH250247   0.774   5.989   0.738 -0.0585  0.2162  0.4131
 9611TIP3    H150248   0.733   5.905   0.756 -0.7170  0.7464  1.4342
 9611TIP3    H250249   0.857   5.967   0.694 -1.0985 -0.8764 -1.0344
 9612TIP3   OH250250   6.088   0.448  15.037  0.0164  0.0095 -0.3792
 9612TIP3    H150251   6.096   0.494  15.120  0.4251  0.9239 -0.9255
 9612TIP3    H250252   6.004   0.477  15.001 -0.3740 -0.7323 -0.0768
 9613TIP3   OH250253   4.995   6.047  15.099  0.4525  0.4401 -0.6484
 9613TIP3    H150254   5.028   5.964  15.134  1.1669  1.0998  0.2603
 9613TIP3    H250255   5.073   6.100  15.086 -0.2037  1.9580  1.3449
 9614TIP3   OH250256   0.828   2.772  12.109  0.1143  0.2905 -0.1056
 9614TIP3    H150257   0.833   2.787  12.015 -0.7928  0.4526 -0.1335
 9614TIP3    H250258   0.810   2.859  12.146  0.5070  0.2339  0.2211
 9615TIP3   OH250259   2.655   5.216  13.857  0.2505  0.0717 -0.1207
 9615TIP3    H150260   2.679   5.179  13.942 -1.1980 -1.9309 -0.5315
 9615TIP3    H250261   2.579   5.271  13.875 -0.0190 -0.3047 -0.1001
 9616TIP3   OH250262   5.398   4.715   0.244  0.8050 -0.4075  0.3204
 9616TIP3    H150263   5.392   4.702   0.149  0.8604  2.1326 -0.0755
 9616TIP3    H250264   5.488   4.746   0.258  0.7986 -0.7713  1.2198
 9617TIP3   OH250265   2.057   0.992   0.290  0.0111 -0.1010 -0.0584
 9617TIP3    H150266   2.013   0.973   0.207 -0.6979  0.7872  0.1100
 9617TIP3    H250267   1.997   1.050   0.336  0.9476  0.3828  0.5647
 9618TIP3   OH250268   1.566   6.660   4.141  0.3478  0.5977  0.2476
 9618TIP3    H150269   1.559   6.755   4.147 -1.1011  0.6374 -1.6030
 9618TIP3    H250270   1.604   6.645   4.054  0.5617 -0.5039  0.5308
 9619TIP3   OH250271   2.816   1.418   3.419  0.4292  0.1584 -0.1771
 9619TIP3    H150272   2.871   1.341   3.413  0.1359 -0.1906  1.4160
 9619TIP3    H250273   2.727   1.385   3.406  0.5474  0.7384 -2.8964
 9620TIP3   OH250274   5.500   3.851   0.059  0.1900 -0.0485 -0.1294
 9620TIP3    H150275   5.408   3.860   0.085  0.3947  0.1552  0.5217
 9620TIP3    H250276   5.498   3.786  -0.011 -0.5693  0.6202 -0.7434
 9621TIP3   OH250277   0.291   5.604   2.187 -0.1357  0.2222 -0.3641
 9621TIP3    H150278   0.301   5.697   2.204 -2.1966  0.1661  1.4372
 9621TIP3    H250279   0.322   5.562   2.268  0.1710 -0.6095 -0.9113
 9622TIP3   OH250280   0.868   1.999  13.283  0.0090  0.3634 -0.1865
 9622TIP3    H150281   0.955   1.965  13.263  0.3160  1.3349 -0.4778
 9622TIP3    H250282   0.884   2.083  13.326 -0.8266  1.1526 -1.4156
 9623TIP3   OH250283   6.789   2.415   0.509  0.0563  0.7303  0.3379
 9623TIP3    H150284   6.862   2.429   0.448 -1.3377  1.1322 -1.2931
 9623TIP3    H250285   6.794   2.489   0.570  1.6039  0.2055  0.8814
 9624TIP3   OH250286   6.539   6.375   1.312  0.2991 -0.3431 -0.2065
 9624TIP3    H150287   6.554   6.433   1.387  0.3792 -0.1189 -0.3927
 9624TIP3    H250288   6.625   6.366   1.271  0.3642 -0.9293  0.0598
 9625TIP3   OH250289   6.122   3.510  13.873 -0.1700 -0.1139 -0.4080
 9625TIP3    H150290   6.107   3.421  13.842  1.8061 -0.2893 -0.9579
 9625TIP3    H250291   6.043   3.558  13.851 -1.0938 -1.6372 -0.4576
 9626TIP3   OH250292   5.185   4.692   0.425 -0.1198 -0.2943 -0.0752
 9626TIP3    H150293   5.234   4.674   0.344  0.3846  1.5750 -0.1978
 9626TIP3    H250294   5.252   4.704   0.492 -0.4051  1.6198 -0.1081
 9627TIP3   OH250295   5.119   2.854  13.917 -0.0502 -0.1997  0.4079
 9627TIP3    H150296   5.063   2.798  13.970  0.1310 -0.2566  0.5426
 9627TIP3    H250297   5.065   2.880  13.843 -0.0421 -0.8042  0.1819
 9628TIP3   OH250298   2.564   0.993  13.953 -0.5080 -0.0826 -0.0824
 9628TIP3    H150299   2.625   1.020  13.884 -1.1179  1.2518 -0.1174
 9628TIP3    H250300   2.610   1.013  14.035  0.2212 -1.6781 -0.0971
 9629TIP3   OH250301   5.198   6.611   2.376 -1.1620 -0.0575  0.3259
 9629TIP3    H150302   5.196   6.645   2.286 -2.9657 -1.3319 -0.1529
 9629TIP3    H250303   5.235   6.523   2.367 -1.9113 -0.4182  0.7380
 9630TIP3   OH250304   6.367   1.299  13.174 -0.6447 -0.2973 -0.1284
 9630TIP3    H150305   6.362   1.204  13.182  0.6483 -0.4410 -0.8079
 9630TIP3    H250306   6.278   1.330  13.192 -1.0164 -1.6111  0.3364
 9631TIP3   OH250307   2.749   0.555   1.969  0.2414 -0.7148  0.2655
 9631TIP3    H150308   2.825   0.528   2.021  1.1370  0.6101 -0.3252
 9631TIP3    H250309   2.739   0.648   1.988 -0.6699 -0.6776 -0.3838
 9632TIP3   OH250310   0.113   4.121   2.203 -0.1272 -0.0598 -0.0989
 9632TIP3    H150311   0.190   4.165   2.169 -1.3077  2.0730 -0.0611
 9632TIP3    H250312   0.114   4.138   2.297  0.2873 -1.4927  0.1637
 9633TIP3   OH250313   0.445   4.013   0.632 -0.5409  0.3860 -0.9376
 9633TIP3    H150314   0.423   3.978   0.546  0.1973  1.2580 -1.4822
 9633TIP3    H250315   0.417   4.104   0.629  2.3987  1.3243 -1.3886
 9634TIP3   OH250316   0.972   6.486   1.707 -0.1123  0.5182  0.5968
 9634TIP3    H150317   1.019   6.530   1.778  0.6682  1.0072 -0.2024
 9634TIP3    H250318   1.038   6.472   1.640 -0.8687  0.1978 -0.0914
 9635TIP3   OH250319   1.998   4.871  12.193  0.1683  0.0325  0.0691
 9635TIP3    H150320   2.089   4.899  12.202  0.4721 -1.2218  1.1135
 9635TIP3    H250321   1.989   4.845  12.101  0.3905  1.7469 -0.4388
 9636TIP3   OH250322   0.854   2.949  13.215  0.8431  0.0041 -0.1005
 9636TIP3    H150323   0.770   2.980  13.183  1.3989 -0.6141 -2.2058
 9636TIP3    H250324   0.832   2.882  13.280 -0.2901  1.7865  1.4245
 9637TIP3   OH250325   3.628   3.176  12.449  0.2780  0.6173 -0.7605
 9637TIP3    H150326   3.579   3.251  12.482 -0.4991  0.1156 -0.7360
 9637TIP3    H250327   3.627   3.187  12.354  0.1380  0.6248 -0.7592
 9638TIP3   OH250328   4.624   4.856  11.553 -0.6294 -0.4323 -0.0153
 9638TIP3    H150329   4.645   4.880  11.644 -2.1086  0.3560  0.1336
 9638TIP3    H250330   4.639   4.936  11.503 -1.4130 -0.4050 -0.2061
 9639TIP3   OH250331   6.419   6.902   3.283 -0.3506  0.7365  0.4361
 9639TIP3    H150332   6.374   6.818   3.292  1.8378 -0.4012  1.3048
 9639TIP3    H250333   6.499   6.892   3.334  0.9406  2.6441 -1.0959
 9640TIP3   OH250334   6.869   4.211  14.843 -0.6011 -0.6275 -0.1398
 9640TIP3    H150335   6.901   4.176  14.759  1.3340 -0.8979  0.6831
 9640TIP3    H250336   6.909   4.154  14.909 -1.5980 -0.0194  1.0040
 9641TIP3   OH250337   2.854   6.991   0.334 -0.3759 -0.2727 -0.0420
 9641TIP3    H150338   2.769   7.031   0.319 -1.4825 -2.3805  0.4012
 9641TIP3    H250339   2.836   6.917   0.392  1.7058 -0.9952 -0.2699
 9642TIP3   OH250340   1.449   2.576   2.178  0.3195  0.0753  0.1441
 9642TIP3    H150341   1.408   2.532   2.104  0.9157  0.4672 -0.4230
 9642TIP3    H250342   1.378   2.628   2.217  0.1659  0.4009 -0.5631
 9643TIP3   OH250343   4.861   0.333   1.074  0.1804  0.1574 -0.1163
 9643TIP3    H150344   4.771   0.344   1.044  0.1752 -0.0277 -0.1703
 9643TIP3    H250345   4.893   0.255   1.028  0.0921 -0.2668  0.5372
 9644TIP3   OH250346   1.811   2.671  13.987  0.4377  0.3875 -0.3870
 9644TIP3    H150347   1.862   2.686  14.066 -1.1845 -1.6042  1.1115
 9644TIP3    H250348   1.848   2.590  13.950 -1.7599 -1.2593  0.8948
 9645TIP3   OH250349   4.546   0.553  11.989  0.2606 -0.3202  0.2199
 9645TIP3    H150350   4.464   0.549  11.940 -0.8172  0.1327  1.9416
 9645TIP3    H250351   4.551   0.643  12.021  1.0203 -0.5648  0.8199
 9646TIP3   OH250352   1.706   6.219  14.272  0.3914 -0.3286  0.3244
 9646TIP3    H150353   1.723   6.148  14.334  0.4720 -0.5954 -0.0021
 9646TIP3    H250354   1.616   6.204  14.242  0.7524 -0.8808 -0.5032
 9647TIP3   OH250355   6.851   4.954   0.774  0.2189  0.2846 -0.4144
 9647TIP3    H150356   6.775   4.993   0.730 -0.1570 -1.5930 -1.4863
 9647TIP3    H250357   6.909   4.928   0.703  0.7233 -0.5546  0.2986
 9648TIP3   OH250358   1.462   2.638   1.602 -0.5796 -0.4253  0.2138
 9648TIP3    H150359   1.486   2.545   1.602 -1.6565 -0.7075  0.8313
 9648TIP3    H250360   1.426   2.654   1.689  0.8820  0.9175  0.5874
 9649TIP3   OH250361   4.480   1.258  12.975 -0.1569  0.6410  0.4448
 9649TIP3    H150362   4.495   1.337  13.027  0.1808  0.4364  0.6575
 9649TIP3    H250363   4.535   1.269  12.898 -0.3024  0.7283  0.3531
 9650TIP3   OH250364   6.163   2.763  15.542 -0.5326  0.5844  1.0500
 9650TIP3    H150365   6.176   2.856  15.561 -1.5789  1.4696 -2.1921
 9650TIP3    H250366   6.249   2.723  15.555  0.6453  2.5663 -0.3789
 9651TIP3   OH250367   4.803   6.390   0.525  0.0538 -0.0358 -0.3558
 9651TIP3    H150368   4.824   6.320   0.463  0.0675 -0.7058  0.3843
 9651TIP3    H250369   4.793   6.344   0.609  0.2359  0.8770  0.1679
 9652TIP3   OH250370   5.987   1.724   0.037 -0.3683 -0.0466 -0.0404
 9652TIP3    H150371   5.985   1.637   0.078  2.5439 -0.1404  0.0399
 9652TIP3    H250372   6.033   1.779   0.100  1.5467  0.5079 -1.8615
 9653TIP3   OH250373   1.657   6.229  11.262  0.4911 -0.4435  0.4161
 9653TIP3    H150374   1.678   6.290  11.333 -1.7042 -0.7874  1.4144
 9653TIP3    H250375   1.715   6.155  11.276  2.1755  0.7896  0.0470
 9654TIP3   OH250376   3.783   2.151   0.215 -0.4122  0.0182  0.0315
 9654TIP3    H150377   3.839   2.211   0.167  0.0536  0.2407  0.8576
 9654TIP3    H250378   3.829   2.067   0.212  0.7608  0.5713  2.0980
 9655TIP3   OH250379   2.437   3.242  12.804 -0.4784 -0.1804  0.9868
 9655TIP3    H150380   2.387   3.207  12.730 -0.5755  2.0231 -0.0052
 9655TIP3    H250381   2.391   3.209  12.881 -1.7740 -0.5307  0.0896
 9656TIP3   OH250382   3.082   0.019  14.839 -0.9754  0.3043 -0.3786
 9656TIP3    H150383   3.175   0.001  14.851 -0.4333  1.8407 -2.0233
 9656TIP3    H250384   3.039  -0.027  14.911  1.1924  0.9049  1.3666
 9657TIP3   OH250385   0.464   5.034   0.240 -0.2430 -0.1678 -0.6509
 9657TIP3    H150386   0.408   4.963   0.208 -1.5578  1.7406 -2.7459
 9657TIP3    H250387   0.473   5.093   0.166  1.5003  1.4682  0.8049
 9658TIP3   OH250388   2.684   1.377   4.118 -0.0637  0.0927  0.2671
 9658TIP3    H150389   2.599   1.385   4.162  0.0454  1.0493  0.3085
 9658TIP3    H250390   2.670   1.412   4.031  0.5414  1.2041  0.6065
 9659TIP3   OH250391   3.233   0.601   2.588  0.4006 -0.4940 -0.2643
 9659TIP3    H150392   3.325   0.587   2.567  0.6348  0.2175  0.2832
 9659TIP3    H250393   3.216   0.544   2.662  1.0301  1.1478  1.1688
 9660TIP3   OH250394   1.858   1.752  13.409  0.1670  0.4335 -0.2105
 9660TIP3    H150395   1.931   1.804  13.375 -0.5446  1.6665  0.1099
 9660TIP3    H250396   1.841   1.787  13.496 -1.5713  0.9621 -0.7391
 9661TIP3   OH250397   1.566   1.764   1.874  0.1601 -0.0916  0.6461
 9661TIP3    H150398   1.649   1.811   1.873  0.6869 -1.0142 -1.1670
 9661TIP3    H250399   1.517   1.800   1.800  0.2520 -1.7651 -0.2662
 9662TIP3   OH250400   2.813   0.845   2.905 -0.3515  0.3903 -0.3285
 9662TIP3    H150401   2.827   0.822   2.814 -0.3305  0.7261 -0.4102
 9662TIP3    H250402   2.869   0.785   2.954 -0.9489 -0.3218 -0.4908
 9663TIP3   OH250403   3.747   3.997   0.145 -1.2794 -0.6439 -0.2513
 9663TIP3    H150404   3.835   3.964   0.162 -1.7165 -1.4570  0.4790
 9663TIP3    H250405   3.738   4.072   0.203 -1.7274 -1.6825  1.0478
 9664TIP3   OH250406   2.771   2.841  14.796 -0.3403  0.0502 -0.1576
 9664TIP3    H150407   2.755   2.906  14.728  0.2988  0.0215 -0.3338
 9664TIP3    H250408   2.721   2.764  14.768  0.0070  0.0031 -0.6474
 9665TIP3   OH250409   0.810   1.772   0.563 -0.8470  0.1382 -0.2364
 9665TIP3    H150410   0.788   1.861   0.590 -0.2367  0.2480 -0.0809
 9665TIP3    H250411   0.888   1.750   0.614 -1.3325 -0.7062  0.1461
 9666TIP3   OH250412   7.114   3.817   0.663  0.3157  0.0832  0.1429
 9666TIP3    H150413   7.054   3.892   0.664  1.0685  0.7118 -0.6107
 9666TIP3    H250414   7.110   3.785   0.573  1.5981  0.5348 -0.0802
 9667TIP3   OH250415   2.562   6.656  14.746  0.2030 -0.2722 -0.0407
 9667TIP3    H150416   2.529   6.573  14.781 -2.9188  1.0833  0.3770
 9667TIP3    H250417   2.490   6.718  14.759  0.9187  1.5785 -3.9786
 9668TIP3   OH250418   3.513   0.304   0.257 -0.1667  0.0777 -0.7142
 9668TIP3    H150419   3.534   0.258   0.338  1.3810  1.2002 -0.4466
 9668TIP3    H250420   3.558   0.388   0.265 -1.6003  0.9745 -1.9014
 9669TIP3   OH250421   2.177   5.810   2.463  0.7776  0.0157  0.8872
 9669TIP3    H150422   2.123   5.766   2.529 -0.1134  1.5892  1.2417
 9669TIP3    H250423   2.123   5.884   2.434  1.6917  0.0750 -0.6821
 9670TIP3   OH250424   3.535   2.181   1.991 -0.0703 -0.0483  0.3140
 9670TIP3    H150425   3.511   2.213   1.903 -1.9996 -0.1182  0.7887
 9670TIP3    H250426   3.537   2.260   2.045  0.6291 -0.0649  0.3080
 9671TIP3   OH250427   2.118   6.414   0.564 -0.2548  0.0456  0.7438
 9671TIP3    H150428   2.167   6.381   0.489 -2.4177  0.9347 -1.1300
 9671TIP3    H250429   2.079   6.336   0.603 -1.0456 -0.2010 -0.5021
 9672TIP3   OH250430   2.224   1.942  14.887  0.4880 -0.2472 -0.2845
 9672TIP3    H150431   2.160   1.890  14.838  1.1564 -2.2277  0.9026
 9672TIP3    H250432   2.284   1.973  14.820 -0.2044 -0.5794 -1.0801
 9673TIP3   OH250433   3.693   5.126  14.647  0.4638 -0.2522  0.6867
 9673TIP3    H150434   3.626   5.064  14.676 -0.7459  0.6559 -0.1033
 9673TIP3    H250435   3.697   5.114  14.553 -0.2678  1.3263  0.4391
 9674TIP3   OH250436   4.429   2.983  15.505  0.3243  0.0703 -0.0636
 9674TIP3    H150437   4.455   3.073  15.483 -0.1597 -0.1645 -1.6731
 9674TIP3    H250438   4.434   2.936  15.422 -0.7480 -1.0681  0.5073
 9675TIP3   OH250439   6.293   2.648  13.694 -0.6356 -0.0315  0.0670
 9675TIP3    H150440   6.288   2.699  13.613  1.0650 -0.3903 -0.2951
 9675TIP3    H250441   6.378   2.604  13.688  0.4556  1.5653  3.0091
 9676TIP3   OH250442   3.203   1.937  15.402  0.4560  0.1285  0.1050
 9676TIP3    H150443   3.145   1.942  15.478  0.4378  0.3879  0.0754
 9676TIP3    H250444   3.213   2.027  15.373  1.0037  0.1092  0.2092
 9677TIP3   OH250445   5.112   3.052   3.472  0.0175  0.1249 -0.4803
 9677TIP3    H150446   5.167   3.056   3.394  0.2032 -2.3920 -0.5330
 9677TIP3    H250447   5.138   2.970   3.515 -0.4601  1.2004  1.9268
 9678TIP3   OH250448   2.585   6.148  13.074 -0.5301  0.1109 -0.2696
 9678TIP3    H150449   2.550   6.112  12.993 -0.3635 -0.3736 -0.1256
 9678TIP3    H250450   2.635   6.077  13.113  0.8479  0.8676 -0.6104
 9679TIP3   OH250451   2.973   6.244   0.222  0.3179  0.2827 -0.0891
 9679TIP3    H150452   2.956   6.208   0.135  0.4012 -1.6410  0.6760
 9679TIP3    H250453   2.978   6.339   0.208 -2.0422  0.1853 -1.7901
 9680TIP3   OH250454   6.009   3.989  12.303 -0.7023 -0.4176 -0.0952
 9680TIP3    H150455   5.931   4.040  12.280  0.5935  0.9380 -1.6221
 9680TIP3    H250456   6.057   4.045  12.364 -0.2646 -0.6758 -0.2023
 9681TIP3   OH250457   0.331   1.557   1.226 -0.6777  0.2593 -0.3987
 9681TIP3    H150458   0.420   1.570   1.258 -0.5429 -2.4610  0.4333
 9681TIP3    H250459   0.284   1.635   1.257  0.4490 -0.2277  2.7693
 9682TIP3   OH250460   5.220   5.411  11.590  0.3311 -0.0267  0.0460
 9682TIP3    H150461   5.196   5.408  11.682  0.3891 -0.1559  0.0577
 9682TIP3    H250462   5.279   5.486  11.583  2.0408 -1.2806  0.5434
 9683TIP3   OH250463   1.135   4.478  14.231  0.1520 -0.5190 -0.7353
 9683TIP3    H150464   1.063   4.424  14.199  1.0029 -1.6265 -0.8166
 9683TIP3    H250465   1.177   4.512  14.152  0.4267 -0.8302 -0.7263
 9684TIP3   OH250466   4.374   4.340  13.636 -0.1001 -0.0619 -0.6879
 9684TIP3    H150467   4.452   4.393  13.618  0.4749 -0.4111  0.7296
 9684TIP3    H250468   4.315   4.399  13.681  0.9654 -0.8662  1.8633
 9685TIP3   OH250469   3.618   0.739  13.655  0.0732 -0.4521 -0.4223
 9685TIP3    H150470   3.608   0.704  13.743 -0.5904 -0.1483 -0.3762
 9685TIP3    H250471   3.564   0.682  13.600 -3.1105  2.0454  0.0419
 9686TIP3   OH250472   6.168   2.855  13.484 -0.0466 -0.0194  0.5000
 9686TIP3    H150473   6.187   2.867  13.391 -1.4304  1.0204  0.3358
 9686TIP3    H250474   6.073   2.856  13.489  0.0229  0.1301  1.9503
 9687TIP3   OH250475   5.099   1.755   2.368  0.1127  0.1127 -0.2785
 9687TIP3    H150476   5.146   1.672   2.359  0.4462  0.1559  1.0099
 9687TIP3    H250477   5.156   1.820   2.327 -0.1968 -0.3038 -1.3794
 9688TIP3   OH250478   3.097   5.547   2.454  0.1235 -0.5710  0.2813
 9688TIP3    H150479   3.098   5.456   2.423 -0.7697  0.0820 -1.7549
 9688TIP3    H250480   3.015   5.555   2.502  0.9451 -1.2493  1.8587
 9689TIP3   OH250481   4.554   0.399   2.162  0.0946  0.5427 -0.3655
 9689TIP3    H150482   4.610   0.335   2.205  0.0266 -0.1383 -1.2782
 9689TIP3    H250483   4.571   0.481   2.209 -1.6543 -0.6163  2.4075
 9690TIP3   OH250484   4.374   6.373  13.901 -0.0744  0.1141 -0.3145
 9690TIP3    H150485   4.379   6.415  13.987 -1.2149  2.3312 -1.2910
 9690TIP3    H250486   4.281   6.351  13.890  0.6104 -3.4702  0.5064
 9691TIP3   OH250487   2.139   5.205   2.329 -0.0049  0.1026  0.6561
 9691TIP3    H150488   2.107   5.114   2.324 -1.8812  0.7254  0.7706
 9691TIP3    H250489   2.199   5.213   2.256 -0.1950 -1.0995  0.3466
 9692TIP3   OH250490   6.791   3.187  14.233  0.1552 -0.5129 -0.1555
 9692TIP3    H150491   6.849   3.219  14.165  0.4106 -2.0103 -0.6759
 9692TIP3    H250492   6.703   3.203  14.199  0.2790 -1.3952 -0.9393
 9693TIP3   OH250493   5.932   0.321  11.461  0.5970  0.0693 -0.1309
 9693TIP3    H150494   5.991   0.356  11.528  0.4326 -0.0134  0.0568
 9693TIP3    H250495   5.878   0.396  11.435  0.6527  0.0988 -0.1623
 9694TIP3   OH250496   0.840   3.028   0.871  0.6687  0.1150  0.0167
 9694TIP3    H150497   0.852   2.937   0.898 -1.5391  0.3820  2.1019
 9694TIP3    H250498   0.860   3.079   0.949 -2.9992  1.0892  0.4123
 9695TIP3   OH250499   0.839   4.081   3.456 -0.7789  0.3763 -0.3625
 9695TIP3    H150500   0.914   4.129   3.419 -1.9642  1.3834 -1.5420
 9695TIP3    H250501   0.792   4.147   3.507 -1.5147  0.0471 -0.6153
 9696TIP3   OH250502   0.274   5.794  14.849 -0.5491  0.0407  0.6901
 9696TIP3    H150503   0.284   5.711  14.896  0.0434 -0.1831  0.1773
 9696TIP3    H250504   0.201   5.837  14.892 -0.1355 -0.2459  1.6989
 9697TIP3   OH250505   0.741   6.948   0.889  0.4462  0.3506  0.0830
 9697TIP3    H150506   0.779   7.030   0.856  3.8813 -1.2311 -0.1056
 9697TIP3    H250507   0.698   6.910   0.813  0.3813  1.1230 -0.2751
 9698TIP3   OH250508   0.025   0.446  11.080  0.4332  0.2696 -0.3945
 9698TIP3    H150509  -0.013   0.367  11.043  1.6569 -0.4918 -0.0707
 9698TIP3    H250510   0.005   0.515  11.016  0.1916 -0.4882 -1.1435
 9699TIP3   OH250511   5.697   1.441   2.190  0.4597 -0.4840  0.1035
 9699TIP3    H150512   5.609   1.417   2.219  0.0155 -0.2608 -1.0412
 9699TIP3    H250513   5.752   1.427   2.267 -0.5312 -0.8767  0.7513
 9700TIP3   OH250514   0.830   5.994  12.592  0.1477  0.4820 -0.0447
 9700TIP3    H150515   0.802   5.968  12.504  0.9730  1.1139 -0.5029
 9700TIP3    H250516   0.799   5.923  12.649  1.9497 -1.3356 -1.2267
 9701TIP3   OH250517   2.786   2.606  10.796  0.1144 -0.3453 -0.2949
 9701TIP3    H150518   2.878   2.580  10.809  0.6015  2.2929  1.9369
 9701TIP3    H250519   2.761   2.646  10.879 -3.4093 -1.9256 -0.5303
 9702TIP3   OH250520   3.172   5.701  14.498 -0.5096  0.3539  0.4774
 9702TIP3    H150521   3.087   5.659  14.506  0.2640 -1.1516  0.8175
 9702TIP3    H250522   3.228   5.658  14.562  1.1307 -0.2350 -1.2894
 9703TIP3   OH250523   4.848   6.890  15.210 -0.1355  0.1496 -0.4564
 9703TIP3    H150524   4.844   6.812  15.264 -0.4148  0.2542 -0.3209
 9703TIP3    H250525   4.934   6.888  15.169 -0.6766 -0.9715 -1.5606
 9704TIP3   OH250526   2.822   2.030   0.952 -0.6076  0.1851  0.0585
 9704TIP3    H150527   2.901   1.978   0.966 -0.4866  0.2054 -0.5239
 9704TIP3    H250528   2.759   1.996   1.015 -0.0628  0.3247  0.6870
 9705TIP3   OH250529   4.441   6.660  13.737  0.4202 -0.1578  0.2237
 9705TIP3    H150530   4.437   6.572  13.773  1.5302 -0.8752 -1.3492
 9705TIP3    H250531   4.508   6.704  13.790 -0.9097  0.1208  1.7303
 9706TIP3   OH250532   0.830   2.163  13.941 -0.5819 -0.0842  0.3375
 9706TIP3    H150533   0.835   2.083  13.994 -1.3029  0.0750  0.6519
 9706TIP3    H250534   0.921   2.190  13.931 -0.2166 -1.6292 -0.8318
 9707TIP3   OH250535   2.628   1.772  12.602  0.0845 -0.4114 -0.1411
 9707TIP3    H150536   2.721   1.770  12.624  0.6589  0.5857 -2.3803
 9707TIP3    H250537   2.600   1.681  12.607  0.8652 -0.5807  1.7299
 9708TIP3   OH250538   6.376   3.325  13.719  0.2190 -0.7833  0.0156
 9708TIP3    H150539   6.295   3.277  13.735 -1.0733  1.1619 -0.4391
 9708TIP3    H250540   6.403   3.355  13.806 -0.9580  0.7182 -0.1200
 9709TIP3   OH250541   4.632   3.715   2.330  0.7281  0.1518  0.4619
 9709TIP3    H150542   4.600   3.661   2.402  2.2404 -0.2335  0.8791
 9709TIP3    H250543   4.671   3.791   2.373  2.7006 -0.6412  0.1562
 9710TIP3   OH250544   4.839   6.728  14.375 -0.4876  0.1706  0.2234
 9710TIP3    H150545   4.877   6.758  14.457 -0.3859  0.3340  0.1153
 9710TIP3    H250546   4.758   6.684  14.401 -0.2275 -0.1761  0.4530
 9711TIP3   OH250547   2.480   1.770  13.502 -0.1682 -0.0902  0.1074
 9711TIP3    H150548   2.529   1.847  13.531  0.9214 -1.2843  1.5106
 9711TIP3    H250549   2.464   1.785  13.409 -1.1139  2.4317  0.6312
 9712TIP3   OH250550   4.543   1.810  15.537 -0.1065  0.3869 -0.3325
 9712TIP3    H150551   4.531   1.880  15.472 -1.3292 -0.1879 -0.7447
 9712TIP3    H250552   4.601   1.747  15.494  2.1627  1.7967  0.5724
 9713TIP3   OH250553   6.011   5.359   1.557  0.3346 -0.4180  0.4287
 9713TIP3    H150554   5.988   5.279   1.510 -0.2456  1.1810 -2.0936
 9713TIP3    H250555   6.032   5.330   1.646  1.2022 -3.4827 -0.7444
 9714TIP3   OH250556   1.976   2.231   0.378 -0.7582 -0.6638 -0.1665
 9714TIP3    H150557   1.955   2.319   0.346 -0.7046 -0.9132 -0.9063
 9714TIP3    H250558   1.892   2.192   0.399 -0.7639 -0.3366  0.4504
 9715TIP3   OH250559   0.625   0.688  15.024  0.2261 -0.0915 -0.3803
 9715TIP3    H150560   0.662   0.673  14.937  1.5658 -0.1111  0.1740
 9715TIP3    H250561   0.666   0.769  15.054 -0.1780 -0.1185  0.2571
 9716TIP3   OH250562   4.135   4.701  12.763  0.7559  0.3863  0.1344
 9716TIP3    H150563   4.127   4.749  12.846  0.5979  0.1360  0.2653
 9716TIP3    H250564   4.073   4.628  12.771  0.2679  0.7291 -0.4646
 9717TIP3   OH250565   5.539   2.597  15.398 -0.2595 -0.4337 -0.4812
 9717TIP3    H150566   5.618   2.547  15.416 -0.1528 -0.6116 -1.4349
 9717TIP3    H250567   5.513   2.633  15.483  0.6884 -0.5989 -0.1223
 9718TIP3   OH250568   6.500   2.738   2.759 -0.1756  0.1071 -0.6539
 9718TIP3    H150569   6.514   2.833   2.752 -0.2365  0.2532  0.9694
 9718TIP3    H250570   6.409   2.726   2.734 -0.3400  0.5501 -0.2795
 9719TIP3   OH250571   7.101   3.290  13.058  0.5014 -0.0201  0.1597
 9719TIP3    H150572   7.097   3.242  12.975  3.1810  1.3943 -0.8180
 9719TIP3    H250573   7.145   3.372  13.037 -1.3026  1.6088  2.4410
 9720TIP3   OH250574   3.869   1.249  15.365 -0.1526 -0.1382  0.3470
 9720TIP3    H150575   3.940   1.218  15.309 -0.3978  2.0403 -1.2268
 9720TIP3    H250576   3.900   1.334  15.398 -2.0381  0.8883 -0.4475
 9721TIP3   OH250577   0.886   2.285   5.303 -0.0023 -0.3366 -0.4586
 9721TIP3    H150578   0.925   2.276   5.389  0.1404 -0.0374 -0.4907
 9721TIP3    H250579   0.792   2.281   5.319 -0.0250  1.0907 -0.1124
 9722TIP3   OH250580   2.525   6.799   0.094 -0.3379  0.0994  0.1222
 9722TIP3    H150581   2.562   6.861   0.031  0.6195 -0.2871  0.2825
 9722TIP3    H250582   2.434   6.790   0.068 -0.3491  1.1617 -0.2295
 9723TIP3   OH250583   6.054   6.349  11.034 -0.0599 -0.1246 -0.0842
 9723TIP3    H150584   5.988   6.412  11.065  1.8196  0.9765  1.8009
 9723TIP3    H250585   6.053   6.279  11.099 -0.4544 -0.9062 -0.9121
 9724TIP3   OH250586   0.810   1.359   0.906  0.5720  0.0183  0.3925
 9724TIP3    H150587   0.735   1.300   0.904 -0.0226  0.7485  1.0430
 9724TIP3    H250588   0.774   1.445   0.886  1.8707 -0.2477 -3.7415
 9725TIP3   OH250589   3.664   2.945  13.541 -0.0496  0.3203 -0.2197
 9725TIP3    H150590   3.648   3.030  13.582 -1.3468  0.4669 -0.9873
 9725TIP3    H250591   3.601   2.886  13.581  0.6770 -0.2316  0.1251
 9726TIP3   OH250592   4.788   6.390   2.026  0.3577  0.4991 -0.4763
 9726TIP3    H150593   4.846   6.390   1.951  0.0066  0.4361 -0.7498
 9726TIP3    H250594   4.775   6.297   2.047  0.9377  0.5344  0.0364
 9727TIP3   OH250595   7.154   1.683   2.017  0.0459  0.4119  0.2113
 9727TIP3    H150596   7.116   1.640   2.094 -2.4958  1.2481 -0.5250
 9727TIP3    H250597   7.158   1.776   2.041  1.7911  0.3170  0.3209
 9728TIP3   OH250598   3.228   6.710  15.299  0.1010  0.1122  0.2499
 9728TIP3    H150599   3.303   6.724  15.357  0.0194  1.1553  0.1133
 9728TIP3    H250600   3.228   6.786  15.241 -1.1191  0.1692  0.3142
 9729TIP3   OH250601   7.064   1.768   1.075 -0.2958 -0.2941  0.2552
 9729TIP3    H150602   7.119   1.843   1.094  0.0949 -1.0613  2.2395
 9729TIP3    H250603   6.977   1.805   1.062  0.2218  0.6744 -0.5451
 9730TIP3   OH250604   0.358   3.962   1.292 -0.5735  0.1307 -0.0848
 9730TIP3    H150605   0.340   4.038   1.347 -0.4614  0.7348 -0.8781
 9730TIP3    H250606   0.283   3.957   1.233 -0.9201 -0.7937  0.4199
 9731TIP3   OH250607   5.458   1.972  15.271  0.3596  0.1507  0.2979
 9731TIP3    H150608   5.388   1.950  15.209 -1.0142  1.8822  1.1743
 9731TIP3    H250609   5.471   2.066  15.260  0.6205  0.3455  2.0796
 9732TIP3   OH250610   4.049   1.986   1.631 -0.1189 -0.2395 -0.0821
 9732TIP3    H150611   3.987   1.952   1.695 -0.4722  1.0591  0.2871
 9732TIP3    H250612   3.995   2.039   1.572  0.5160  0.3001 -0.1906
 9733TIP3   OH250613   5.913   3.222   2.396  0.2857  0.2974 -0.3366
 9733TIP3    H150614   5.905   3.242   2.489  1.1650 -0.9972  0.0332
 9733TIP3    H250615   5.824   3.206   2.367  0.0975 -0.2042  0.5034
 9734TIP3   OH250616   2.877   0.542  14.691  0.1217 -0.3613  0.2596
 9734TIP3    H150617   2.897   0.483  14.763  1.8497 -0.5909 -0.3878
 9734TIP3    H250618   2.937   0.616  14.704  0.1993 -0.2467 -0.7512
 9735TIP3   OH250619   2.590   1.994   0.100  0.1691 -0.4612 -0.1052
 9735TIP3    H150620   2.541   2.019   0.022 -0.4069 -0.5496  0.2212
 9735TIP3    H250621   2.628   1.908   0.079  2.8520  1.0106 -1.5410
 9736TIP3   OH250622   7.041   2.426  13.123  0.1201 -0.1538  0.2384
 9736TIP3    H150623   7.016   2.446  13.033 -0.8293  2.0211  0.9536
 9736TIP3    H250624   6.982   2.355  13.149  0.5320 -0.9340 -0.8811
 9737TIP3   OH250625   0.813   5.655   1.928 -0.1931  0.0855  0.1671
 9737TIP3    H150626   0.904   5.674   1.906  0.1450  0.5751  1.9397
 9737TIP3    H250627   0.801   5.564   1.902  0.1702  0.6178 -2.0076
 9738TIP3   OH250628   1.314   3.173  15.313 -0.3905  0.3510  0.6346
 9738TIP3    H150629   1.381   3.169  15.245  0.3136  2.0683  1.2132
 9738TIP3    H250630   1.258   3.246  15.288 -2.4643 -1.4539 -0.1828
 9739TIP3   OH250631   0.641   2.383  12.377  0.6248 -0.3161 -0.2662
 9739TIP3    H150632   0.549   2.369  12.397  0.9782  0.0823  1.7014
 9739TIP3    H250633   0.642   2.464  12.327 -0.1438 -0.6790 -0.8942
 9740TIP3   OH250634   2.861   5.258   1.693 -0.0424  0.3560 -0.2793
 9740TIP3    H150635   2.827   5.347   1.695 -0.3109  0.2528 -0.2399
 9740TIP3    H250636   2.786   5.202   1.714 -0.4537 -0.0464 -2.7261
 9741TIP3   OH250637   2.247   4.256  15.354 -0.4404  0.0456  0.0165
 9741TIP3    H150638   2.290   4.204  15.421  0.8319  1.3603  0.2600
 9741TIP3    H250639   2.245   4.199  15.277  0.3775 -0.5707  0.4432
 9742TIP3   OH250640   5.366   3.842  11.206 -0.7171 -0.6778  0.2089
 9742TIP3    H150641   5.300   3.784  11.244 -0.8400 -0.0826  0.9123
 9742TIP3    H250642   5.320   3.888  11.136 -1.1077 -0.1258  0.8210
 9743TIP3   OH250643   3.298   1.869  13.158  0.1472  0.6479  0.3250
 9743TIP3    H150644   3.363   1.799  13.171 -0.0415  0.2284 -0.9309
 9743TIP3    H250645   3.268   1.858  13.068  0.3341  2.5391  0.0003
 9744TIP3   OH250646   6.684   4.943  14.542 -0.0797  0.4615 -0.2843
 9744TIP3    H150647   6.777   4.920  14.543  0.1632  1.4337 -0.0408
 9744TIP3    H250648   6.683   5.038  14.553 -1.1258  0.4030  0.1211
 9745TIP3   OH250649   6.774   0.514  14.838 -0.3543  0.3042 -0.3944
 9745TIP3    H150650   6.862   0.510  14.876 -0.0849  1.9266 -0.7799
 9745TIP3    H250651   6.786   0.494  14.746 -0.4642  0.0536 -0.3548
 9746TIP3   OH250652   3.285   0.655   2.909 -0.2901  0.6101  0.0473
 9746TIP3    H150653   3.250   0.567   2.914 -0.1619  0.5490 -0.0906
 9746TIP3    H250654   3.340   0.665   2.987  1.1270 -0.0746 -0.8322
 9747TIP3   OH250655   1.539   4.364   1.471 -0.5773  0.1289 -0.5696
 9747TIP3    H150656   1.536   4.276   1.433 -0.2437  0.8134 -2.2219
 9747TIP3    H250657   1.555   4.422   1.396  4.0236  1.1697  1.0413
 9748TIP3   OH250658   6.057   6.939  12.048 -0.0015 -0.1031  0.0783
 9748TIP3    H150659   6.072   7.032  12.064 -0.5776  0.4492 -2.3859
 9748TIP3    H250660   5.984   6.937  11.986 -1.9709 -2.3057  2.3870
 9749TIP3   OH250661   5.889   5.429  15.012  0.5879  0.2996 -0.0563
 9749TIP3    H150662   5.935   5.416  15.095 -0.6799 -1.4324  0.4020
 9749TIP3    H250663   5.802   5.392  15.026 -0.0400  1.0390 -1.7918
 9750TIP3   OH250664   2.754   4.220  12.029  0.0851 -0.2883  0.4984
 9750TIP3    H150665   2.682   4.282  12.019 -0.0082 -0.6967 -1.6282
 9750TIP3    H250666   2.831   4.275  12.046 -0.4139  0.2446  1.0625
 9751TIP3   OH250667   3.973   6.535  14.491  0.2432 -0.2806 -0.3490
 9751TIP3    H150668   3.975   6.615  14.544 -0.1000 -0.0034 -0.7475
 9751TIP3    H250669   3.892   6.491  14.517 -0.9364  0.8242 -2.0313
 9752TIP3   OH250670   5.827   2.534   4.776  0.5446  0.1300  0.1850
 9752TIP3    H150671   5.734   2.512   4.784  0.3516  0.3806 -1.1945
 9752TIP3    H250672   5.844   2.593   4.850 -0.1523 -0.6537  0.9915
 9753TIP3   OH250673   5.004   3.171  15.098 -0.0648  0.0885 -0.0776
 9753TIP3    H150674   5.033   3.132  15.016 -1.2745  1.3111 -1.0918
 9753TIP3    H250675   5.084   3.203  15.139  0.6635 -1.4121 -0.2955
 9754TIP3   OH250676   6.497   1.585  10.341  0.0892  0.2357 -0.3759
 9754TIP3    H150677   6.407   1.565  10.366  0.5132 -0.7093  0.4525
 9754TIP3    H250678   6.541   1.500  10.341  0.6709  0.5131 -2.0905
 9755TIP3   OH250679   3.382   3.810  14.497 -0.3127 -0.1111  0.7054
 9755TIP3    H150680   3.292   3.838  14.513  0.2107  0.9525  1.9154
 9755TIP3    H250681   3.435   3.864  14.557  1.1426 -0.5472 -0.1555
 9756TIP3   OH250682   3.258   2.403   0.086 -0.0115  0.0539  0.0971
 9756TIP3    H150683   3.269   2.393   0.181  0.8762  0.0384 -0.0066
 9756TIP3    H250684   3.314   2.477   0.063 -1.5403  1.1486 -0.1536
 9757TIP3   OH250685   6.573   4.526  14.086  0.2764 -0.5496 -0.2744
 9757TIP3    H150686   6.566   4.606  14.138 -1.1410 -0.3717 -0.7286
 9757TIP3    H250687   6.485   4.490  14.086  0.2552 -0.5648 -2.5411
 9758TIP3   OH250688   3.744   3.647  13.420  0.7022  0.3134 -0.2422
 9758TIP3    H150689   3.744   3.742  13.433 -0.0684  0.5019 -1.5089
 9758TIP3    H250690   3.775   3.636  13.330  0.9655 -0.6475 -0.0343
 9759TIP3   OH250691   2.033   6.113  14.408 -0.6932 -0.2816  0.1254
 9759TIP3    H150692   2.003   6.201  14.434  1.8574  0.4072  0.8312
 9759TIP3    H250693   2.073   6.077  14.488  2.5670 -0.1898 -1.4021
 9760TIP3   OH250694   3.172   4.260  13.726 -0.4961 -0.3375 -0.2741
 9760TIP3    H150695   3.128   4.342  13.703  1.0025  0.3231 -0.8105
 9760TIP3    H250696   3.196   4.270  13.819  1.1314  0.5114 -0.7695
 9761TIP3   OH250697   0.709   3.094  15.257  0.4566  0.1682  0.0647
 9761TIP3    H150698   0.702   3.025  15.191 -0.5902 -0.9656  1.3415
 9761TIP3    H250699   0.628   3.144  15.248  0.9544  0.9129 -0.4579
 9762TIP3   OH250700   2.510   4.668   2.428  0.4262 -0.0769  0.1670
 9762TIP3    H150701   2.532   4.732   2.496  0.8226  0.7411 -0.7263
 9762TIP3    H250702   2.575   4.599   2.438 -0.2071 -0.5181  1.3537
 9763TIP3   OH250703   0.253   2.553  12.293  0.7395  0.5104  0.5847
 9763TIP3    H150704   0.321   2.594  12.239  1.4774 -3.8351 -2.0014
 9763TIP3    H250705   0.301   2.490  12.347 -1.0622 -2.1145 -0.7706
 9764TIP3   OH250706   3.332   4.588   1.787 -0.2717 -0.0192  0.0682
 9764TIP3    H150707   3.404   4.586   1.850  0.5573 -1.2678 -0.8868
 9764TIP3    H250708   3.273   4.656   1.819  2.2942  2.4116 -0.1924
 9765TIP3   OH250709   1.300   1.546   0.963  0.2368 -0.3907 -0.1527
 9765TIP3    H150710   1.311   1.454   0.988  1.2157 -0.4084 -0.6405
 9765TIP3    H250711   1.373   1.564   0.903 -1.8981 -0.2922 -2.8530
 9766TIP3   OH250712   1.102   2.219  13.898 -0.0168  0.1958  0.0804
 9766TIP3    H150713   1.167   2.150  13.910  0.2264  0.4492  0.2286
 9766TIP3    H250714   1.149   2.300  13.917 -0.4590  0.3557  0.5082
 9767TIP3   OH250715   1.727   5.182   1.046 -0.5223  0.2583 -0.4704
 9767TIP3    H150716   1.779   5.231   0.983 -0.8924  0.6637 -0.4638
 9767TIP3    H250717   1.687   5.112   0.994  0.4860 -0.3998 -0.3603
 9768TIP3   OH250718   3.863   2.594  15.394 -0.4583  0.0031  0.2208
 9768TIP3    H150719   3.908   2.512  15.415 -1.2875 -0.6406 -0.4778
 9768TIP3    H250720   3.859   2.641  15.477 -0.1465 -0.7463  0.6685
 9769TIP3   OH250721   1.481   5.101   0.503 -0.4205 -0.1440  0.1631
 9769TIP3    H150722   1.392   5.133   0.517  0.0996  0.0542  3.4317
 9769TIP3    H250723   1.523   5.168   0.449 -1.6512  0.7257  0.2852
 9770TIP3   OH250724   6.869   0.967  10.434  0.3293 -1.2862  0.0676
 9770TIP3    H150725   6.791   0.980  10.487 -0.0313  0.9128 -0.9373
 9770TIP3    H250726   6.935   1.026  10.472  1.2877 -2.5753  0.4499
 9771TIP3   OH250727   2.039   2.990   4.961 -0.2198  0.1394  0.4342
 9771TIP3    H150728   1.983   3.067   4.955  0.9193  0.9884  0.7442
 9771TIP3    H250729   2.112   3.016   5.017 -0.4218 -1.5229  1.5209
 9772TIP3   OH250730   2.516   1.870   3.003  0.1671  0.8507  0.2921
 9772TIP3    H150731   2.521   1.829   2.917 -0.3695  1.4244 -0.0136
 9772TIP3    H250732   2.539   1.800   3.064 -2.2180 -0.3127 -0.1146
 9773TIP3   OH250733   2.280   1.306   0.368  0.4859 -0.3482  0.1716
 9773TIP3    H150734   2.311   1.267   0.286  0.1079  0.6165 -0.4368
 9773TIP3    H250735   2.360   1.324   0.418  1.0062  2.7676 -1.6744
 9774TIP3   OH250736   1.574   4.658   1.418 -0.1940 -0.0146  0.1471
 9774TIP3    H150737   1.600   4.725   1.356  1.6290  0.8133  1.7423
 9774TIP3    H250738   1.656   4.632   1.461 -0.8318 -3.4280 -0.6005
 9775TIP3   OH250739   3.219   3.398  13.869 -0.1711 -0.1143  0.1758
 9775TIP3    H150740   3.220   3.330  13.936 -0.7042  0.4957  0.8059
 9775TIP3    H250741   3.296   3.380  13.816  0.4189 -0.4297  1.1247
 9776TIP3   OH250742   3.471   4.841   3.792  0.1875 -0.1658  0.4671
 9776TIP3    H150743   3.412   4.915   3.785 -1.2798 -1.3618 -0.1413
 9776TIP3    H250744   3.502   4.843   3.882 -1.4232  0.0034  1.0286
 9777TIP3   OH250745   0.576   3.415   0.066 -0.1640  0.0787 -0.0501
 9777TIP3    H150746   0.643   3.356   0.033  1.5771  1.2108  1.3863
 9777TIP3    H250747   0.558   3.385   0.155 -0.2910  0.8320  0.1875
 9778TIP3   OH250748   2.237   1.419   1.493  0.4847  0.0548  0.1983
 9778TIP3    H150749   2.327   1.389   1.506 -0.4562 -2.1172  2.1689
 9778TIP3    H250750   2.185   1.363   1.552 -1.8973  2.7162  0.7150
 9779TIP3   OH250751   6.324   6.346  15.015 -0.0618  0.1123 -0.5876
 9779TIP3    H150752   6.283   6.429  14.992 -2.0864 -0.5514  0.5576
 9779TIP3    H250753   6.254   6.281  15.008  1.6746 -1.6607 -2.2661
 9780TIP3   OH250754   3.348   4.863  12.133 -0.0182  0.4206 -0.0485
 9780TIP3    H150755   3.359   4.956  12.116 -1.9479  0.6220 -0.2428
 9780TIP3    H250756   3.395   4.820  12.061  1.4308  1.2229  0.4103
 9781TIP3   OH250757   1.523   5.633  13.913  0.2850 -0.1916  0.0064
 9781TIP3    H150758   1.574   5.671  13.842 -0.9793 -0.8972 -1.2975
 9781TIP3    H250759   1.571   5.554  13.938 -0.1525 -0.8470 -1.2016
 9782TIP3   OH250760   0.932   2.795  15.172 -0.8856  0.1864 -0.0161
 9782TIP3    H150761   0.938   2.825  15.262 -1.5608  0.4159 -0.0430
 9782TIP3    H250762   0.950   2.701  15.176 -1.4846  0.0893  0.4380
 9783TIP3   OH250763   0.578   6.529   0.203 -0.4813  0.7745  0.3786
 9783TIP3    H150764   0.575   6.459   0.269 -0.0729 -1.2391 -1.6749
 9783TIP3    H250765   0.490   6.529   0.165  0.8281 -1.9593 -2.9126
 9784TIP3   OH250766   1.161   6.186   1.492 -0.8543 -0.1638 -0.1370
 9784TIP3    H150767   1.199   6.173   1.405  0.8064  1.3969  0.3142
 9784TIP3    H250768   1.072   6.217   1.474 -0.3773  0.5970 -1.2999
 9785TIP3   OH250769   6.140   5.086   0.144  0.0381  0.3521  0.9309
 9785TIP3    H150770   6.078   5.107   0.074 -2.4967  0.6283  3.1619
 9785TIP3    H250771   6.103   5.128   0.222  3.3950  1.0548  2.2366
 9786TIP3   OH250772   6.627   0.780  14.073 -0.2690 -0.3756 -0.1227
 9786TIP3    H150773   6.657   0.835  14.001  2.4850 -0.0551  1.1820
 9786TIP3    H250774   6.538   0.810  14.091 -0.2487  0.9000 -2.0717
 9787TIP3   OH250775   4.102   6.613   0.432 -0.3715  0.2423  0.1779
 9787TIP3    H150776   4.019   6.656   0.412  0.3216  1.7152  0.4583
 9787TIP3    H250777   4.133   6.655   0.512  0.6158 -0.3615  0.1280
 9788TIP3   OH250778   6.183   1.918  11.225 -0.2985 -0.1350  0.4684
 9788TIP3    H150779   6.271   1.915  11.262 -0.1555 -0.8751  0.0908
 9788TIP3    H250780   6.159   1.826  11.211 -0.8057  0.0826 -0.1742
 9789TIP3   OH250781   4.919   2.927   2.410 -0.4655 -0.3234  0.3415
 9789TIP3    H150782   4.870   2.848   2.433 -0.5627 -0.9941 -2.0517
 9789TIP3    H250783   5.011   2.902   2.420 -0.5345 -0.0309  1.7785
 9790TIP3   OH250784   6.487   4.561   2.986  0.3087 -0.3372 -0.0215
 9790TIP3    H150785   6.444   4.520   3.062 -2.4725 -0.2697 -1.5035
 9790TIP3    H250786   6.581   4.547   3.002 -0.2054 -0.5841  3.2708
 9791TIP3   OH250787   2.391   2.896  13.781 -0.0727  0.1090  0.0077
 9791TIP3    H150788   2.363   2.938  13.862  1.1508  0.7140  0.1183
 9791TIP3    H250789   2.416   2.968  13.724  1.1760 -0.4170 -0.1279
 9792TIP3   OH250790   6.433   3.517  15.506  0.4151 -0.5517 -0.4795
 9792TIP3    H150791   6.346   3.556  15.500  0.9905  0.6424 -1.1214
 9792TIP3    H250792   6.475   3.562  15.579  0.2205 -1.6883  0.3457
 9793TIP3   OH250793   6.474   5.097   3.847 -0.5727  0.5082  0.0094
 9793TIP3    H150794   6.530   5.142   3.910 -0.0585 -0.6770  0.4176
 9793TIP3    H250795   6.385   5.107   3.882 -0.3394  0.2775  0.6770
 9794TIP3   OH250796   6.820   4.923  15.107 -0.0499  0.1089  0.0676
 9794TIP3    H150797   6.900   4.883  15.141  1.5257  0.7574 -2.7365
 9794TIP3    H250798   6.811   4.887  15.019 -1.9511  1.3198 -0.2510
 9795TIP3   OH250799   4.149   2.167   1.222 -0.0718  0.7694 -0.6225
 9795TIP3    H150800   4.126   2.075   1.212  1.3319  0.5070 -1.4706
 9795TIP3    H250801   4.076   2.214   1.180 -1.1835  0.0914  0.5157
 9796TIP3   OH250802   6.997   5.960   0.198 -0.1472  0.1419 -0.5960
 9796TIP3    H150803   6.906   5.989   0.207 -0.2712  0.0396 -1.4934
 9796TIP3    H250804   6.991   5.867   0.179  0.1703  0.0272 -0.1509
 9797TIP3   OH250805   3.763   0.870  13.967 -0.2810 -0.1424  0.0009
 9797TIP3    H150806   3.774   0.948  13.913 -3.4385  0.4288  0.0934
 9797TIP3    H250807   3.844   0.820  13.955  0.2379  1.3421 -2.9696
 9798TIP3   OH250808   1.989   4.441  13.222 -0.5225 -0.1749  0.0075
 9798TIP3    H150809   1.979   4.407  13.133  0.6979  0.4164 -0.3736
 9798TIP3    H250810   2.036   4.372  13.268  0.4057  0.2392 -0.2965
 9799TIP3   OH250811   1.530   5.645   0.391  0.3459  0.2838  0.5411
 9799TIP3    H150812   1.476   5.582   0.343  2.5062 -1.8933  0.8623
 9799TIP3    H250813   1.597   5.672   0.329  1.2636 -0.1136  1.3372
 9800TIP3   OH250814   2.785   5.121  14.819  0.1024  0.7558  0.0926
 9800TIP3    H150815   2.696   5.109  14.787  0.2556 -0.4139  0.0771
 9800TIP3    H250816   2.810   5.034  14.853  1.8239  0.6400 -1.4239
 9801TIP3   OH250817   5.910   2.199   2.416 -0.3115  0.5529  0.0105
 9801TIP3    H150818   5.915   2.119   2.467  1.6814  0.7260  0.1097
 9801TIP3    H250819   5.887   2.169   2.327 -0.2579 -0.0611  0.2008
 9802TIP3   OH250820   2.259   2.204  15.112  0.1330  0.2855  0.4368
 9802TIP3    H150821   2.262   2.123  15.060 -0.2659  0.5565 -0.0195
 9802TIP3    H250822   2.315   2.265  15.064  1.4045 -0.0915  1.4381
 9803TIP3   OH250823   5.838   1.427  15.513  0.0443 -0.1286  0.2840
 9803TIP3    H150824   5.868   1.348  15.468  0.8807  0.5259 -0.3195
 9803TIP3    H250825   5.907   1.445  15.577  0.0090  0.2858  0.2057
 9804TIP3   OH250826   6.091   6.955  14.188  0.2102  0.4477  0.2747
 9804TIP3    H150827   6.137   6.948  14.104  1.1212  2.5551  0.5836
 9804TIP3    H250828   6.039   7.035  14.181 -1.4181 -0.5205  0.9254
 9805TIP3   OH250829   3.974   1.315   0.107  0.6046 -0.5266  0.3289
 9805TIP3    H150830   4.060   1.334   0.070  0.9808 -1.2673  0.8080
 9805TIP3    H250831   3.958   1.387   0.168 -0.5620  1.3866 -2.1077
 9806TIP3   OH250832   3.636   1.872   2.852 -0.3378  0.2998  0.5466
 9806TIP3    H150833   3.627   1.800   2.915  0.7928 -0.2868  0.0691
 9806TIP3    H250834   3.631   1.951   2.905  0.2438 -0.1793  1.3400
 9807TIP3   OH250835   3.516   6.181  13.003  0.4942  0.3163  0.0727
 9807TIP3    H150836   3.447   6.147  13.061  2.0959 -0.8125  1.3551
 9807TIP3    H250837   3.577   6.226  13.062  1.1081  0.8886 -0.9928
 9808TIP3   OH250838   1.380   5.203  12.935  0.5388 -0.2162  0.0009
 9808TIP3    H150839   1.381   5.168  12.846  0.4389  0.2411 -0.1791
 9808TIP3    H250840   1.312   5.152  12.980  0.3763 -0.2357 -0.2661
 9809TIP3   OH250841   0.593   5.201  13.471  0.1654 -0.4691  0.3592
 9809TIP3    H150842   0.559   5.142  13.538 -1.7837 -0.3675 -0.4980
 9809TIP3    H250843   0.518   5.216  13.412  1.2440  1.1069 -0.6501
 9810TIP3   OH250844   0.079   6.931   2.593  0.3026  0.1564 -0.1257
 9810TIP3    H150845   0.054   7.005   2.539 -1.2406  0.1787  0.5921
 9810TIP3    H250846   0.000   6.877   2.598  0.9983 -0.8154  0.4937
 9811TIP3   OH250847   2.541   6.963   2.266 -0.0983 -0.3700 -0.3156
 9811TIP3    H150848   2.450   6.934   2.253  0.1026 -0.8474 -0.6343
 9811TIP3    H250849   2.537   7.015   2.346 -0.8879  0.6229 -0.9805
 9812TIP3   OH250850   5.983   4.697   0.228  0.0858  0.7506  0.2085
 9812TIP3    H150851   5.984   4.750   0.308  1.6351 -0.5882  1.0919
 9812TIP3    H250852   5.931   4.620   0.251 -1.7941  1.6484 -0.9415
 9813TIP3   OH250853   5.802   3.162   0.716 -0.0172 -0.2323  0.0315
 9813TIP3    H150854   5.753   3.243   0.733 -0.9346 -0.3809 -1.7442
 9813TIP3    H250855   5.767   3.099   0.781 -1.1620  0.0739 -0.2741
 9814TIP3   OH250856   3.708   2.414   3.335  0.0176 -0.4413 -0.0842
 9814TIP3    H150857   3.727   2.350   3.403 -3.8399 -1.9087 -0.2298
 9814TIP3    H250858   3.769   2.393   3.264  1.1186 -1.7319  1.2233
 9815TIP3   OH250859   2.451   5.559  12.784 -0.2080  0.2570  0.2297
 9815TIP3    H150860   2.375   5.605  12.747 -0.0147 -0.0225 -0.5063
 9815TIP3    H250861   2.498   5.627  12.833 -0.1428  0.7619 -0.5263
 9816TIP3   OH250862   2.636   1.583   0.712 -0.5723  0.3673  0.0892
 9816TIP3    H150863   2.589   1.662   0.687 -1.0552 -0.3488 -1.2980
 9816TIP3    H250864   2.666   1.545   0.629  1.2938  0.0999  0.8590
 9817TIP3   OH250865   2.661   4.366  14.325 -0.6349  0.5819 -0.2128
 9817TIP3    H150866   2.677   4.432  14.257 -0.8160 -1.0884 -1.9007
 9817TIP3    H250867   2.687   4.283  14.285 -0.8603 -0.4421  1.7181
 9818TIP3   OH250868   1.233   4.416   1.855 -0.2676 -0.1583  0.2244
 9818TIP3    H150869   1.172   4.362   1.805 -2.0626  0.9944  1.0917
 9818TIP3    H250870   1.221   4.504   1.819 -0.4213  0.3867  1.5683
 9819TIP3   OH250871   0.600   5.253   0.996 -0.5683  0.5978  0.4740
 9819TIP3    H150872   0.505   5.240   1.003 -1.0637  3.1184 -0.6441
 9819TIP3    H250873   0.630   5.262   1.086 -1.5389  0.5314  0.8121
 9820TIP3   OH250874   2.175   4.457   1.703  0.2555 -0.3540 -0.1164
 9820TIP3    H150875   2.083   4.459   1.679  0.1969  1.2006  0.2082
 9820TIP3    H250876   2.182   4.517   1.778  1.0806 -2.3437  1.4402
 9821TIP3   OH250877   4.768   4.036  14.955 -0.4299  0.4851  0.2242
 9821TIP3    H150878   4.732   4.023  15.042  0.4791 -0.0899  0.5214
 9821TIP3    H250879   4.730   4.118  14.925 -0.4832  0.8524  1.2889
 9822TIP3   OH250880   5.101   5.688  13.239  0.7891 -0.1278  0.0649
 9822TIP3    H150881   5.100   5.624  13.168 -0.8420  1.0801 -1.0529
 9822TIP3    H250882   5.190   5.686  13.272  1.4209 -1.1337 -1.6405
 9823TIP3   OH250883   2.582   4.936   0.464  0.3800  0.2649 -0.4765
 9823TIP3    H150884   2.673   4.925   0.490 -0.0321 -1.4193  0.3268
 9823TIP3    H250885   2.541   4.977   0.540  0.3729  0.6024 -0.6625
 9824TIP3   OH250886   4.590   1.821   1.330 -0.3221 -0.7796 -0.7329
 9824TIP3    H150887   4.663   1.760   1.334 -1.3242 -1.9816 -0.7053
 9824TIP3    H250888   4.545   1.812   1.414 -0.0251  0.5629 -0.4158
 9825TIP3   OH250889   2.132   1.527   0.316  0.5098  0.3991 -0.2378
 9825TIP3    H150890   2.159   1.609   0.357 -0.7756 -0.0487  1.5670
 9825TIP3    H250891   2.174   1.459   0.367 -0.5056 -0.1376 -0.0996
 9826TIP3   OH250892   3.956   2.457  12.182  0.2217 -0.3617 -0.3774
 9826TIP3    H150893   3.877   2.497  12.144  1.3708  1.9111 -0.4623
 9826TIP3    H250894   3.960   2.370  12.143 -1.6223 -0.0812 -1.2510
 9827TIP3   OH250895   3.874   6.868   1.488  0.0395 -0.3356 -0.2468
 9827TIP3    H150896   3.941   6.935   1.503  0.1822 -0.0923 -1.8618
 9827TIP3    H250897   3.924   6.789   1.468 -0.0811  0.5378 -4.4387
 9828TIP3   OH250898   1.523   6.872  13.359  0.4572  0.4661  0.5399
 9828TIP3    H150899   1.544   6.787  13.398 -0.4560 -0.1407 -0.2848
 9828TIP3    H250900   1.486   6.922  13.432  3.0359  0.9525  1.5834
 9829TIP3   OH250901   0.450   1.833  13.213  0.3636  0.6025 -0.4040
 9829TIP3    H150902   0.522   1.812  13.273  0.5095 -0.9788 -1.1038
 9829TIP3    H250903   0.487   1.895  13.151  0.7822  0.7228 -0.0338
 9830TIP3   OH250904   4.091   5.867  14.137  0.0379 -0.0677 -0.1895
 9830TIP3    H150905   4.074   5.960  14.145 -0.8432 -0.2928  0.6664
 9830TIP3    H250906   4.139   5.844  14.217 -1.7303 -0.7714  0.7002
 9831TIP3   OH250907   3.312   3.684   0.620 -0.5014  0.3537  0.1640
 9831TIP3    H150908   3.380   3.719   0.563 -0.5404 -1.6940 -1.1952
 9831TIP3    H250909   3.261   3.625   0.564 -0.3037 -2.0089  2.3766
 9832TIP3   OH250910   6.863   6.822  13.299 -0.6023  0.2122  0.1604
 9832TIP3    H150911   6.876   6.879  13.375 -2.8604 -0.2149  0.9003
 9832TIP3    H250912   6.920   6.747  13.316  0.8552  1.3111  0.1638
 9833TIP3   OH250913   4.264   1.132   1.369  0.8104 -0.4424 -0.4341
 9833TIP3    H150914   4.250   1.048   1.411 -1.8371  0.7051  1.1042
 9833TIP3    H250915   4.246   1.117   1.276  0.3722 -1.5644 -0.1660
 9834TIP3   OH250916   1.175   3.469   3.738 -0.3921  0.0274  0.1240
 9834TIP3    H150917   1.216   3.526   3.803 -1.7485  2.0174 -0.7384
 9834TIP3    H250918   1.246   3.445   3.679  0.0275  1.5477 -0.0046
 9835TIP3   OH250919   5.632   6.380  13.058  0.0035 -0.3914  0.4042
 9835TIP3    H150920   5.666   6.364  12.970 -2.0449  1.3558 -0.7404
 9835TIP3    H250921   5.540   6.353  13.054  0.3007 -1.9440  2.5361
 9836TIP3   OH250922   1.305   3.602   0.183 -0.5952 -0.7800 -0.4128
 9836TIP3    H150923   1.270   3.685   0.215  1.0743 -0.5224  0.8254
 9836TIP3    H250924   1.281   3.538   0.250  0.3353 -0.8112 -0.1063
 9837TIP3   OH250925   1.774   3.553   0.733  0.2827 -0.3408 -0.2904
 9837TIP3    H150926   1.723   3.628   0.703  0.3381 -0.2443 -0.1463
 9837TIP3    H250927   1.751   3.544   0.825 -0.3267 -0.9940 -0.5023
 9838TIP3   OH250928   2.989   4.438   1.481 -0.1011  0.4714  0.2004
 9838TIP3    H150929   3.075   4.397   1.487  0.0642  0.7211 -0.3775
 9838TIP3    H250930   2.930   4.366   1.457 -0.0816  0.2720  0.7414
 9839TIP3   OH250931   6.841   3.835   3.514 -0.1897  0.1526 -0.0026
 9839TIP3    H150932   6.818   3.757   3.464 -1.6657  0.9286 -0.5732
 9839TIP3    H250933   6.786   3.904   3.477 -0.6866  0.9362  2.1224
 9840TIP3   OH250934   2.880   2.623   1.192  0.0744 -0.6587  0.0271
 9840TIP3    H150935   2.952   2.567   1.223 -0.7551 -1.0821  1.2602
 9840TIP3    H250936   2.916   2.669   1.117  1.6200 -0.9028  0.5919
 9841TIP3   OH250937   6.559   1.035  14.887 -0.3033  0.7748  0.3320
 9841TIP3    H150938   6.479   0.995  14.922 -0.0485 -0.2648 -0.2548
 9841TIP3    H250939   6.621   1.033  14.960 -0.1970 -0.1929  0.2268
 9842TIP3   OH250940   1.766   6.793   1.723 -0.0922  0.5926 -0.4175
 9842TIP3    H150941   1.744   6.802   1.815 -0.8769  1.2274 -0.6575
 9842TIP3    H250942   1.786   6.700   1.711  1.7208  0.8194  0.7476
 9843TIP3   OH250943   4.188   0.824   1.321 -0.0457  0.0141  0.2996
 9843TIP3    H150944   4.229   0.741   1.345 -0.7712  0.3294  2.7714
 9843TIP3    H250945   4.095   0.810   1.332 -0.1398  1.3172  1.3290
 9844TIP3   OH250946   0.955   0.811   0.825 -0.2388 -0.0352 -0.8504
 9844TIP3    H150947   1.027   0.866   0.792 -1.4179  0.9218 -1.8705
 9844TIP3    H250948   0.960   0.819   0.920  1.5976 -0.7495 -0.8631
 9845TIP3   OH250949   5.183   5.811  15.153  0.0440  0.2546 -0.0593
 9845TIP3    H150950   5.257   5.872  15.144 -0.1714  0.4825 -0.3255
 9845TIP3    H250951   5.171   5.775  15.065 -0.3356  0.4259 -0.0790
 9846TIP3   OH250952   3.300   6.916  15.131  0.5517  0.0185 -0.5058
 9846TIP3    H150953   3.352   6.995  15.118  1.3119 -0.3046  0.4473
 9846TIP3    H250954   3.360   6.844  15.108  0.6149 -0.3671  0.8110
 9847TIP3   OH250955   3.550   6.160   1.377 -0.0199 -0.1553 -0.6740
 9847TIP3    H150956   3.470   6.210   1.394  1.4720  1.6473  1.2673
 9847TIP3    H250957   3.524   6.068   1.387 -1.8073  0.4183  0.0635
 9848TIP3   OH250958   2.548   3.679  12.666  0.7028 -0.3054 -0.1003
 9848TIP3    H150959   2.477   3.630  12.624  0.6633  0.1213 -0.5405
 9848TIP3    H250960   2.612   3.693  12.596 -0.1420  1.8807 -0.4624
 9849TIP3   OH250961   5.036   0.775   2.267  0.1263  0.2348  0.2683
 9849TIP3    H150962   4.950   0.810   2.290 -0.2753 -0.0548 -0.7657
 9849TIP3    H250963   5.019   0.719   2.191  1.4761  1.4391 -0.9450
 9850TIP3   OH250964   4.580   1.622  11.083 -0.2426 -0.0742  0.2322
 9850TIP3    H150965   4.659   1.639  11.134 -1.4124  0.7747  1.7902
 9850TIP3    H250966   4.581   1.528  11.067  0.8898 -0.1213  0.5348
 9851TIP3   OH250967   2.347   5.620   2.604  0.6693  0.7769 -0.4563
 9851TIP3    H150968   2.321   5.677   2.532  1.8952  0.4185 -1.1820
 9851TIP3    H250969   2.383   5.680   2.670  0.5536  0.9912 -0.5852
 9852TIP3   OH250970   2.675   4.790  14.735  0.4113  0.5833  0.0104
 9852TIP3    H150971   2.627   4.719  14.692  2.0235 -0.7588  0.4054
 9852TIP3    H250972   2.748   4.809  14.677  0.7645  0.9727  0.5777
 9853TIP3   OH250973   5.028   2.373   1.102  0.0415 -0.0935 -0.5055
 9853TIP3    H150974   5.011   2.397   1.012 -0.3427  1.1104 -0.1142
 9853TIP3    H250975   4.942   2.359   1.141  0.1300  0.9825  0.1032
 9854TIP3   OH250976   5.131   1.973  13.174 -0.4531  0.3260 -0.1915
 9854TIP3    H150977   5.208   2.026  13.151 -1.6708  2.6828  0.8856
 9854TIP3    H250978   5.163   1.913  13.241  0.5999  0.8529 -0.2035
 9855TIP3   OH250979   5.760   6.756  11.078  0.0520  0.8210  1.0562
 9855TIP3    H150980   5.765   6.740  10.984 -0.3812  0.0482  1.1554
 9855TIP3    H250981   5.723   6.844  11.086 -2.5257 -0.1497  0.5020
 9856TIP3   OH250982   5.865   5.738  13.827 -0.1945  0.3615  0.0878
 9856TIP3    H150983   5.782   5.690  13.828 -0.0294  0.1037  1.1545
 9856TIP3    H250984   5.921   5.688  13.767  0.2899 -1.3213  1.9089
 9857TIP3   OH250985   5.999   6.408  14.800 -1.0061 -0.3273  0.1596
 9857TIP3    H150986   5.954   6.389  14.882 -1.4072  1.0385  0.2574
 9857TIP3    H250987   5.972   6.497  14.777  1.4354  0.4405  0.0965
 9858TIP3   OH250988   1.928   2.162  14.414 -0.5974  0.0323  0.2333
 9858TIP3    H150989   1.930   2.234  14.350 -0.4955 -1.0125 -0.9595
 9858TIP3    H250990   2.020   2.146  14.434 -0.5775 -0.3155 -0.1335
 9859TIP3   OH250991   1.973   0.288   1.206 -0.1047 -0.1546  0.0084
 9859TIP3    H150992   2.067   0.283   1.224  0.0965  4.3208  0.7039
 9859TIP3    H250993   1.932   0.282   1.292 -0.3594 -0.1783 -0.1150
 9860TIP3   OH250994   1.912   0.579  15.549 -0.2337 -0.1480 -0.3311
 9860TIP3    H150995   1.884   0.643  15.614 -1.7236 -1.3693  0.2756
 9860TIP3    H250996   1.899   0.494  15.593 -0.6705 -0.9638 -2.0154
 9861TIP3   OH250997   3.685   3.672   0.354 -0.5426  0.2824 -0.1631
 9861TIP3    H150998   3.717   3.681   0.444 -1.8967 -0.5352  0.4196
 9861TIP3    H250999   3.603   3.722   0.353 -0.8587 -0.2461 -0.7528
 9862TIP3   OH251000   0.569   0.289  14.602  0.6218  0.0381  1.0261
 9862TIP3    H151001   0.548   0.363  14.545 -0.2306 -0.9738  0.0029
 9862TIP3    H251002   0.653   0.258  14.570 -0.1269 -0.8883 -0.0732
 9863TIP3   OH251003   1.291   2.456  14.693  0.0040  0.1975 -0.2777
 9863TIP3    H151004   1.233   2.381  14.707  0.4026  0.3080  2.3077
 9863TIP3    H251005   1.232   2.527  14.669 -0.8979  0.0807  1.4540
 9864TIP3   OH251006   2.684   3.877   1.443 -0.0830 -0.3151 -0.6866
 9864TIP3    H151007   2.657   3.968   1.457 -0.0263 -0.5083  0.8105
 9864TIP3    H251008   2.733   3.879   1.361  2.3841  1.5631  0.7619
 9865TIP3   OH251009   4.819   3.215   3.366 -0.2519  0.0748  0.0780
 9865TIP3    H151010   4.780   3.297   3.395  2.6851  1.6272 -0.1534
 9865TIP3    H251011   4.913   3.227   3.379  0.3069 -3.0258 -0.5733
 9866TIP3   OH251012   5.559   3.284  12.966 -0.0806 -0.2638 -0.0907
 9866TIP3    H151013   5.524   3.257  12.881 -0.4269  1.3932 -0.4833
 9866TIP3    H251014   5.654   3.277  12.957 -0.1489 -0.9484 -0.3158
 9867TIP3   OH251015   4.152   2.326  12.603 -0.0381 -0.3661  0.5538
 9867TIP3    H151016   4.127   2.295  12.690  1.4831 -0.0724  1.1080
 9867TIP3    H251017   4.086   2.289  12.544  0.4180 -2.7280  1.4885
 9868TIP3   OH251018   2.897   0.140   2.220 -0.2421 -0.3782 -0.6975
 9868TIP3    H151019   2.850   0.222   2.204 -1.3109 -0.8523 -0.0118
 9868TIP3    H251020   2.829   0.073   2.221  0.5693 -1.2101 -0.7338
 9869TIP3   OH251021   2.036   3.440   2.924  0.4180 -0.2066  0.0198
 9869TIP3    H151022   2.124   3.476   2.921  0.0241  0.7776  0.0566
 9869TIP3    H251023   2.042   3.357   2.876  1.4779 -0.4146  0.5019
 9870TIP3   OH251024   4.719   3.399   2.507  0.3369  0.3290 -0.0882
 9870TIP3    H151025   4.722   3.441   2.593  0.0804 -1.5398  0.8666
 9870TIP3    H251026   4.764   3.315   2.521  0.7038  0.2225 -1.8969
 9871TIP3   OH251027   4.426   0.165  14.541 -0.1532  0.2659  0.3986
 9871TIP3    H151028   4.499   0.116  14.505  0.7795 -0.1920  2.8327
 9871TIP3    H251029   4.371   0.099  14.584 -0.8414  0.8725  0.4572
 9872TIP3   OH251030   4.247   5.291  15.494  0.2701  0.2325 -0.0234
 9872TIP3    H151031   4.170   5.315  15.546 -1.1917 -1.7276 -1.2365
 9872TIP3    H251032   4.230   5.202  15.465  2.4197  0.2450 -1.4339
 9873TIP3   OH251033   2.682   1.058  14.201 -0.2309  0.4968 -0.3677
 9873TIP3    H151034   2.702   1.125  14.266 -2.2724 -0.0345  0.8364
 9873TIP3    H251035   2.760   1.055  14.145  0.2749  3.1886  0.1215
 9874TIP3   OH251036   2.776   2.229   0.392 -0.2376  0.1568 -0.1193
 9874TIP3    H151037   2.849   2.256   0.337  1.4993 -0.4797  1.8409
 9874TIP3    H251038   2.703   2.284   0.362  1.6177  2.4870 -0.5348
 9875TIP3   OH251039   4.728   3.092   1.925 -0.0400 -0.1358  0.2028
 9875TIP3    H151040   4.762   3.024   1.983  1.2950  0.1966 -0.1722
 9875TIP3    H251041   4.667   3.142   1.979 -0.3435 -1.0660  0.7394
 9876TIP3   OH251042   5.005   5.511  11.434 -0.1466  0.1441  0.2873
 9876TIP3    H151043   5.069   5.491  11.502  0.0177  0.8765  0.3439
 9876TIP3    H251044   5.008   5.435  11.375  2.4221  1.1843 -0.9663
 9877TIP3   OH251045   1.988   4.088  15.492 -0.6793 -0.6101  0.0451
 9877TIP3    H151046   2.019   4.071  15.581 -0.6492  0.9737  0.3572
 9877TIP3    H251047   2.035   4.025  15.437  4.3729  2.6117  0.2953
 9878TIP3   OH251048   1.780   2.897   4.982 -0.0068 -0.4950  0.1750
 9878TIP3    H151049   1.742   2.940   4.906  1.8393  2.7799  1.0278
 9878TIP3    H251050   1.874   2.913   4.975  0.5067 -2.5153  1.7251
 9879TIP3   OH251051   4.590   0.117  12.788  0.5796 -0.1947  0.0645
 9879TIP3    H151052   4.536   0.041  12.810  0.1188 -0.5919 -2.3698
 9879TIP3    H251053   4.550   0.188  12.839  0.1325 -1.2661  1.2533
 9880TIP3   OH251054   2.688   5.718  14.684 -0.3449  0.6235 -0.4221
 9880TIP3    H151055   2.641   5.700  14.765 -0.5963 -0.3623 -0.7855
 9880TIP3    H251056   2.767   5.765  14.713  0.6209 -1.5444  0.6161
 9881TIP3   OH251057   7.023   6.274  13.629  0.2016  0.4271  0.2217
 9881TIP3    H151058   6.986   6.278  13.717  0.1070 -0.9438  0.2640
 9881TIP3    H251059   7.077   6.353  13.621 -1.2052  1.4653  0.8494
 9882TIP3   OH251060   3.681   5.631   1.328 -0.2382  0.0510  0.0187
 9882TIP3    H151061   3.740   5.706   1.338  1.5945 -1.2948 -0.3550
 9882TIP3    H251062   3.650   5.613   1.417  2.1355 -0.9335  0.7037
 9883TIP3   OH251063   5.245   3.752   0.059  0.0106 -0.2146  0.2732
 9883TIP3    H151064   5.199   3.673   0.030  1.9442 -0.7273 -1.5488
 9883TIP3    H251065   5.179   3.821   0.054 -1.5258 -1.5914  1.2540
 9884TIP3   OH251066   0.813   5.269  14.981 -0.4912 -0.1589 -0.0513
 9884TIP3    H151067   0.878   5.211  14.941  1.3231  2.6789 -1.3938
 9884TIP3    H251068   0.856   5.303  15.060 -1.5058 -0.5694  0.6921
 9885TIP3   OH251069   5.505   6.499  15.096  0.3841  0.2265 -0.7186
 9885TIP3    H151070   5.527   6.550  15.018 -1.0362  0.7116 -0.8019
 9885TIP3    H251071   5.470   6.562  15.158 -1.3170 -0.6155 -0.7981
 9886TIP3   OH251072   5.123   0.511  15.532 -0.9117 -0.1267 -0.1449
 9886TIP3    H151073   5.057   0.569  15.572 -0.1767 -1.2460  2.8023
 9886TIP3    H251074   5.084   0.424  15.538 -0.1934 -0.4801 -0.6573
 9887TIP3   OH251075   3.430   3.075   2.758  0.2049  0.1717 -0.2426
 9887TIP3    H151076   3.486   3.152   2.756  0.2317  0.1184 -2.0116
 9887TIP3    H251077   3.486   3.004   2.725 -0.3319 -0.2744 -0.2003
 9888TIP3   OH251078   5.079   0.085   1.751  0.0219 -0.1776  0.4836
 9888TIP3    H151079   5.006   0.111   1.696  0.2849  0.6174  0.4890
 9888TIP3    H251080   5.093   0.161   1.809  1.4150  0.0593 -0.1263
 9889TIP3   OH251081   0.199   1.401  12.660  0.0592  0.4252  0.0529
 9889TIP3    H151082   0.207   1.445  12.575  0.6730 -1.0582 -0.6869
 9889TIP3    H251083   0.110   1.419  12.688  0.0657  1.5102 -0.5779
 9890TIP3   OH251084   5.149   0.773   1.177 -0.0166  0.2753  0.4503
 9890TIP3    H151085   5.118   0.773   1.087  0.2140  0.6700  0.3689
 9890TIP3    H251086   5.103   0.700   1.219 -3.2650  2.5103  1.0535
 9891TIP3   OH251087   6.145   2.038   0.590 -0.3882  0.3214 -0.3973
 9891TIP3    H151088   6.059   2.081   0.594 -0.6280  0.0953 -2.4302
 9891TIP3    H251089   6.173   2.051   0.499  1.7956  0.5020  0.2796
 9892TIP3   OH251090   5.810   2.122   0.302 -0.2511  0.7922  0.0365
 9892TIP3    H151091   5.862   2.198   0.276 -0.3865  1.2877  1.1699
 9892TIP3    H251092   5.731   2.127   0.248 -0.1587  1.3470 -0.0498
 9893TIP3   OH251093   4.072   3.602   2.888  0.1036 -0.1638  0.3501
 9893TIP3    H151094   4.118   3.592   2.805 -0.0545 -0.0555  0.2490
 9893TIP3    H251095   4.090   3.520   2.935  0.2590 -0.1921  0.2438
 9894TIP3   OH251096   5.431   6.634  13.109 -0.0936  0.0706 -0.6652
 9894TIP3    H151097   5.368   6.664  13.044 -0.6345 -1.8485 -1.0806
 9894TIP3    H251098   5.398   6.668  13.192 -0.1743  1.3473 -1.2043
 9895TIP3   OH251099   6.031   4.884   1.257  0.5506 -0.5134  0.1700
 9895TIP3    H151100   6.058   4.832   1.181 -1.0571 -0.0629 -0.7153
 9895TIP3    H251101   6.054   4.830   1.333  0.5439 -1.7268 -0.6908
 9896TIP3   OH251102   1.568   2.540  13.920 -0.3768 -0.5284  0.3260
 9896TIP3    H151103   1.500   2.600  13.949  0.2597  0.5700 -0.4065
 9896TIP3    H251104   1.650   2.583  13.943  0.0949 -0.8834 -0.6502
 9897TIP3   OH251105   0.761   1.147  13.497  0.6322  0.3716  0.1833
 9897TIP3    H151106   0.721   1.221  13.452  0.7534  0.1759 -0.2524
 9897TIP3    H251107   0.844   1.133  13.451  0.5427 -0.1223  0.1660
 9898TIP3   OH251108   2.957   6.303   3.427 -0.2177  0.0334  0.5216
 9898TIP3    H151109   2.879   6.258   3.397 -0.1527 -0.0335  0.4529
 9898TIP3    H251110   2.926   6.388   3.457 -0.5518 -0.5668  1.9507
 9899TIP3   OH251111   3.553   7.152   0.937  0.0504  0.3598 -0.1386
 9899TIP3    H151112   3.628   7.120   0.888  0.3718 -0.4019  0.8360
 9899TIP3    H251113   3.589   7.180   1.021 -0.8499 -0.6365  0.5947
 9900TIP3   OH251114   0.274   3.286   1.574  0.2418  0.5101 -0.5647
 9900TIP3    H151115   0.259   3.239   1.656 -0.3690  1.2816 -0.2329
 9900TIP3    H251116   0.289   3.217   1.509  0.2864 -0.1122  0.1058
 9901TIP3   OH251117   2.376   0.905   2.615 -0.0571  0.2156 -0.4330
 9901TIP3    H151118   2.382   0.963   2.539  2.0284  2.0615  1.0581
 9901TIP3    H251119   2.387   0.817   2.579 -1.6202  0.8487 -2.5515
 9902TIP3   OH251120   1.573   2.935  14.758 -0.8163 -0.0773  0.2450
 9902TIP3    H151121   1.592   3.023  14.791 -1.1665  0.8085 -1.8344
 9902TIP3    H251122   1.490   2.912  14.800 -0.2453  0.1996  1.5323
 9903TIP3   OH251123   1.076   6.742  11.515  0.2185 -1.0013  0.3109
 9903TIP3    H151124   1.141   6.737  11.585 -1.3531 -0.2959  1.8345
 9903TIP3    H251125   1.075   6.834  11.490 -0.1229 -1.0309  0.2169
 9904TIP3   OH251126   5.965   6.877   0.649  0.0141 -0.0024 -0.1019
 9904TIP3    H151127   6.046   6.872   0.597 -0.1029  0.0167 -0.2846
 9904TIP3    H251128   5.972   6.804   0.710 -0.7154 -1.1409 -1.3775
 9905TIP3   OH251129   6.606   1.800   0.635 -0.6626  0.5442 -0.5106
 9905TIP3    H151130   6.568   1.724   0.680 -2.7973  1.4792 -0.6963
 9905TIP3    H251131   6.691   1.812   0.677 -1.3646 -0.4081  1.2606
 9906TIP3   OH251132   0.323   1.523  14.980  0.2957  0.2546 -0.1928
 9906TIP3    H151133   0.291   1.558  15.063  1.1490  1.0839 -0.2175
 9906TIP3    H251134   0.308   1.428  14.987 -0.2227  0.3915  0.6411
 9907TIP3   OH251135   5.413   2.093  14.039 -0.4244 -0.2898 -0.5165
 9907TIP3    H151136   5.464   2.046  13.974 -1.3010 -0.1569 -1.3134
 9907TIP3    H251137   5.331   2.044  14.047  0.0213 -0.8091  1.1395
 9908TIP3   OH251138   6.719   4.456  14.729  0.0894  0.5124 -0.1140
 9908TIP3    H151139   6.765   4.398  14.790 -0.0751  1.5328  0.9933
 9908TIP3    H251140   6.789   4.498  14.679  0.2111 -0.5617 -0.8572
 9909TIP3   OH251141   5.009   0.731   4.470 -0.0738  0.1124  0.0042
 9909TIP3    H151142   4.920   0.699   4.452  0.8468 -2.1874 -0.6553
 9909TIP3    H251143   4.999   0.787   4.547 -2.1315  0.0019 -0.1559
 9910TIP3   OH251144   3.975   1.593   1.702 -0.1868  0.1189  0.0070
 9910TIP3    H151145   4.051   1.587   1.643  0.0014  1.3426  0.1131
 9910TIP3    H251146   3.976   1.511   1.750  0.6468 -0.1905 -0.5165
 9911TIP3   OH251147   6.827   6.271   0.631 -0.3924  0.3482 -0.2365
 9911TIP3    H151148   6.764   6.333   0.666  1.5666  0.8628  2.5674
 9911TIP3    H251149   6.829   6.288   0.537 -0.9726  3.5353  0.2776
 9912TIP3   OH251150   5.589   4.124   4.815  0.1168  0.2594 -0.3135
 9912TIP3    H151151   5.651   4.051   4.818  0.5564  0.6427 -0.0404
 9912TIP3    H251152   5.621   4.179   4.744 -0.1151  0.2790 -0.4035
 9913TIP3   OH251153   4.312   6.067  13.061 -0.0809  0.6456 -0.1534
 9913TIP3    H151154   4.265   6.135  13.109 -1.9600 -3.2201  3.7395
 9913TIP3    H251155   4.397   6.060  13.105 -0.8177 -1.1345  1.0224
 9914TIP3   OH251156   6.920   4.306   0.273 -0.5746  0.8545 -1.1405
 9914TIP3    H151157   6.946   4.398   0.264 -0.0273  0.8243  0.0060
 9914TIP3    H251158   6.934   4.286   0.366 -0.3318 -0.4948 -1.4550
 9915TIP3   OH251159   2.410   5.838   0.591 -0.2054  0.1725 -0.1584
 9915TIP3    H151160   2.414   5.742   0.599  1.0952  0.2651  0.5191
 9915TIP3    H251161   2.499   5.867   0.613  0.0055  1.3922 -2.5127
 9916TIP3   OH251162   5.127   5.330  13.396 -0.2976  0.2855  0.6671
 9916TIP3    H151163   5.218   5.349  13.421  0.2606  1.1673 -1.9185
 9916TIP3    H251164   5.134   5.284  13.313 -2.1659 -1.5082  1.4527
 9917TIP3   OH251165   4.910   6.496  12.980 -0.0373 -0.0608  0.5764
 9917TIP3    H151166   4.979   6.437  13.008 -0.0710 -0.3543  0.0483
 9917TIP3    H251167   4.917   6.498  12.884  1.5989  2.7754  0.6987
 9918TIP3   OH251168   1.530   0.887  13.077 -0.2840  0.1967  0.0011
 9918TIP3    H151169   1.597   0.915  13.014 -1.4138 -0.2341 -1.4129
 9918TIP3    H251170   1.457   0.947  13.063 -0.5812  0.0397  0.8478
 9919TIP3   OH251171   0.726   5.225  14.531 -0.3359  0.4175 -0.6133
 9919TIP3    H151172   0.651   5.271  14.494 -0.2678  0.2713 -0.9271
 9919TIP3    H251173   0.689   5.148  14.574 -0.3223  0.1178 -1.1343
 9920TIP3   OH251174   3.069   3.470   1.394 -0.2213  0.0039 -0.2997
 9920TIP3    H151175   3.000   3.490   1.329 -1.6188  1.6524  1.6347
 9920TIP3    H251176   3.039   3.389   1.436 -1.1275  0.8193  0.6708
 9921TIP3   OH251177   4.770   2.708   0.778  0.9388 -0.1658 -0.0217
 9921TIP3    H151178   4.791   2.653   0.853  1.5884 -0.6428 -0.5427
 9921TIP3    H251179   4.853   2.750   0.756 -0.0760  2.9887  1.9193
 9922TIP3   OH251180   3.796   3.357  15.296  0.0224 -0.0529  0.0073
 9922TIP3    H151181   3.785   3.440  15.249  2.1660  0.6651  0.7303
 9922TIP3    H251182   3.754   3.371  15.381 -0.4701 -0.0537 -0.2316
 9923TIP3   OH251183   1.839   4.911   3.760 -0.2849  0.2529 -0.0616
 9923TIP3    H151184   1.746   4.888   3.758  0.0158 -0.9069 -1.2969
 9923TIP3    H251185   1.879   4.841   3.813 -0.2885  1.4720  1.6022
 9924TIP3   OH251186   1.582   2.811   3.724 -0.0552 -0.1188 -0.0512
 9924TIP3    H151187   1.585   2.717   3.742 -1.5975 -0.0940  0.4190
 9924TIP3    H251188   1.580   2.817   3.629 -0.3835 -0.5825 -0.0756
 9925TIP3   OH251189   2.501   2.996   0.272 -0.4461 -0.0478  0.5569
 9925TIP3    H151190   2.412   3.021   0.247 -0.8282 -1.9446 -0.0460
 9925TIP3    H251191   2.539   2.959   0.192  1.1294  1.3855  0.6259
 9926TIP3   OH251192   5.222   4.492  10.760  0.0739 -0.0417 -0.3130
 9926TIP3    H151193   5.190   4.574  10.798  1.7554  0.7806 -0.5934
 9926TIP3    H251194   5.317   4.495  10.775  0.1211 -2.0977 -0.0441
 9927TIP3   OH251195   6.336   2.049  14.612 -0.3428  0.0232 -0.2510
 9927TIP3    H151196   6.244   2.063  14.632 -1.0686 -0.6965 -2.8192
 9927TIP3    H251197   6.375   2.136  14.616 -1.2870  0.4257  0.2322
 9928TIP3   OH251198   3.973   1.037   1.763 -0.3356  0.2095 -0.4273
 9928TIP3    H151199   3.992   1.122   1.722 -1.9410  0.4175 -0.7937
 9928TIP3    H251200   3.996   1.050   1.855 -1.4018  1.3443 -0.3013
 9929TIP3   OH251201   1.634   6.828  13.938 -0.4781 -0.1687 -0.7464
 9929TIP3    H151202   1.708   6.797  13.990 -0.3871 -0.9325 -1.3352
 9929TIP3    H251203   1.637   6.924  13.949 -0.3614 -0.3061  0.5083
 9930TIP3   OH251204   3.490   1.757  14.100  0.1699  0.2482  0.9607
 9930TIP3    H151205   3.487   1.667  14.134 -0.1259 -0.3375 -0.5705
 9930TIP3    H251206   3.584   1.778  14.097  0.2338  0.0426  1.4427
 9931TIP3   OH251207   0.014   6.395   2.963  0.3065  0.6303  0.4285
 9931TIP3    H151208   0.089   6.440   3.004  0.7554 -0.1664  0.4869
 9931TIP3    H251209  -0.063   6.440   2.999  0.7596  1.5538  0.2508
 9932TIP3   OH251210   0.963   1.505  13.316  0.3151  0.2883  0.9998
 9932TIP3    H151211   0.958   1.548  13.230 -1.9907 -0.6879  0.6156
 9932TIP3    H251212   0.913   1.561  13.374  2.0505  1.0572  1.7963
 9933TIP3   OH251213   0.849   6.178  14.877 -0.4449 -0.5907  0.0277
 9933TIP3    H151214   0.758   6.165  14.852 -0.6826  0.0081  0.5674
 9933TIP3    H251215   0.848   6.180  14.972  0.0511 -0.0115  0.0239
 9934TIP3   OH251216   6.774   3.962   5.696  0.2203 -0.0980 -0.3581
 9934TIP3    H151217   6.815   4.009   5.768 -0.8737 -1.5401  1.2598
 9934TIP3    H251218   6.847   3.934   5.641  1.0284  1.5417 -0.1404
 9935TIP3   OH251219   2.017   2.481   1.469  0.0472 -0.0882 -0.6162
 9935TIP3    H151220   2.000   2.539   1.395  0.1758 -0.1787 -0.7152
 9935TIP3    H251221   2.007   2.537   1.546 -2.6617 -0.5462 -0.5592
 9936TIP3   OH251222   6.243   4.812  13.568 -0.1903 -0.7497  0.1806
 9936TIP3    H151223   6.245   4.799  13.663  1.0978  0.6373  0.3613
 9936TIP3    H251224   6.335   4.821  13.543 -0.6149  0.6184 -0.9481
 9937TIP3   OH251225   1.098   1.316   5.231 -0.6486 -0.3188  0.0418
 9937TIP3    H151226   1.140   1.397   5.261  0.0666 -0.8651  0.5500
 9937TIP3    H251227   1.113   1.254   5.302  1.4295 -1.7565 -1.6026
 9938TIP3   OH251228   6.556   1.048   1.724 -0.4651  0.0665  0.2244
 9938TIP3    H151229   6.640   1.062   1.767  0.7425 -0.3016 -1.9713
 9938TIP3    H251230   6.551   0.953   1.712 -2.4525 -0.2131  2.7500
 9939TIP3   OH251231   0.415   5.873   0.248 -0.3022  0.0872  0.6001
 9939TIP3    H151232   0.395   5.805   0.312  2.2509 -1.1053  0.1782
 9939TIP3    H251233   0.334   5.924   0.241 -0.9624 -0.4128  3.9576
 9940TIP3   OH251234   2.949   3.834  13.907 -0.6682  0.5545  0.1998
 9940TIP3    H151235   2.917   3.894  13.839 -2.4034 -0.8911 -0.2896
 9940TIP3    H251236   2.940   3.747  13.869 -0.1426 -0.1715  1.6917
 9941TIP3   OH251237   3.603   6.632  13.381  0.9211 -0.0466  0.6403
 9941TIP3    H151238   3.569   6.549  13.414 -1.1014  0.3878 -0.2792
 9941TIP3    H251239   3.609   6.620  13.286  0.9992  0.7100  0.5424
 9942TIP3   OH251240   6.632   6.304   0.891  0.1817  0.1414 -0.1277
 9942TIP3    H151241   6.684   6.384   0.881  2.2607 -1.1613 -0.0570
 9942TIP3    H251242   6.656   6.271   0.978 -1.6542  0.1176  0.3888
 9943TIP3   OH251243   5.574   3.419  14.345  0.6951 -0.5801 -0.2332
 9943TIP3    H151244   5.535   3.458  14.423 -0.4089 -0.4941 -0.8078
 9943TIP3    H251245   5.551   3.480  14.275  0.7031 -1.2323 -0.8057
 9944TIP3   OH251246   5.891   3.637   2.284  0.2448 -0.8494 -0.2834
 9944TIP3    H151247   5.976   3.644   2.327  0.6066  0.7098 -1.2116
 9944TIP3    H251248   5.906   3.579   2.209  0.5258 -0.4962 -0.5039
 9945TIP3   OH251249   0.411   5.696  12.415  0.4308  0.4857  0.1627
 9945TIP3    H151250   0.346   5.764  12.399  1.4593  1.1346 -1.4377
 9945TIP3    H251251   0.432   5.704  12.508 -1.4227  0.5646  0.5902
 9946TIP3   OH251252   1.598   5.458  15.018  0.1085 -0.1868 -0.5916
 9946TIP3    H151253   1.544   5.522  15.065  0.4503  0.3001 -0.8502
 9946TIP3    H251254   1.540   5.385  15.001  0.4328 -1.1932  2.2399
 9947TIP3   OH251255   0.924   0.619  13.364  0.0639 -0.2328  0.0596
 9947TIP3    H151256   0.896   0.693  13.418 -1.7665  0.8905 -2.3468
 9947TIP3    H251257   0.987   0.658  13.303 -0.5872 -0.7688 -0.9437
 9948TIP3   OH251258   4.698   1.006   0.560 -0.6583 -0.0716 -0.2243
 9948TIP3    H151259   4.647   1.048   0.630 -0.6139  0.1121 -0.3026
 9948TIP3    H251260   4.756   1.075   0.528  0.3642 -0.5506  0.5582
 9949TIP3   OH251261   5.165   6.298  15.017 -0.0466 -0.1248 -0.0247
 9949TIP3    H151262   5.151   6.300  15.112  1.2841 -0.6075  0.1899
 9949TIP3    H251263   5.259   6.307  15.006 -0.2282  0.3087 -1.3291
 9950TIP3   OH251264   2.923   6.513   1.962  0.2152 -0.2470 -0.3482
 9950TIP3    H151265   2.922   6.427   2.005 -0.8145  0.5256  1.2604
 9950TIP3    H251266   2.956   6.497   1.874  2.1220 -1.9555  0.6508
 9951TIP3   OH251267   5.711   3.322  13.883 -0.1466  0.0680 -0.0526
 9951TIP3    H151268   5.764   3.400  13.868 -1.3616  0.8743 -0.2522
 9951TIP3    H251269   5.755   3.253  13.834  1.6362  0.3240  1.1415
 9952TIP3   OH251270   3.806   3.195  14.961  0.6051  0.1342  0.0937
 9952TIP3    H151271   3.790   3.248  14.883  0.0041 -3.0771 -2.0118
 9952TIP3    H251272   3.724   3.199  15.011 -0.3302 -0.9155 -1.3432
 9953TIP3   OH251273   6.861   6.188   2.780 -0.1028 -0.3733  0.0579
 9953TIP3    H151274   6.806   6.200   2.857  0.2939 -3.4451  0.8645
 9953TIP3    H251275   6.836   6.103   2.744  0.8859  0.2564 -2.2593
 9954TIP3   OH251276   0.544   1.790   1.546  0.2856  0.7801  0.3078
 9954TIP3    H151277   0.557   1.883   1.566  1.7785  0.4719  0.8182
 9954TIP3    H251278   0.573   1.745   1.625 -1.3610 -0.0910  0.4330
 9955TIP3   OH251279   4.322   3.704   1.631 -0.1616 -0.1126 -0.5766
 9955TIP3    H151280   4.373   3.663   1.700 -2.0951  0.7355  1.4260
 9955TIP3    H251281   4.379   3.772   1.596  0.3420  0.4061  1.1866
 9956TIP3   OH251282   2.210   3.404   0.530 -0.0182  0.1985  0.6592
 9956TIP3    H151283   2.157   3.332   0.564  0.4138  0.5539  2.1075
 9956TIP3    H251284   2.153   3.480   0.535 -0.4568 -0.0132 -0.8265
 9957TIP3   OH251285   4.756   1.745  14.484  0.1126 -0.8964  0.3517
 9957TIP3    H151286   4.725   1.826  14.443  0.7394 -1.0327 -0.4042
 9957TIP3    H251287   4.683   1.684  14.477 -0.1644 -0.5750  0.4194
 9958TIP3   OH251288   0.732   7.103   2.985 -0.5181 -0.1381 -0.5023
 9958TIP3    H151289   0.792   7.157   2.933  1.0594 -0.4480  0.9279
 9958TIP3    H251290   0.767   7.108   3.074 -3.6961  1.1472  0.7308
 9959TIP3   OH251291   2.952   3.625   0.189 -0.4262  0.5770  0.3092
 9959TIP3    H151292   2.934   3.676   0.110  0.5737  0.6552  0.1227
 9959TIP3    H251293   3.045   3.602   0.182 -0.7704 -0.9461  0.5875
 9960TIP3   OH251294   4.513   6.983  13.660 -0.7707 -0.0551 -0.0124
 9960TIP3    H151295   4.542   6.959  13.572  0.1761 -1.4721  0.6704
 9960TIP3    H251296   4.420   7.002  13.651 -0.3814  1.1230 -1.5776
 9961TIP3   OH251297   2.529   1.858  12.945  0.0490  0.1679 -0.3696
 9961TIP3    H151298   2.596   1.790  12.951  0.0383  0.4227  3.2890
 9961TIP3    H251299   2.575   1.933  12.908  0.8669 -0.7420 -1.2630
 9962TIP3   OH251300   1.242   0.187  14.800  0.1857  0.1381 -0.3733
 9962TIP3    H151301   1.327   0.143  14.806  0.3526  0.3610 -0.9685
 9962TIP3    H251302   1.257   0.275  14.836  0.6741  0.7890 -2.0906
 9963TIP3   OH251303   3.025   4.424  14.103  0.0285  0.1101 -0.0893
 9963TIP3    H151304   3.104   4.385  14.068 -0.0013  0.1301 -0.1809
 9963TIP3    H251305   3.016   4.507  14.055 -1.7305 -1.3068 -2.3313
 9964TIP3   OH251306   2.593   3.873   0.039  0.4238  0.3381  0.3139
 9964TIP3    H151307   2.555   3.786   0.031  0.2855  0.4371 -0.1358
 9964TIP3    H251308   2.554   3.909   0.118 -0.8188  0.6312 -0.4216
 9965TIP3   OH251309   0.945   6.081   3.976  0.4721 -0.2120 -0.4431
 9965TIP3    H151310   0.916   6.111   3.890 -0.3780 -0.4922 -0.2562
 9965TIP3    H251311   0.866   6.083   4.030  0.7378 -1.2491 -0.0018
 9966TIP3   OH251312   3.139   5.819  13.100 -0.1830  0.0498 -0.1702
 9966TIP3    H151313   3.116   5.900  13.054 -0.2498  0.4896  0.6406
 9966TIP3    H251314   3.056   5.786  13.135  0.0613  0.4109  0.7613
 9967TIP3   OH251315   4.526   3.318   0.729 -0.0403  0.6931 -1.0089
 9967TIP3    H151316   4.610   3.273   0.720  0.5241  1.3803  0.5985
 9967TIP3    H251317   4.469   3.253   0.770  0.5820  1.1741  0.6843
 9968TIP3   OH251318   3.988   5.810   1.324 -0.1302 -0.0192  0.4950
 9968TIP3    H151319   3.994   5.805   1.229  1.8616  1.3909  0.5246
 9968TIP3    H251320   4.079   5.807   1.354 -0.6444  1.2023  2.2612
 9969TIP3   OH251321   2.812   1.492  14.598  0.0765  0.1028 -0.9475
 9969TIP3    H151322   2.874   1.471  14.529  1.7809 -1.1260  0.8773
 9969TIP3    H251323   2.764   1.411  14.613 -0.3791  0.3972 -0.7992
 9970TIP3   OH251324   3.222   6.552   1.018  0.0644  0.0674  0.0788
 9970TIP3    H151325   3.316   6.536   1.015  0.0060 -0.2857  0.0961
 9970TIP3    H251326   3.195   6.521   1.104 -0.2389 -0.8268 -0.3232
 9971TIP3   OH251327   0.621   6.118   0.564 -0.9496 -0.7299  0.2042
 9971TIP3    H151328   0.600   6.031   0.530 -0.1696 -0.9822  0.3759
 9971TIP3    H251329   0.663   6.102   0.648  0.0345 -0.2266 -0.1810
 9972TIP3   OH251330   3.057   3.075   0.117  0.0393  0.5868  0.0449
 9972TIP3    H151331   3.093   3.137   0.180 -0.3071 -0.6532  1.4761
 9972TIP3    H251332   2.962   3.086   0.124  0.0309  2.2186 -2.0773
 9973TIP3   OH251333   3.487   1.884   4.145 -0.5471 -0.1324 -0.0166
 9973TIP3    H151334   3.560   1.904   4.086 -0.0874 -0.3351  0.4821
 9973TIP3    H251335   3.411   1.927   4.105  0.2341  1.7942  0.5595
 9974TIP3   OH251336   7.069   5.178   0.275 -0.3254  0.2645  0.5486
 9974TIP3    H151337   7.150   5.154   0.320 -0.0735 -1.7520 -0.9273
 9974TIP3    H251338   7.097   5.240   0.208  0.0417 -0.5682 -0.0778
 9975TIP3   OH251339   3.431   7.137   1.254 -0.0298  0.0796  0.5504
 9975TIP3    H151340   3.514   7.175   1.283 -0.5706  0.7163  1.3042
 9975TIP3    H251341   3.393   7.203   1.196  0.4314 -0.6261 -0.5755
 9976TIP3   OH251342   3.953   6.539  13.784  0.1984 -0.0249 -0.1886
 9976TIP3    H151343   3.897   6.604  13.827 -0.5027 -0.9868  0.3747
 9976TIP3    H251344   3.935   6.550  13.691  0.4028  0.8750 -0.1306
 9977TIP3   OH251345   1.169   4.118  15.240  0.2317  0.1943  0.0424
 9977TIP3    H151346   1.259   4.096  15.264  0.4564  0.5899 -0.4462
 9977TIP3    H251347   1.134   4.037  15.202  0.4033  0.0666  0.1514
 9978TIP3   OH251348   0.014   6.504  13.104  0.1612 -0.1355  0.7865
 9978TIP3    H151349   0.025   6.482  13.012  1.5669  2.2334  0.3453
 9978TIP3    H251350   0.087   6.462  13.148 -1.3518 -2.5495  1.0952
 9979TIP3   OH251351   0.593   4.719  13.599  0.3530 -0.1679  0.4280
 9979TIP3    H151352   0.684   4.736  13.573  0.2219  1.5270  1.0389
 9979TIP3    H251353   0.596   4.634  13.643  1.9478  0.6266  1.9145
 9980TIP3   OH251354   0.194   1.593  15.216 -0.0599 -0.5556 -0.0922
 9980TIP3    H151355   0.262   1.605  15.281 -0.0224 -0.1166 -0.2104
 9980TIP3    H251356   0.129   1.537  15.258  0.3771 -0.9829  0.0169
 9981TIP3   OH251357   5.203   1.528   1.235  0.0147  0.1437  0.1537
 9981TIP3    H151358   5.269   1.471   1.194 -0.0733  0.4752 -0.4565
 9981TIP3    H251359   5.248   1.612   1.247  0.2601 -0.1434  1.3848
 9982TIP3   OH251360   0.575   4.410  13.610 -0.0138  0.1853  0.3488
 9982TIP3    H151361   0.594   4.417  13.517 -0.2055 -0.2486  0.2754
 9982TIP3    H251362   0.485   4.376  13.614  0.1045 -0.0961  0.6869
 9983TIP3   OH251363   5.628   4.747   0.901  1.2317 -0.2423 -0.3570
 9983TIP3    H151364   5.680   4.699   0.966  1.7322  1.3025  0.4038
 9983TIP3    H251365   5.612   4.683   0.831  2.6188 -1.2630  0.2353
 9984TIP3   OH251366   5.015   0.986  13.231 -0.0005 -0.7233  0.3731
 9984TIP3    H151367   5.022   1.062  13.173  2.2389 -1.4199 -0.2870
 9984TIP3    H251368   4.922   0.983  13.254 -0.6538  0.4279 -1.9836
 9985TIP3   OH251369   1.616   3.934   0.686 -0.2202  0.4837 -0.4886
 9985TIP3    H151370   1.572   3.965   0.765  1.0216  0.8136  0.0860
 9985TIP3    H251371   1.677   4.004   0.662 -0.3425  0.2465 -1.5468
 9986TIP3   OH251372   3.712   2.554   1.274 -0.2546  0.2974 -0.1600
 9986TIP3    H151373   3.747   2.494   1.208 -0.9659 -1.5188  1.0687
 9986TIP3    H251374   3.780   2.559   1.341 -0.1667  0.9265 -0.2979
 9987TIP3   OH251375   2.174   3.864   3.079 -0.2793 -0.1333 -0.9374
 9987TIP3    H151376   2.129   3.919   3.015 -1.3222 -0.6602 -0.6788
 9987TIP3    H251377   2.182   3.919   3.157 -1.3223 -0.3170 -0.6788
 9988TIP3   OH251378   4.425   4.847   0.550 -0.1288  0.2210  0.4445
 9988TIP3    H151379   4.519   4.846   0.532  0.1221  1.0864  1.6234
 9988TIP3    H251380   4.414   4.786   0.623 -0.6524 -0.7270 -0.4098
 9989TIP3   OH251381   6.799   6.276   1.147 -0.1935 -0.1587  0.6742
 9989TIP3    H151382   6.864   6.331   1.104 -0.5110 -0.6733 -0.4823
 9989TIP3    H251383   6.837   6.188   1.144 -1.7296 -0.8087 -1.7232
 9990TIP3   OH251384   0.589   2.841  13.495  0.2882 -0.0073 -0.0565
 9990TIP3    H151385   0.681   2.829  13.518  0.8996  2.6691 -0.8852
 9990TIP3    H251386   0.565   2.924  13.538 -1.4351 -0.1540 -0.7166
 9991TIP3   OH251387   2.725   2.262   0.067 -0.3917 -0.4988 -0.1616
 9991TIP3    H151388   2.818   2.246   0.078 -0.4496  0.5483  2.1720
 9991TIP3    H251389   2.683   2.179   0.089 -0.1048 -0.4432  0.5911
 9992TIP3   OH251390   0.246   2.998  11.795  0.2937  0.1982  0.0407
 9992TIP3    H151391   0.334   3.016  11.827  0.7528 -2.3225  0.2803
 9992TIP3    H251392   0.190   3.009  11.871  0.5984  0.3246  0.2471
 9993TIP3   OH251393   0.894   5.817  14.977  0.4122  0.4385  0.2132
 9993TIP3    H151394   0.976   5.865  14.967  0.3887  0.3891 -0.2067
 9993TIP3    H251395   0.915   5.728  14.948 -0.2032  0.8117 -1.4017
 9994TIP3   OH251396   1.910   2.770  14.901  0.2295  0.5206  0.3067
 9994TIP3    H151397   1.947   2.776  14.989 -0.0673  1.3303  0.3775
 9994TIP3    H251398   1.911   2.676  14.881  1.3418  0.4343  0.7214
 9995TIP3   OH251399   1.513   4.697  13.699  0.6015 -0.1930  0.1399
 9995TIP3    H151400   1.557   4.781  13.697 -0.6760  0.5266  1.3309
 9995TIP3    H251401   1.470   4.690  13.613 -3.4714  2.7209  1.7703
 9996TIP3   OH251402   3.853   6.655   0.665 -0.0285  0.2796  0.7674
 9996TIP3    H151403   3.781   6.687   0.610  1.0320 -0.6049 -1.2024
 9996TIP3    H251404   3.926   6.714   0.645  0.4403 -0.2127  1.0215
 9997TIP3   OH251405   6.544   0.340  13.226 -0.0672 -0.8360  0.0182
 9997TIP3    H151406   6.454   0.366  13.205  0.2737 -0.2672 -0.7685
 9997TIP3    H251407   6.553   0.360  13.320  0.7506  3.7726 -0.9016
 9998TIP3   OH251408   1.382   4.452  14.915  0.3015 -0.0164  0.4096
 9998TIP3    H151409   1.358   4.518  14.850 -0.5472  1.4122  2.1375
 9998TIP3    H251410   1.447   4.398  14.871 -1.1509  0.1603 -2.0476
 9999TIP3   OH251411   1.498   4.440   1.970  0.0741 -0.8586 -0.0199
 9999TIP3    H151412   1.407   4.460   1.948  0.4124 -0.0574 -0.6932
 9999TIP3    H251413   1.549   4.513   1.935  0.6878  0.1784  2.9488
10000TIP3   OH251414   4.843   2.962   0.013  0.6219 -0.1192 -0.0643
10000TIP3    H151415   4.873   2.876   0.042 -1.9247 -1.2079 -0.5226
10000TIP3    H251416   4.897   2.982  -0.064 -0.1136 -2.2305 -1.1660
10001TIP3   OH251417   6.250   6.384  14.688  0.8413 -0.2720 -0.0212
10001TIP3    H151418   6.206   6.370  14.604  0.7748 -0.1964  0.0011
10001TIP3    H251419   6.179   6.396  14.750  0.9173  1.0522 -0.1920
10002TIP3   OH251420   2.809   4.592  13.535  0.4403 -0.1924 -0.4571
10002TIP3    H151421   2.765   4.676  13.528 -0.2116 -0.2388  2.3820
10002TIP3    H251422   2.739   4.530  13.559  1.1908 -1.2084 -0.8384
10003TIP3   OH251423   4.862   2.674  11.314  0.2313 -0.9497  0.2313
10003TIP3    H151424   4.833   2.686  11.223 -0.0536  1.5646  0.6224
10003TIP3    H251425   4.951   2.639  11.306  0.2978 -0.5180 -1.0086
10004TIP3   OH251426   3.985   3.200   0.714  0.0686  0.3968 -0.5627
10004TIP3    H151427   3.951   3.286   0.738 -0.1351  0.1143  0.1795
10004TIP3    H251428   3.926   3.169   0.646  0.5539  1.1345 -1.3377
10005TIP3   OH251429   4.980   2.830   0.671 -0.0700 -0.2385 -1.2253
10005TIP3    H151430   5.062   2.845   0.718 -0.3574 -1.5959 -0.2844
10005TIP3    H251431   4.957   2.916   0.636  0.5967  0.6076  0.3715
10006TIP3   OH251432   2.038   5.150  11.824 -0.7758  0.4894  0.0064
10006TIP3    H151433   2.133   5.152  11.814 -0.8544  0.0108 -0.9427
10006TIP3    H251434   2.005   5.164  11.735 -1.5936  0.6805  0.3361
10007TIP3   OH251435   5.833   5.074   0.356 -0.0403  0.2596 -0.8654
10007TIP3    H151436   5.915   5.094   0.401 -1.5471 -0.2940  2.2312
10007TIP3    H251437   5.770   5.136   0.392 -1.7542 -1.5289 -0.7339
10008TIP3   OH251438   3.458   1.700  10.368 -0.4772  0.0125 -0.4542
10008TIP3    H151439   3.534   1.645  10.349  0.4763  0.8471  0.8775
10008TIP3    H251440   3.469   1.776  10.312 -0.5645 -0.0678 -0.5817
10009TIP3   OH251441   5.351   2.719  12.225  0.0273 -0.9978 -0.8190
10009TIP3    H151442   5.333   2.813  12.225  2.5786 -0.4048  2.9052
10009TIP3    H251443   5.443   2.713  12.201  0.1188 -2.4933 -0.1253
10010TIP3   OH251444   6.816   1.016  12.811 -0.3972 -0.0785  0.1610
10010TIP3    H151445   6.726   0.985  12.802 -1.1153  1.6897  1.1677
10010TIP3    H251446   6.816   1.104  12.774  0.3294  0.9127  2.4151
10011TIP3   OH251447   4.586   3.405  13.484  0.3105 -0.0257  0.3958
10011TIP3    H151448   4.516   3.389  13.547 -0.3563  0.5368 -0.1950
10011TIP3    H251449   4.565   3.489  13.445  0.6511 -0.4276 -0.6740
10012TIP3   OH251450   2.500   5.433  15.285  0.1353  0.6493 -0.1454
10012TIP3    H151451   2.501   5.360  15.347 -2.7115  0.4098 -0.3243
10012TIP3    H251452   2.501   5.393  15.199  0.9228  0.9009 -0.2582
10013TIP3   OH251453   5.798   4.337   0.971  1.0511 -0.3290  0.0814
10013TIP3    H151454   5.732   4.283   0.929  0.0550  1.5468 -0.8235
10013TIP3    H251455   5.875   4.328   0.915  0.6200 -0.1154 -0.5510
10014TIP3   OH251456   3.667   2.414   1.037 -0.4418  0.0669  0.0293
10014TIP3    H151457   3.603   2.434   0.968 -1.6316  1.4607  1.4882
10014TIP3    H251458   3.647   2.324   1.062 -0.3394 -0.2732 -1.0882
10015TIP3   OH251459   2.026   4.029   4.985  0.1225  0.1303  0.3494
10015TIP3    H151460   2.069   3.967   4.926 -0.5545  0.7620 -0.8133
10015TIP3    H251461   2.069   4.015   5.070  0.9262 -0.9533 -0.2294
10016TIP3   OH251462   4.680   3.709   0.702  0.2372  0.3128 -0.8558
10016TIP3    H151463   4.629   3.743   0.776  1.2339 -1.7193  0.8428
10016TIP3    H251464   4.617   3.663   0.648 -0.2016  0.1630 -0.2238
10017TIP3   OH251465   2.711   0.934   1.906 -0.5029 -0.4621  0.4081
10017TIP3    H151466   2.783   0.981   1.864 -1.1493  1.6931  1.6169
10017TIP3    H251467   2.666   0.890   1.834  1.2266 -0.7452 -0.5163
10018TIP3   OH251468   5.610   2.913  14.327  0.0621 -0.1604 -0.4703
10018TIP3    H151469   5.563   2.984  14.284  0.7674  0.3511 -0.3950
10018TIP3    H251470   5.545   2.872  14.384 -0.0592  1.1530  0.3673
10019TIP3   OH251471   1.736   5.839   0.996  0.5309 -0.2531  0.0425
10019TIP3    H151472   1.779   5.759   0.965  1.5912  0.2541  0.1591
10019TIP3    H251473   1.804   5.885   1.044 -0.0857  0.6946  0.0225
10020TIP3   OH251474   3.857   0.817   1.157 -0.2396  0.3245 -0.6312
10020TIP3    H151475   3.885   0.900   1.119  0.3555 -0.0015 -0.9137
10020TIP3    H251476   3.782   0.839   1.211  0.8990  1.2993  0.5826
10021TIP3   OH251477   2.614   5.140   0.982  0.4803  0.1117 -0.2669
10021TIP3    H151478   2.526   5.126   1.017  0.4595  1.3157  0.2069
10021TIP3    H251479   2.603   5.211   0.918  1.1989  0.7008  0.2516
10022TIP3   OH251480   3.855   5.753  14.998 -0.3548  0.2585 -0.4938
10022TIP3    H151481   3.851   5.732  14.905  0.8597 -1.4071 -0.1878
10022TIP3    H251482   3.804   5.684  15.041  1.4721 -0.6342  0.2959
10023TIP3   OH251483   4.803   6.969  13.459 -0.0831 -0.2903  0.3044
10023TIP3    H151484   4.833   7.013  13.380  0.5634 -2.4564 -0.7009
10023TIP3    H251485   4.727   6.919  13.431 -0.2680 -0.5217  1.2097
10024TIP3   OH251486   3.041   7.152  13.719  0.0612 -0.4810  0.5363
10024TIP3    H151487   3.074   7.233  13.681 -2.1707 -0.1571 -0.7417
10024TIP3    H251488   3.024   7.095  13.644  1.2164 -2.0061  1.3929
10025TIP3   OH251489   4.603   0.818  14.746  0.2591  0.0960 -0.7220
10025TIP3    H151490   4.632   0.856  14.663  0.5626  1.9274  0.1977
10025TIP3    H251491   4.512   0.795  14.731  1.1331 -2.4209 -2.5198
10026TIP3   OH251492   6.151   4.090   0.057 -0.5019 -0.1432  0.0180
10026TIP3    H151493   6.238   4.128   0.060 -1.3238  1.7414  0.4625
10026TIP3    H251494   6.132   4.079  -0.036  1.0379 -2.5714 -0.0496
10027TIP3   OH251495   0.762   4.539   1.940 -0.2438  0.4149 -0.2824
10027TIP3    H151496   0.826   4.609   1.930  0.9015 -0.1658  2.5651
10027TIP3    H251497   0.814   4.462   1.965 -1.8280 -0.6352 -0.1161
10028TIP3   OH251498   6.976   3.781   1.214 -0.1776 -0.0748  0.5489
10028TIP3    H151499   6.902   3.725   1.190  0.6034 -0.8347 -0.1288
10028TIP3    H251500   7.005   3.748   1.299 -1.6496  1.3008  1.6322
10029TIP3   OH251501   3.009   5.090  13.623 -0.5307 -0.0429  0.1737
10029TIP3    H151502   3.055   5.133  13.550 -1.1489 -0.4016 -0.4402
10029TIP3    H251503   3.074   5.030  13.660 -0.2420  0.0584 -0.1576
10030TIP3   OH251504   0.497   5.326  14.416 -0.2979 -0.0149 -0.1257
10030TIP3    H151505   0.438   5.253  14.400  1.0153 -0.7284 -1.9273
10030TIP3    H251506   0.537   5.343  14.330  1.2307  1.2146  0.8097
10031TIP3   OH251507   4.402   1.007  13.109 -0.0401  0.4402 -0.3545
10031TIP3    H151508   4.353   0.975  13.033  0.7581 -0.8537 -0.3424
10031TIP3    H251509   4.476   1.056  13.071  0.1572  0.0996 -0.4120
10032TIP3   OH251510   5.379   5.657  13.285  0.1878  0.4354 -0.1714
10032TIP3    H151511   5.464   5.666  13.240  0.3323 -0.9340 -0.1961
10032TIP3    H251512   5.396   5.595  13.356 -0.2655  1.8932  1.2248
10033TIP3   OH251513   2.165   2.771  11.097 -0.0445  0.5796 -0.4357
10033TIP3    H151514   2.213   2.853  11.094 -1.4921  1.4805  0.6457
10033TIP3    H251515   2.197   2.726  11.176 -0.2736  0.7533 -0.2426
10034TIP3   OH251516   6.719   3.516  12.956 -0.2099  0.0299  0.4813
10034TIP3    H151517   6.772   3.503  13.035  0.6586 -4.9275 -0.7688
10034TIP3    H251518   6.629   3.517  12.987  0.2664  1.5317  1.8719
10035TIP3   OH251519   4.365   6.560   1.276 -0.1203 -0.0334 -0.6706
10035TIP3    H151520   4.405   6.518   1.200 -0.8351  0.8249 -1.5326
10035TIP3    H251521   4.303   6.495   1.309 -0.0529 -0.2806 -1.0230
10036TIP3   OH251522   4.433   2.934  12.365  0.1071 -0.4534 -0.3066
10036TIP3    H151523   4.501   2.983  12.320  0.6552 -1.9993 -1.1877
10036TIP3    H251524   4.478   2.890  12.437  0.0613 -1.4807 -0.8928
10037TIP3   OH251525   3.726   3.832   1.091 -0.1406 -1.0647 -0.6784
10037TIP3    H151526   3.742   3.807   1.182 -0.3550  0.2243 -0.2640
10037TIP3    H251527   3.637   3.801   1.073 -1.1891  1.1009  0.4831
10038TIP3   OH251528   1.596   3.367   0.579  0.1284 -0.3883  0.3513
10038TIP3    H151529   1.582   3.373   0.484 -0.4243  0.7562  0.5011
10038TIP3    H251530   1.642   3.448   0.601 -0.8041 -0.1094  1.2616
10039TIP3   OH251531   0.239   5.240  11.318  0.1990  0.7555 -0.4494
10039TIP3    H151532   0.179   5.292  11.371 -0.5288  0.6930 -1.2083
10039TIP3    H251533   0.309   5.215  11.379 -0.4848  0.9158  0.4099
10040TIP3   OH251534   0.132   0.501   1.247 -0.2128 -0.2473 -0.1296
10040TIP3    H151535   0.091   0.527   1.165 -0.8209  0.3714  0.3621
10040TIP3    H251536   0.197   0.568   1.265  0.2548 -0.6390 -0.3481
10041TIP3   OH251537   5.900   5.056   2.728 -0.3967  0.2556  0.7230
10041TIP3    H151538   5.864   5.006   2.802  1.8833 -1.9323  0.4000
10041TIP3    H251539   5.975   5.103   2.764  1.0012 -1.1739 -0.2810
10042TIP3   OH251540   0.515   2.255   0.157 -0.1528  0.2880  0.2217
10042TIP3    H151541   0.557   2.207   0.228 -2.6853  1.3195  2.5046
10042TIP3    H251542   0.449   2.195   0.123 -0.6192  0.6900  0.4074
10043TIP3   OH251543   0.445   2.146  10.713  0.2960  0.0872 -0.2773
10043TIP3    H151544   0.512   2.082  10.738  0.0309  0.3383  1.1216
10043TIP3    H251545   0.459   2.160  10.619  2.0903  0.0044 -0.0390
10044TIP3   OH251546   1.592   5.680  13.282 -0.2697 -0.0492 -0.6362
10044TIP3    H151547   1.498   5.700  13.285 -0.2155  0.2777 -0.9404
10044TIP3    H251548   1.612   5.678  13.188 -0.0758 -0.6185 -0.5795
10045TIP3   OH251549   5.405   7.151   0.611 -0.5199 -0.2101 -0.0372
10045TIP3    H151550   5.335   7.189   0.559 -0.6551  1.4901  1.3385
10045TIP3    H251551   5.381   7.170   0.702  2.0918  1.0810  0.4308
10046TIP3   OH251552   1.318   4.558   3.589 -0.0989 -0.3385 -0.2185
10046TIP3    H151553   1.303   4.511   3.507 -0.9942 -1.1538  0.4099
10046TIP3    H251554   1.303   4.650   3.567 -2.3146 -0.7386 -0.5143
10047TIP3   OH251555   5.717   6.291  14.785 -0.6890 -0.0779 -0.4719
10047TIP3    H151556   5.700   6.382  14.809 -1.4052 -0.2355 -0.3745
10047TIP3    H251557   5.712   6.291  14.689  1.0510  0.3240 -0.5886
10048TIP3   OH251558   6.260   5.243  12.666 -0.6348  0.1363 -0.0696
10048TIP3    H151559   6.250   5.256  12.760  0.6021 -0.1644  0.1140
10048TIP3    H251560   6.303   5.323  12.635 -0.5823  0.0211 -0.2959
10049TIP3   OH251561   2.463   2.368  12.260 -0.0514  0.0282  0.3574
10049TIP3    H151562   2.539   2.407  12.303  1.2683 -0.3058 -1.6159
10049TIP3    H251563   2.477   2.273  12.268  1.1315 -0.0671 -2.2989
10050TIP3   OH251564   0.206   0.132  15.311  0.5980 -0.3221 -0.6743
10050TIP3    H151565   0.241   0.089  15.388 -1.9860 -1.2568  0.0251
10050TIP3    H251566   0.198   0.062  15.246  0.1430 -0.1023 -0.8584
10051TIP3   OH251567   5.250   2.776   2.161 -0.1988 -0.1456  0.4521
10051TIP3    H151568   5.316   2.759   2.094  0.7241  1.6967  0.8566
10051TIP3    H251569   5.226   2.868   2.148 -3.2323 -0.9652 -0.1526
10052TIP3   OH251570   6.041   6.724   0.288  0.1348  0.1906  0.4187
10052TIP3    H151571   6.012   6.643   0.247  1.7012 -0.4390  0.5166
10052TIP3    H251572   6.122   6.747   0.242 -1.5729  3.0596 -1.3049
10053TIP3   OH251573   6.318   2.027  13.485  0.4278 -0.5002  0.7707
10053TIP3    H151574   6.252   1.984  13.540  0.5947 -0.2521  1.1703
10053TIP3    H251575   6.347   1.959  13.424  1.3524 -1.2176  1.9981
10054TIP3   OH251576   4.166   3.794   3.776 -0.1396  0.9928  0.3447
10054TIP3    H151577   4.241   3.853   3.768  0.7929 -0.2528 -0.2211
10054TIP3    H251578   4.205   3.709   3.799 -1.4063  0.4260  0.4206
10055TIP3   OH251579   6.242   4.196   0.389 -0.3761 -0.3173  0.4573
10055TIP3    H151580   6.246   4.102   0.404 -1.6788 -0.7402 -1.5587
10055TIP3    H251581   6.150   4.212   0.365 -0.3501  1.5854  1.5531
10056TIP3   OH251582   4.857   5.234   2.194  0.3994  0.4860 -0.0061
10056TIP3    H151583   4.873   5.328   2.196 -1.7250  0.8774  0.6099
10056TIP3    H251584   4.762   5.227   2.181  0.3488 -1.5442  1.2668
10057TIP3   OH251585   0.418   4.222  12.554 -0.4729 -0.2685 -0.9757
10057TIP3    H151586   0.362   4.257  12.624  0.6557 -0.2332 -0.0767
10057TIP3    H251587   0.399   4.278  12.478 -0.3548  0.8710 -0.1816
10058TIP3   OH251588   4.995   0.912  12.397  0.0514 -0.3427 -0.0307
10058TIP3    H151589   4.903   0.905  12.423  0.6131  0.0350  2.1496
10058TIP3    H251590   5.018   1.004  12.410  1.6084 -1.0616  2.5753
10059TIP3   OH251591   0.069   6.367   1.914  0.3665  0.2230 -0.2520
10059TIP3    H151592   0.017   6.440   1.881  0.5168  0.2318 -0.4715
10059TIP3    H251593   0.057   6.298   1.848  0.5289  0.1807 -0.2358
10060TIP3   OH251594   7.098   4.453   0.871  0.1004  0.4405 -0.3376
10060TIP3    H151595   7.188   4.435   0.843 -0.6680 -2.5640 -1.0800
10060TIP3    H251596   7.052   4.369   0.860 -2.4676  1.5613  1.3196
10061TIP3   OH251597   3.399   4.764   4.871 -0.7530 -0.2092  0.1794
10061TIP3    H151598   3.435   4.676   4.865  0.9301  0.5035 -0.6660
10061TIP3    H251599   3.423   4.805   4.788  0.1924  1.6496  1.3237
10062TIP3   OH251600   3.916   2.297  14.562  0.3214  0.3118  0.9558
10062TIP3    H151601   3.836   2.247  14.579  0.7514 -0.6070  0.3242
10062TIP3    H251602   3.897   2.344  14.480  0.3113  0.3526  0.9816
10063TIP3   OH251603   1.783   0.063   1.146  0.5609 -0.0449 -0.3388
10063TIP3    H151604   1.810  -0.028   1.153  0.2810 -0.0391  0.9185
10063TIP3    H251605   1.864   0.113   1.157  0.3135 -0.0725  1.9173
10064TIP3   OH251606   1.905   5.848   2.745  0.4387  0.1182  0.7984
10064TIP3    H151607   1.996   5.835   2.773  1.6943 -2.6122 -4.0838
10064TIP3    H251608   1.906   5.934   2.702  0.7526 -0.0585  0.4568
10065TIP3   OH251609   2.767   4.057   4.996 -0.6345  0.0541  0.4535
10065TIP3    H151610   2.806   4.107   4.924 -1.9952 -0.2137 -0.4992
10065TIP3    H251611   2.678   4.090   5.002 -1.3387 -1.7780  0.2640
10066TIP3   OH251612   6.972   0.504   0.697  0.2472 -0.3152 -0.0927
10066TIP3    H151613   6.919   0.425   0.704  1.8492 -1.3114  0.9135
10066TIP3    H251614   6.917   0.565   0.647 -1.0863 -1.9668 -0.6840
10067TIP3   OH251615   6.287   4.114  12.464 -0.0598 -0.1824  0.0627
10067TIP3    H151616   6.218   4.171  12.498 -1.3450 -2.0448  0.6867
10067TIP3    H251617   6.349   4.106  12.537  0.0168  0.2398  0.0464
10068TIP3   OH251618   0.230   6.912   1.439  0.4055  0.6742 -0.0973
10068TIP3    H151619   0.244   6.950   1.526 -0.8647  0.3129  0.2687
10068TIP3    H251620   0.312   6.866   1.420  1.2849  2.0431  0.2272
10069TIP3   OH251621   7.089   0.261  14.728  0.2091 -0.4152  0.6541
10069TIP3    H151622   7.075   0.270  14.633  0.2464 -0.2593  0.6621
10069TIP3    H251623   7.163   0.319  14.747 -1.5436  1.7379  1.2307
10070TIP3   OH251624   3.986   1.816  15.047 -0.0769 -0.3118 -0.2452
10070TIP3    H151625   4.061   1.815  14.987 -0.5579  0.0246 -0.8608
10070TIP3    H251626   3.911   1.793  14.992 -0.4204 -0.6964  0.3755
10071TIP3   OH251627   2.350   3.179   1.351  0.4266 -0.3479  0.2082
10071TIP3    H151628   2.355   3.084   1.338  0.0541 -0.7399  2.8004
10071TIP3    H251629   2.261   3.195   1.382  0.5857  0.8341  0.0863
10072TIP3   OH251630   2.784   5.341   3.254  0.3812 -0.3242 -0.2969
10072TIP3    H151631   2.829   5.302   3.180 -0.7189  0.4511 -1.3888
10072TIP3    H251632   2.824   5.428   3.264  0.8383 -0.6001  0.3103
10073TIP3   OH251633   3.179   0.474   1.204 -0.0225 -0.6460 -0.3876
10073TIP3    H151634   3.263   0.511   1.229  0.7127 -1.2812 -1.8337
10073TIP3    H251635   3.139   0.541   1.148  0.5398 -1.3011 -1.5796
10074TIP3   OH251636   3.451   6.348  12.274  0.1846 -0.0712 -0.3356
10074TIP3    H151637   3.546   6.352  12.282  0.1379 -2.7452  2.3403
10074TIP3    H251638   3.435   6.308  12.189  1.4170  0.9453 -1.0582
10075TIP3   OH251639   0.261   0.511  14.001  0.1781 -0.5050  0.0022
10075TIP3    H151640   0.189   0.490  13.941  0.4191 -0.0870 -0.4406
10075TIP3    H251641   0.314   0.575  13.953  1.2877 -1.3998 -0.0167
10076TIP3   OH251642   3.040   3.629  10.591  0.1771  0.5860 -0.5563
10076TIP3    H151643   2.999   3.699  10.539  0.1277  0.1471 -1.1150
10076TIP3    H251644   3.126   3.616  10.550  0.5424  0.9257  0.0939
10077TIP3   OH251645   2.845   0.550  11.851  0.0337  0.1192 -1.2698
10077TIP3    H151646   2.867   0.477  11.793  2.3194 -1.0888  1.0488
10077TIP3    H251647   2.762   0.583  11.816 -0.2445 -2.5520 -3.3309
10078TIP3   OH251648   0.090   4.493   1.999 -0.4618  0.6233  0.4081
10078TIP3    H151649   0.052   4.579   1.978 -1.7558 -0.1006 -0.2669
10078TIP3    H251650   0.140   4.470   1.921 -1.5670 -0.0225 -0.1248
10079TIP3   OH251651   6.590   1.981  14.484 -0.4324 -0.5441  0.1061
10079TIP3    H151652   6.554   1.999  14.571 -1.2224  2.0806 -0.7008
10079TIP3    H251653   6.517   1.997  14.424  0.6314 -0.3498 -1.1631
10080TIP3   OH251654   6.892   5.402   1.440 -0.2818  0.3834  0.6474
10080TIP3    H151655   6.980   5.419   1.472  0.0766 -0.1058 -0.0522
10080TIP3    H251656   6.855   5.338   1.502  1.1082 -2.0678 -0.9383
10081TIP3   OH251657   2.262   3.893   3.763 -0.2085 -0.5614 -0.2431
10081TIP3    H151658   2.194   3.960   3.771  1.0013  0.7186 -0.5719
10081TIP3    H251659   2.311   3.917   3.685  2.0019 -0.2181  1.2225
10082TIP3   OH251660   6.654   5.997  14.456 -0.1772 -0.3690  0.5065
10082TIP3    H151661   6.666   5.936  14.528 -4.6735 -0.7856  1.0742
10082TIP3    H251662   6.651   5.942  14.378 -0.5662 -0.5296  0.6285
10083TIP3   OH251663   1.042   6.129   2.583 -0.0601  0.1784 -0.4450
10083TIP3    H151664   1.070   6.041   2.555  0.8298  0.3905 -0.2301
10083TIP3    H251665   1.122   6.170   2.617 -0.8456  0.4105  1.1604
10084TIP3   OH251666   1.541   6.571   1.121  0.2844 -0.4477  0.2774
10084TIP3    H151667   1.549   6.565   1.026 -0.3891  1.7658  0.0374
10084TIP3    H251668   1.449   6.553   1.139  0.3652 -0.6595  0.4751
10085TIP3   OH251669   1.806   4.341   1.556  0.3218 -0.2043 -0.1523
10085TIP3    H151670   1.728   4.363   1.505 -0.0373 -0.3588  0.3214
10085TIP3    H251671   1.807   4.246   1.558 -0.5747 -0.1913  1.4929
10086TIP3   OH251672   1.363   6.804  14.904  0.8628 -0.0119  0.0767
10086TIP3    H151673   1.456   6.788  14.885  0.4424 -0.7820 -1.4373
10086TIP3    H251674   1.317   6.746  14.843 -0.6323  1.4823 -0.2388
10087TIP3   OH251675   6.634   3.277  14.582 -1.0110 -0.4122 -0.4278
10087TIP3    H151676   6.636   3.256  14.675 -0.0907 -2.7957 -0.9612
10087TIP3    H251677   6.544   3.263  14.556 -1.9858  3.1500  0.6833
10088TIP3   OH251678   4.447   6.523  11.403 -0.3219 -0.2999 -0.7312
10088TIP3    H151679   4.542   6.515  11.390 -0.2095 -1.0512  0.4166
10088TIP3    H251680   4.423   6.604  11.359  1.4118  1.5877  1.6638
10089TIP3   OH251681   5.232   3.635  12.603 -0.4637 -0.7354  0.2009
10089TIP3    H151682   5.149   3.683  12.604 -0.1391 -0.1762  1.1214
10089TIP3    H251683   5.224   3.572  12.674  0.5833  0.5342  1.4781
10090TIP3   OH251684   6.315   5.710  13.021  0.3423  0.7775  0.3431
10090TIP3    H151685   6.398   5.755  13.003  0.1612  1.2825  0.7780
10090TIP3    H251686   6.334   5.618  13.004  0.7517  0.9995 -0.4299
10091TIP3   OH251687   3.518   1.043  14.931 -0.4930  0.8991 -0.2997
10091TIP3    H151688   3.539   1.099  14.856  1.7755 -0.1220 -0.4762
10091TIP3    H251689   3.587   1.060  14.994 -0.9089 -0.2105  0.4795
10092TIP3   OH251690   2.742   5.385   2.311 -0.1731 -0.1228  0.2679
10092TIP3    H151691   2.707   5.370   2.399  0.9266  0.2404  0.7909
10092TIP3    H251692   2.701   5.467   2.283  0.4960  0.4757  1.0081
10093TIP3   OH251693   0.697   6.525   2.990  0.4029 -0.1275 -0.3413
10093TIP3    H151694   0.730   6.609   2.960 -1.3935  0.7310  0.0254
10093TIP3    H251695   0.602   6.529   2.974  0.1706 -1.6996  0.5430
10094TIP3   OH251696   4.564   0.930   1.356 -0.7375 -1.0410 -0.3949
10094TIP3    H151697   4.526   0.926   1.444 -0.8305  1.3089 -0.2886
10094TIP3    H251698   4.656   0.908   1.369 -0.4508  0.5839  0.5448
10095TIP3   OH251699   5.417   1.749  14.144  0.0520 -0.3747  0.6319
10095TIP3    H151700   5.384   1.755  14.054  1.1587  2.8906  0.3912
10095TIP3    H251701   5.505   1.712  14.135  1.0522  2.0461  0.1029
10096TIP3   OH251702   1.059   2.690  14.110 -0.2439 -0.1643  0.5018
10096TIP3    H151703   1.116   2.670  14.185 -0.3031  0.8186  0.8150
10096TIP3    H251704   0.970   2.683  14.146 -0.2612  0.8638  0.6740
10097TIP3   OH251705   0.664   0.206  14.092 -0.2508  0.2971  0.5353
10097TIP3    H151706   0.626   0.263  14.158 -0.8434  0.3984  0.1165
10097TIP3    H251707   0.680   0.263  14.017 -1.0562 -0.1240  0.0372
10098TIP3   OH251708   5.862   0.583  13.341 -0.1966  0.2300  0.3132
10098TIP3    H151709   5.806   0.567  13.417 -0.0360  1.2411  0.6506
10098TIP3    H251710   5.937   0.631  13.377 -0.2076  0.8637 -0.5159
10099TIP3   OH251711   6.042   4.316   2.205 -0.7545 -0.4166 -0.2193
10099TIP3    H151712   5.991   4.259   2.146  0.1023 -1.8597  0.4151
10099TIP3    H251713   6.132   4.310   2.172 -0.9658  2.1955 -1.3905
10100TIP3   OH251714   5.329   3.587   1.705 -0.1893  0.8245  0.1172
10100TIP3    H151715   5.424   3.582   1.717 -0.0653 -2.4477 -1.7492
10100TIP3    H251716   5.318   3.622   1.616 -0.7273  1.3220  0.3783
10101TIP3   OH251717   0.174   0.338  12.048 -0.3991 -0.3901  0.4587
10101TIP3    H151718   0.265   0.363  12.032  0.0706 -0.0902  3.3253
10101TIP3    H251719   0.126   0.420  12.050 -0.4652 -0.4303  0.5199
10102TIP3   OH251720   2.995   7.015  13.174  0.0063  0.4391  0.7589
10102TIP3    H151721   2.991   7.040  13.266  0.9570  2.2407  0.3221
10102TIP3    H251722   3.020   7.095  13.128 -0.3665 -0.4633 -1.0619
10103TIP3   OH251723   1.456   6.367  13.292 -0.4684 -0.6243  0.1354
10103TIP3    H151724   1.462   6.286  13.341 -0.2650 -1.7010 -1.6277
10103TIP3    H251725   1.480   6.435  13.355  3.6016 -2.2976  0.5913
10104TIP3   OH251726   4.762   0.405  13.135  0.0188 -0.4873 -0.4279
10104TIP3    H151727   4.817   0.482  13.146 -2.2647  1.0712  0.4154
10104TIP3    H251728   4.824   0.332  13.130  2.2232  1.4044 -1.5725
10105TIP3   OH251729   0.024   3.034  12.236  0.0846 -0.3075  0.3889
10105TIP3    H151730  -0.019   2.949  12.226  0.4342 -0.7567  2.5114
10105TIP3    H251731   0.014   3.056  12.328 -0.9791  2.5225 -0.3297
10106TIP3   OH251732   3.796   1.800  14.773 -0.2345 -0.1510 -0.1028
10106TIP3    H151733   3.809   1.712  14.736 -0.4690  0.4340 -1.6162
10106TIP3    H251734   3.840   1.858  14.711  0.0971  0.7966  0.9999
10107TIP3   OH251735   3.207   3.855  14.034  0.3886  0.0305  0.6659
10107TIP3    H151736   3.118   3.834  14.004  0.1082  1.5985  0.3613
10107TIP3    H251737   3.261   3.784  14.000 -0.6992 -0.7519  0.5549
10108TIP3   OH251738   5.369   5.452  10.431 -0.6189  0.0064  0.5076
10108TIP3    H151739   5.349   5.525  10.490 -0.0713 -1.0011  1.9603
10108TIP3    H251740   5.432   5.488  10.368  0.2251  0.5740  1.6715
10109TIP3   OH251741   3.876   6.139  10.383  0.2550  0.4540  0.1079
10109TIP3    H151742   3.922   6.074  10.330 -0.6026 -0.0325 -0.0531
10109TIP3    H251743   3.851   6.092  10.462  1.9616  1.3088  1.1810
10110TIP3   OH251744   3.374   5.355   2.774  0.2829 -0.0566 -0.4097
10110TIP3    H151745   3.361   5.266   2.741  1.4294 -0.0442 -0.9422
10110TIP3    H251746   3.373   5.345   2.870  0.3529 -0.6329 -0.4647
10111TIP3   OH251747   2.629   0.344   1.230  0.1689  0.2666  0.6021
10111TIP3    H151748   2.559   0.330   1.167  0.2739 -1.5690  0.8628
10111TIP3    H251749   2.587   0.336   1.316 -0.2478  4.1035  0.8451
10112TIP3   OH251750   1.723   4.509  12.778 -0.8250 -0.1994  0.4730
10112TIP3    H151751   1.649   4.503  12.717  0.1072  1.7529 -0.9006
10112TIP3    H251752   1.792   4.459  12.737 -0.0637  1.4535 -0.3055
10113TIP3   OH251753   3.783   6.372  14.019 -0.7155 -0.3091 -0.0363
10113TIP3    H151754   3.702   6.411  13.987 -0.7715 -0.4020 -0.0064
10113TIP3    H251755   3.800   6.416  14.103  1.6258  2.9524 -2.1132
10114TIP3   OH251756   1.452   6.088  15.272  0.6249  0.0573  0.0736
10114TIP3    H151757   1.369   6.116  15.235  0.5163 -0.8782 -0.4070
10114TIP3    H251758   1.434   6.003  15.311  1.5754 -0.6230 -0.9270
10115TIP3   OH251759   1.472   5.437  15.375 -0.0211  0.3201 -0.1674
10115TIP3    H151760   1.527   5.497  15.425 -0.5009  0.0165  0.7188
10115TIP3    H251761   1.533   5.368  15.346 -0.0050 -0.2632  1.2008
10116TIP3   OH251762   0.770   0.088   5.148  0.0849  0.0186  0.1487
10116TIP3    H151763   0.751   0.167   5.097  0.2934  1.1040  1.7156
10116TIP3    H251764   0.683   0.054   5.171 -0.0046 -0.1291 -0.3961
10117TIP3   OH251765   5.013   0.278   1.296  0.2968 -0.0817  0.2830
10117TIP3    H151766   4.975   0.319   1.218 -0.0328  0.0709  0.5208
10117TIP3    H251767   4.990   0.186   1.288  0.6000 -0.1342  0.0025
10118TIP3   OH251768   2.494   4.533   2.096 -0.1846  0.8056 -0.0838
10118TIP3    H151769   2.571   4.538   2.153 -1.1066  1.7657  1.1136
10118TIP3    H251770   2.495   4.615   2.047 -0.0405  0.4865 -0.6259
10119TIP3   OH251771   5.128   5.529  13.012  0.5584 -0.3234 -0.2582
10119TIP3    H151772   5.118   5.454  12.954 -0.4510  0.4336 -1.0901
10119TIP3    H251773   5.219   5.557  13.000  1.6418 -2.7335  1.7382
10120TIP3   OH251774   5.479   4.111  13.696  0.3552 -0.2269  0.1745
10120TIP3    H151775   5.457   4.019  13.705 -0.6995 -0.0416 -0.5197
10120TIP3    H251776   5.461   4.132  13.605 -1.0384  1.0890  0.7195
10121TIP3   OH251777   4.362   4.694  13.953  0.0063 -0.4265  0.3188
10121TIP3    H151778   4.433   4.630  13.950  1.3416  1.0823 -2.7841
10121TIP3    H251779   4.296   4.658  13.892 -0.6917 -0.4665  1.0965
10122TIP3   OH251780   4.399   6.081   0.020 -0.2137  0.1462 -0.1771
10122TIP3    H151781   4.381   6.076   0.114  0.3385 -1.0423 -0.1323
10122TIP3    H251782   4.320   6.046  -0.021  0.3745 -1.3167 -0.0896
10123TIP3   OH251783   3.586   4.749   2.371  0.4916  0.4506 -0.6983
10123TIP3    H151784   3.558   4.786   2.455  1.1035 -0.1646 -0.2164
10123TIP3    H251785   3.505   4.725   2.327  0.1779  0.4031 -0.1016
10124TIP3   OH251786   3.671   4.516  15.409  0.0848 -0.4673  0.6299
10124TIP3    H151787   3.763   4.525  15.382  0.7034  0.4870  2.9474
10124TIP3    H251788   3.665   4.566  15.490 -2.4483 -0.7338  0.6420
10125TIP3   OH251789   3.916   6.087   1.208 -0.4336 -0.1931  0.2429
10125TIP3    H151790   3.966   6.011   1.239 -1.3573 -1.0056 -0.2438
10125TIP3    H251791   3.848   6.099   1.274  0.9559  1.4994  1.4028
10126TIP3   OH251792   3.800   0.079   4.850 -0.4167  0.1733  0.2794
10126TIP3    H151793   3.858   0.087   4.926  0.1545  1.1214 -0.2401
10126TIP3    H251794   3.719   0.123   4.878 -0.3406  0.1986  0.4626
10127TIP3   OH251795   0.970   5.790   0.648 -0.3054 -0.0252 -0.4989
10127TIP3    H151796   0.999   5.773   0.738  2.4945  1.0423 -1.1517
10127TIP3    H251797   1.048   5.777   0.594 -1.6262  0.6089 -2.6415
10128TIP3   OH251798   3.442   1.598  13.568 -0.0372 -0.0007 -0.2247
10128TIP3    H151799   3.422   1.691  13.580 -0.0702  0.0664 -0.7631
10128TIP3    H251800   3.380   1.553  13.624  1.2426  0.3639  1.5343
10129TIP3   OH251801   1.882   1.918  15.009  0.3761 -0.6762 -0.3065
10129TIP3    H151802   1.892   2.012  14.995 -1.9216 -0.1662  1.3015
10129TIP3    H251803   1.829   1.887  14.936  0.1297 -0.5156 -0.1941
10130TIP3   OH251804   2.753   0.418  14.953 -0.5074 -0.4564  0.6910
10130TIP3    H151805   2.833   0.366  14.944 -0.5928 -0.7728  1.7932
10130TIP3    H251806   2.782   0.509  14.939 -0.0834 -0.6393  0.3807
10131TIP3   OH251807   4.011   5.181  13.181 -0.6379  0.3058  0.8315
10131TIP3    H151808   4.041   5.252  13.238  1.6240 -0.2942  0.4459
10131TIP3    H251809   4.063   5.106  13.208 -0.7585 -0.4089 -0.8763
10132TIP3   OH251810   4.505   1.937  11.739  0.1006  0.4770 -0.0024
10132TIP3    H151811   4.555   1.980  11.669 -0.0486 -0.3021 -0.6062
10132TIP3    H251812   4.567   1.930  11.812  0.6165  0.2778 -0.4530
10133TIP3   OH251813   3.828   3.922   2.544 -0.2844  0.3468  0.1768
10133TIP3    H151814   3.851   3.969   2.625  0.9571  0.6244 -0.3159
10133TIP3    H251815   3.841   3.987   2.475 -2.1560  0.3547 -0.1730
10134TIP3   OH251816   1.916   4.979  13.349  0.5130 -0.5574 -0.0684
10134TIP3    H151817   1.920   5.026  13.433 -0.2780 -0.4299 -0.1005
10134TIP3    H251818   1.948   5.042  13.285  0.9312 -0.5887  0.1047
10135TIP3   OH251819   6.182   7.122   2.158  0.5725  0.6912  0.1323
10135TIP3    H151820   6.231   7.134   2.076 -1.8264  0.1381 -1.4461
10135TIP3    H251821   6.153   7.031   2.156 -1.9596  1.4358  0.1371
10136TIP3   OH251822   4.401   6.127  13.739  0.7916 -0.2405  0.1047
10136TIP3    H151823   4.372   6.178  13.664  0.7071 -1.4626 -0.7128
10136TIP3    H251824   4.395   6.187  13.813  0.6338  0.9035 -0.8187
10137TIP3   OH251825   0.837   1.588   4.175  0.2322 -0.2916 -0.3609
10137TIP3    H151826   0.777   1.546   4.237 -0.4360  0.4545 -0.5033
10137TIP3    H251827   0.924   1.557   4.201  0.3114  2.4424  2.9508
10138TIP3   OH251828   0.321   0.873  13.356 -0.2767 -0.0978 -0.1210
10138TIP3    H151829   0.322   0.781  13.330 -1.1393 -0.1955  0.1728
10138TIP3    H251830   0.311   0.871  13.451  2.9730  0.2487  0.2904
10139TIP3   OH251831   6.167   4.943  12.822 -0.2472 -0.2951  0.1900
10139TIP3    H151832   6.250   4.969  12.862  0.3592  0.1702 -1.3429
10139TIP3    H251833   6.157   5.001  12.747 -1.1171 -1.4841 -0.6446
10140TIP3   OH251834   3.044   0.837   1.848 -0.1597  0.0724 -0.4569
10140TIP3    H151835   2.990   0.846   1.770 -2.3427 -0.1953  0.9814
10140TIP3    H251836   3.066   0.928   1.872 -0.9372  0.2558 -0.4143
10141TIP3   OH251837   2.782   6.144  12.632 -0.7767  0.2712 -0.0207
10141TIP3    H151838   2.798   6.071  12.691 -2.5871 -0.0046  0.1567
10141TIP3    H251839   2.798   6.108  12.545 -1.1476 -0.1962  0.1021
10142TIP3   OH251840   5.366   4.177  14.990  0.2548  0.0708 -0.2191
10142TIP3    H151841   5.418   4.101  14.966  1.8971  1.2455 -0.4896
10142TIP3    H251842   5.282   4.141  15.019  1.7514 -1.9646  1.7713
10143TIP3   OH251843   5.037   3.853  11.475 -0.3590  0.3354  0.1936
10143TIP3    H151844   5.121   3.808  11.470  0.1640  1.2555  0.6944
10143TIP3    H251845   4.980   3.791  11.521 -0.1309 -0.5270 -0.6667
10144TIP3   OH251846   1.784   6.655   0.698 -0.2422  0.0214 -0.0117
10144TIP3    H151847   1.726   6.627   0.769 -0.1019 -1.3003 -0.4029
10144TIP3    H251848   1.740   6.624   0.618  1.3479 -1.6749 -0.2626
10145TIP3   OH251849   3.843   0.170   0.324  0.8492 -0.2312  0.0329
10145TIP3    H151850   3.898   0.174   0.246  1.7466 -0.2205  0.6629
10145TIP3    H251851   3.855   0.081   0.357  0.2271 -0.3349 -0.0124
10146TIP3   OH251852   4.613   4.731   3.275 -0.0824  0.1657  0.4593
10146TIP3    H151853   4.650   4.730   3.363  1.5442 -0.5756 -0.2138
10146TIP3    H251854   4.683   4.767   3.220 -0.6801 -0.4000 -0.6975
10147TIP3   OH251855   3.059   6.378  14.267  0.1022  0.1976 -0.2170
10147TIP3    H151856   3.126   6.408  14.205  0.0005  2.2108  0.6137
10147TIP3    H251857   2.988   6.442  14.258 -0.1850  0.1326  1.5224
10148TIP3   OH251858   4.397   5.606  15.541 -0.0434  0.1720  0.7148
10148TIP3    H151859   4.374   5.656  15.619 -1.0724  1.0165 -0.1135
10148TIP3    H251860   4.313   5.580  15.503  0.4491 -0.3482 -0.0418
10149TIP3   OH251861   4.463   0.138  15.535 -0.0520 -0.3137 -0.1884
10149TIP3    H151862   4.474   0.231  15.515  1.6655 -0.3539  0.4457
10149TIP3    H251863   4.455   0.134  15.630 -2.3346 -0.6364 -0.3683
10150TIP3   OH251864   4.876   0.906   1.356 -0.5771  0.6618 -0.4571
10150TIP3    H151865   4.895   0.909   1.263  2.4190 -2.9952 -0.0970
10150TIP3    H251866   4.951   0.860   1.394 -2.3967  0.8121  3.5631
10151TIP3   OH251867   0.171   5.041  15.297  0.3027  0.0111  0.1185
10151TIP3    H151868   0.147   4.996  15.216 -1.8205  0.6505  0.3748
10151TIP3    H251869   0.090   5.048  15.346  1.1335  1.6572  1.3051
10152TIP3   OH251870   3.104   0.225  11.102 -0.3554  0.7414  0.1498
10152TIP3    H151871   3.185   0.257  11.060  0.1457 -1.3610 -0.5287
10152TIP3    H251872   3.128   0.215  11.194 -0.6294  2.6109  0.4563
10153TIP3   OH251873   6.783   7.108   1.958 -0.6168 -0.1356  0.1520
10153TIP3    H151874   6.715   7.042   1.943 -0.9860  0.1798  0.4076
10153TIP3    H251875   6.847   7.064   2.013 -0.1260 -0.7436 -0.8827
10154TIP3   OH251876   1.011   1.550  14.750  0.3807 -0.0245  0.2211
10154TIP3    H151877   0.923   1.525  14.722  0.6720  0.4970 -1.2149
10154TIP3    H251878   1.015   1.644  14.734  0.7785  0.1781  1.4604
10155TIP3   OH251879   5.741   6.531  14.324  0.1809  0.4697  0.6144
10155TIP3    H151880   5.692   6.612  14.332 -0.7060 -0.2124  2.2969
10155TIP3    H251881   5.799   6.545  14.249 -1.1842  2.0016 -0.1716
10156TIP3   OH251882   4.611   1.494  15.342 -0.5066 -0.4991 -0.6356
10156TIP3    H151883   4.705   1.479  15.332 -0.7113 -2.2919 -0.0433
10156TIP3    H251884   4.588   1.447  15.422 -1.7492  0.6919 -0.2809
10157TIP3   OH251885   6.712   6.624  12.377  0.1529 -0.1270  0.2917
10157TIP3    H151886   6.626   6.661  12.362  0.0475 -0.4326  0.1367
10157TIP3    H251887   6.773   6.698  12.365 -0.1495  0.2874  1.2958
10158TIP3   OH251888   3.885   5.964   1.762  0.2775  0.4627 -0.6040
10158TIP3    H151889   3.881   6.007   1.847  1.0871  0.0525 -0.3522
10158TIP3    H251890   3.801   5.985   1.720  0.1331  1.1862  0.0368
10159TIP3   OH251891   6.661   4.938  15.422 -0.3895  0.5846 -0.0447
10159TIP3    H151892   6.675   4.925  15.516 -1.6887 -1.0494 -0.0474
10159TIP3    H251893   6.731   4.889  15.380 -0.2769  0.6596  0.0548
10160TIP3   OH251894   6.293   6.456  13.247  0.8097 -0.6197  0.1144
10160TIP3    H151895   6.212   6.460  13.298  1.3353  0.3792  0.8836
10160TIP3    H251896   6.265   6.429  13.159 -0.4920  0.8178  0.0693
10161TIP3   OH251897   5.931   1.912  11.447  0.0866 -0.5496  0.3945
10161TIP3    H151898   5.844   1.931  11.411  0.0394 -3.2858 -1.0263
10161TIP3    H251899   5.992   1.928  11.375  0.3458 -2.4210  0.1603
10162TIP3   OH251900   6.358   2.586  12.036  0.0655  0.0655 -0.0853
10162TIP3    H151901   6.352   2.675  12.003 -1.5606 -0.1510 -0.3982
10162TIP3    H251902   6.307   2.533  11.975  1.9412 -1.2689 -0.5270
10163TIP3   OH251903   4.050   6.697  10.939  0.7913  0.2897  0.0902
10163TIP3    H151904   3.999   6.676  11.017 -0.6679  0.9991 -0.6623
10163TIP3    H251905   3.987   6.733  10.878  1.7246 -1.3126 -1.8614
10164TIP3   OH251906   1.361   6.856   2.335  0.2600 -0.4836  0.3390
10164TIP3    H151907   1.440   6.865   2.388 -0.5154  0.6818  1.3151
10164TIP3    H251908   1.290   6.854   2.399 -0.6306  0.2232 -0.6177
10165TIP3   OH251909   0.385   3.892   0.392  0.0367 -0.2409 -0.3069
10165TIP3    H151910   0.461   3.936   0.355 -2.5045  3.0202 -1.9653
10165TIP3    H251911   0.346   3.845   0.319  1.2332 -3.1706  0.8721
10166TIP3   OH251912   2.741   6.502  14.344 -0.0953  0.5413  0.2348
10166TIP3    H151913   2.773   6.421  14.383  0.9539  0.3463 -1.0045
10166TIP3    H251914   2.668   6.528  14.401 -1.4901 -2.1026 -0.2531
10167TIP3   OH251915   0.951   6.139  13.524 -0.0559 -0.2621  0.2795
10167TIP3    H151916   0.977   6.130  13.432 -0.6702 -1.3556  0.2015
10167TIP3    H251917   1.020   6.094  13.573  0.1942  0.1898  0.3369
10168TIP3   OH251918   0.520   2.986  15.044 -0.2087 -0.1264  0.0139
10168TIP3    H151919   0.533   3.009  14.952  0.9318  0.4838  0.3110
10168TIP3    H251920   0.510   2.891  15.043  1.7575 -0.3710 -0.5712
10169TIP3   OH251921   3.778   6.964   0.343 -0.2561 -0.0423 -0.6960
10169TIP3    H151922   3.723   7.004   0.276 -0.8095 -0.0611 -0.2572
10169TIP3    H251923   3.733   6.982   0.425  2.6405  3.8663  0.1983
10170TIP3   OH251924   2.665   0.717  14.109  0.1843 -0.4452  0.1395
10170TIP3    H151925   2.759   0.708  14.093  0.0946 -1.1436 -0.0147
10170TIP3    H251926   2.623   0.670  14.037 -0.3116  0.6462 -0.2990
10171TIP3   OH251927   6.979   4.057   2.529 -0.0299  0.2250 -0.0223
10171TIP3    H151928   6.995   3.970   2.567  0.0534 -0.3139 -1.2723
10171TIP3    H251929   6.911   4.043   2.464  2.0871  0.4888 -2.4003
10172TIP3   OH251930   3.438   6.832   0.278 -0.4690  0.2508  0.4942
10172TIP3    H151931   3.463   6.820   0.370  2.4375  0.0379 -0.2688
10172TIP3    H251932   3.485   6.911   0.250 -0.2903 -0.4068 -1.1420
10173TIP3   OH251933   2.480   5.064   1.567  0.3833  0.0609  0.3821
10173TIP3    H151934   2.505   4.987   1.515 -1.1225  0.5649 -1.1471
10173TIP3    H251935   2.512   5.138   1.515 -0.5448  0.5546  0.5108
10174TIP3   OH251936   4.530   6.387   1.138 -0.1885 -0.7196 -0.0491
10174TIP3    H151937   4.496   6.309   1.093 -0.2554 -0.1465 -1.0022
10174TIP3    H251938   4.608   6.356   1.184  1.0432 -0.9119 -2.1768
10175TIP3   OH251939   1.881   0.105  14.251  0.0053 -0.5627  0.5922
10175TIP3    H151940   1.881   0.128  14.158 -1.6571 -1.2571  0.4077
10175TIP3    H251941   1.973   0.097  14.274  0.4076 -0.7983 -1.1007
10176TIP3   OH251942   0.800   5.608  13.633 -0.2759  0.3186  0.0216
10176TIP3    H151943   0.894   5.597  13.621 -0.2736 -0.8920  0.9973
10176TIP3    H251944   0.790   5.627  13.726 -1.0115  0.1417 -0.0182
10177TIP3   OH251945   0.886   5.853  10.854  0.7917  0.5962  0.1765
10177TIP3    H151946   0.863   5.777  10.908 -0.3901  1.2037  0.5413
10177TIP3    H251947   0.939   5.907  10.912  1.5535  0.0984 -0.0512
10178TIP3   OH251948   4.788   6.145  12.796  0.6023  0.5296  0.1444
10178TIP3    H151949   4.727   6.129  12.724 -1.6367 -0.3868  2.1419
10178TIP3    H251950   4.760   6.229  12.832  0.6225  0.1962  0.9509
10179TIP3   OH251951   6.669   0.383  13.786 -0.4068 -0.0656 -0.5377
10179TIP3    H151952   6.711   0.341  13.861  1.0024 -0.5213 -1.5603
10179TIP3    H251953   6.661   0.314  13.720  0.5316  0.8629 -1.6666
10180TIP3   OH251954   1.490   6.364   1.961 -0.1122 -0.5284 -0.1594
10180TIP3    H151955   1.416   6.318   1.922  0.3799  0.0142 -1.7989
10180TIP3    H251956   1.464   6.456   1.961 -0.2619 -0.5615  1.1786
10181TIP3   OH251957   0.241   3.845  12.803 -0.0983  0.0996 -0.2752
10181TIP3    H151958   0.337   3.842  12.805 -0.0744  0.3171 -0.9549
10181TIP3    H251959   0.220   3.935  12.780 -0.3794 -0.9580 -4.4397
10182TIP3   OH251960   6.263   2.291  13.455  0.6383 -0.0506  0.0906
10182TIP3    H151961   6.295   2.203  13.437  1.1268 -0.1650  1.4080
10182TIP3    H251962   6.300   2.312  13.541  0.8113  1.5679 -0.3598
10183TIP3   OH251963   0.468   0.616  12.421  0.1760  0.3874  0.3235
10183TIP3    H151964   0.532   0.682  12.446 -1.2485  1.6906  0.6068
10183TIP3    H251965   0.476   0.548  12.488  2.0155 -0.0085 -0.2647
10184TIP3   OH251966   4.100   2.109   3.419 -0.0289 -0.3086 -0.4194
10184TIP3    H151967   4.025   2.053   3.439 -0.0173  0.3560  1.6580
10184TIP3    H251968   4.152   2.108   3.500  1.2530  0.7041 -1.2110
10185TIP3   OH251969   0.876   1.462  14.431 -0.4251 -0.2630  0.3416
10185TIP3    H151970   0.837   1.534  14.382  0.4322  1.7594  2.5780
10185TIP3    H251971   0.802   1.420  14.475 -0.5549  1.3640  1.7192
10186TIP3   OH251972   0.883   2.618   0.448 -0.2505 -0.0046 -0.3858
10186TIP3    H151973   0.920   2.684   0.390  1.1063  0.5346  1.0617
10186TIP3    H251974   0.849   2.550   0.389  0.4707  0.8641 -1.8098
10187TIP3   OH251975   2.752   1.429   4.437 -0.3030 -0.4730  0.1586
10187TIP3    H151976   2.751   1.380   4.355 -0.9214 -1.4896  0.7591
10187TIP3    H251977   2.832   1.401   4.481 -1.3307 -1.9895  1.1070
10188TIP3   OH251978   6.663   6.869   1.940 -0.7364 -0.3239 -0.3894
10188TIP3    H151979   6.598   6.800   1.927 -0.7195 -0.2934 -0.6326
10188TIP3    H251980   6.741   6.838   1.895 -0.5472 -0.4064 -0.0126
10189TIP3   OH251981   5.020   0.161  12.349 -0.0799 -0.5077 -0.1563
10189TIP3    H151982   5.076   0.173  12.272  1.2900 -0.5386  0.8092
10189TIP3    H251983   4.985   0.249  12.366  1.0739 -0.1060  0.2531
10190TIP3   OH251984   0.104   0.876  14.081 -0.4795  0.1453  0.7108
10190TIP3    H151985   0.088   0.798  14.028  3.6879 -0.5960  0.3411
10190TIP3    H251986   0.126   0.944  14.018  1.3677  0.0809  1.2315
10191TIP3   OH251987   4.478   1.956  15.278 -0.5640  0.1211  0.2052
10191TIP3    H151988   4.391   1.916  15.282 -0.4849 -0.1211 -0.5382
10191TIP3    H251989   4.461   2.050  15.275 -0.7823  0.0989  0.6844
10192TIP3   OH251990   5.676   5.283   1.768  0.0159 -0.2920  0.4057
10192TIP3    H151991   5.586   5.253   1.784  0.1975 -0.3311  1.3960
10192TIP3    H251992   5.682   5.292   1.673 -0.7696 -1.1272  0.2710
10193TIP3   OH251993   0.177   5.486  14.495 -0.2916 -0.5005  0.1221
10193TIP3    H151994   0.205   5.562  14.545  0.4772 -0.2022 -0.7541
10193TIP3    H251995   0.086   5.471  14.522  0.2256 -0.5655  1.8733
10194TIP3   OH251996   5.636   5.326   1.389 -0.1457  0.5634  0.6662
10194TIP3    H151997   5.697   5.363   1.326 -0.7297 -1.9616 -1.4643
10194TIP3    H251998   5.553   5.370   1.371 -0.9832 -2.0505 -2.2511
10195TIP3   OH251999   0.969   0.157  14.752 -0.7266 -0.8376  0.3446
10195TIP3    H152000   1.058   0.191  14.745 -1.7851  1.8371 -0.7657
10195TIP3    H252001   0.978   0.063  14.738  1.7040 -0.3589 -1.5363
10196TIP3   OH252002   3.861   5.105  15.302  0.4881 -0.3372 -0.6220
10196TIP3    H152003   3.828   5.024  15.342  0.2321  0.1136  0.0891
10196TIP3    H252004   3.803   5.119  15.227 -0.4361  0.0088  0.1451
10197TIP3   OH252005   2.290   2.363  13.645  0.5662 -0.2853  0.2210
10197TIP3    H152006   2.347   2.405  13.581  1.0458  1.2581  1.6045
10197TIP3    H252007   2.239   2.435  13.682 -0.6219 -1.3292  0.6508
10198TIP3   OH252008   3.705   2.045   2.490  0.2711  0.0261 -0.6363
10198TIP3    H152009   3.665   1.959   2.506 -0.7976  0.2070 -2.1430
10198TIP3    H252010   3.638   2.107   2.518 -0.1382  0.3371 -2.2253
10199TIP3   OH252011   6.786   2.013   1.934  0.0961 -0.4234 -0.3560
10199TIP3    H152012   6.829   1.996   1.850 -0.7706 -0.2991 -0.8261
10199TIP3    H252013   6.693   2.012   1.914 -0.0933  0.3684  0.4706
10200TIP3   OH252014   0.718   6.010   2.494 -0.0600  0.3384  0.0881
10200TIP3    H152015   0.648   6.041   2.437 -0.1096 -0.2455 -0.1663
10200TIP3    H252016   0.749   6.089   2.538 -1.0454  0.5638  0.3930
10201TIP3   OH252017   6.753   0.637   4.190  0.6094  0.4745 -0.2206
10201TIP3    H152018   6.829   0.659   4.137 -0.8164  0.8044 -2.1770
10201TIP3    H252019   6.718   0.558   4.151 -0.7693  1.0236 -0.1236
10202TIP3   OH252020   6.576   3.835   1.766 -0.2850  0.5028  0.0374
10202TIP3    H152021   6.554   3.927   1.780 -0.4876  0.5747 -0.7147
10202TIP3    H252022   6.589   3.828   1.671 -1.2988 -0.4588 -0.0425
10203TIP3   OH252023   4.910   4.984   1.707 -0.4664 -0.4176 -0.2548
10203TIP3    H152024   4.865   4.918   1.760  0.4082 -0.4017  0.5319
10203TIP3    H252025   4.875   4.972   1.619 -1.4035 -0.9392  0.1793
10204TIP3   OH252026   6.224   3.384  14.997  0.0915  0.5048 -0.1602
10204TIP3    H152027   6.172   3.429  14.931 -0.6342  0.5455  0.4375
10204TIP3    H252028   6.178   3.400  15.080  0.2816 -0.6478  0.1762
10205TIP3   OH252029   3.934   4.661  13.304  0.0254  0.4032 -0.1598
10205TIP3    H152030   4.015   4.611  13.304 -0.8694 -1.0504  0.1886
10205TIP3    H252031   3.897   4.645  13.217 -1.3904 -1.3976  0.7556
10206TIP3   OH252032   5.405   6.383  13.553 -0.1160  0.5184 -0.3985
10206TIP3    H152033   5.377   6.373  13.644  1.0303  0.4538 -0.0363
10206TIP3    H252034   5.491   6.425  13.559  0.8440 -1.2670 -1.3629
10207TIP3   OH252035   5.782   4.009   2.412 -0.2205 -0.0540  0.3133
10207TIP3    H152036   5.716   3.945   2.439 -1.4159  1.0334  0.0459
10207TIP3    H252037   5.791   4.067   2.488 -0.1237  0.2344  0.0805
10208TIP3   OH252038   5.145   2.599   0.158 -0.5997  0.1168 -0.0146
10208TIP3    H152039   5.152   2.555   0.242 -0.5627 -0.0333 -0.0960
10208TIP3    H252040   5.187   2.684   0.172  2.2353 -1.0888 -0.7359
10209TIP3   OH252041   2.058   1.786  13.212 -0.2793  0.3177 -0.1495
10209TIP3    H152042   2.076   1.854  13.278  1.4151 -0.7493  0.5135
10209TIP3    H252043   2.029   1.835  13.135  2.2160  1.9217 -0.1174
10210TIP3   OH252044   2.546   0.877   3.927  0.0533 -0.4394 -0.6942
10210TIP3    H152045   2.585   0.822   3.996 -1.4075  2.0788  2.2870
10210TIP3    H252046   2.505   0.814   3.867  1.8594 -2.7495  0.3882
10211TIP3   OH252047   5.922   1.158   0.272 -0.0801  0.1376  0.5593
10211TIP3    H152048   5.849   1.118   0.224  0.0395 -0.0592  0.5410
10211TIP3    H252049   5.993   1.094   0.264 -0.6979 -0.8702  2.8013
10212TIP3   OH252050   5.591   2.469  14.332  0.1614 -0.1331  0.1497
10212TIP3    H152051   5.639   2.525  14.271  0.3288 -1.2179 -0.7144
10212TIP3    H252052   5.530   2.420  14.277 -2.0717  1.3299  1.2390
10213TIP3   OH252053   0.704   1.340   4.639  0.5712  0.1061  0.2273
10213TIP3    H152054   0.777   1.288   4.603 -0.3264 -1.9702  1.3289
10213TIP3    H252055   0.666   1.285   4.707 -0.1167  2.4495  1.8028
10214TIP3   OH252056   0.060   0.100   1.646  0.2098 -0.5024  0.2265
10214TIP3    H152057  -0.018   0.082   1.594  0.9547 -5.3973  0.5803
10214TIP3    H252058   0.130   0.111   1.582  0.1507 -1.1687  0.0478
10215TIP3   OH252059   2.794   5.400  14.848  0.6759  0.6566  0.4875
10215TIP3    H152060   2.878   5.447  14.853  1.2993 -0.1912 -1.5414
10215TIP3    H252061   2.819   5.310  14.827 -0.7437  0.3207  0.2494
10216TIP3   OH252062   0.528   1.916   0.162 -0.3851  0.1934 -0.1083
10216TIP3    H152063   0.538   1.902   0.256 -2.0487  1.4600  0.2768
10216TIP3    H252064   0.452   1.974   0.154 -0.3652 -0.0357 -2.2412
10217TIP3   OH252065   6.983   4.440   5.536  0.1743 -0.3202  0.1655
10217TIP3    H152066   6.919   4.511   5.536  0.1785 -0.3130 -0.9847
10217TIP3    H252067   7.068   4.484   5.546  0.2698 -0.0747 -1.7102
10218TIP3   OH252068   2.111   1.646   1.618 -0.1396  0.2081  0.1396
10218TIP3    H152069   2.151   1.561   1.599 -1.0412 -0.3288  0.6103
10218TIP3    H252070   2.060   1.631   1.698  0.6225  1.4941  0.8831
10219TIP3   OH252071   1.650   0.595   2.693 -0.5786  0.2518 -0.5007
10219TIP3    H152072   1.583   0.656   2.724 -1.0051 -0.4004 -0.1401
10219TIP3    H252073   1.641   0.518   2.749 -0.7277 -0.5569 -1.6335
10220TIP3   OH252074   0.290   3.371  14.363  0.1430  0.0230 -0.3007
10220TIP3    H152075   0.381   3.392  14.344  0.4749 -1.5325 -0.4593
10220TIP3    H252076   0.251   3.455  14.388  1.4468  0.8189 -0.8792
10221TIP3   OH252077   5.337   6.646  14.145 -0.1916 -0.2510 -0.5691
10221TIP3    H152078   5.251   6.649  14.104 -0.1053  1.7937 -0.6481
10221TIP3    H252079   5.322   6.605  14.230 -1.3674  0.7103 -0.3028
10222TIP3   OH252080   4.273   0.394  14.504 -0.6960  0.2752 -0.5069
10222TIP3    H152081   4.323   0.315  14.525 -0.9458  0.5192  1.0647
10222TIP3    H252082   4.304   0.420  14.417 -0.2785 -1.2827 -0.8297
10223TIP3   OH252083   0.237   3.410   1.940 -0.1291  0.0059 -0.8363
10223TIP3    H152084   0.285   3.476   1.891  1.0140  1.0076  1.5551
10223TIP3    H252085   0.171   3.459   1.988 -1.9182 -1.0770 -2.1157
10224TIP3   OH252086   6.313   2.773   5.295 -0.1155 -0.2382 -0.7373
10224TIP3    H152087   6.272   2.786   5.209  2.1999  1.6102 -1.5890
10224TIP3    H252088   6.352   2.686   5.290 -1.2524 -0.7498 -0.9966
10225TIP3   OH252089   2.484   1.922  15.121  0.3938 -0.1657  0.1528
10225TIP3    H152090   2.547   1.957  15.058 -0.4714  1.8368  0.3782
10225TIP3    H252091   2.453   1.841  15.081  2.6243 -0.8536 -0.2487
10226TIP3   OH252092   0.707   0.731   1.336  0.0693 -0.7168  0.5234
10226TIP3    H152093   0.751   0.697   1.258 -1.1734 -0.6986 -0.2175
10226TIP3    H252094   0.755   0.810   1.359  0.6470 -0.9023 -0.0339
10227TIP3   OH252095   1.860   0.980   3.413  0.2926  0.5389 -0.5980
10227TIP3    H152096   1.939   0.938   3.446 -0.0102  0.6673  0.2814
10227TIP3    H252097   1.791   0.915   3.425  0.0050  0.9348 -0.1224
10228TIP3   OH252098   4.987   1.220   0.191  0.1533  0.2641  0.1251
10228TIP3    H152099   4.941   1.155   0.244 -0.8507  1.3223  0.5698
10228TIP3    H252100   5.035   1.273   0.255  1.4758 -0.4262 -0.2842
10229TIP3   OH252101   1.352   2.656   0.069  0.1189  0.1122  0.4986
10229TIP3    H152102   1.338   2.691   0.157  1.2500 -0.1193  0.7723
10229TIP3    H252103   1.304   2.573   0.068 -1.6730  1.1183  0.1921
10230TIP3   OH252104   5.576   1.013   0.813 -0.1360 -0.3719  0.3389
10230TIP3    H152105   5.529   0.933   0.788  1.4752 -0.6688 -1.9654
10230TIP3    H252106   5.662   0.981   0.842 -0.6237  0.3020  2.6107
10231TIP3   OH252107   2.252   2.186  11.158 -0.4013 -0.2331 -0.1211
10231TIP3    H152108   2.199   2.263  11.179 -2.2882 -1.4106 -0.3792
10231TIP3    H252109   2.198   2.112  11.185  1.4670 -1.4725  0.3124
10232TIP3   OH252110   1.867   2.493  14.894  0.0808 -0.0265  0.0528
10232TIP3    H152111   1.887   2.440  14.817  1.8822  1.3524 -0.4566
10232TIP3    H252112   1.892   2.438  14.968  0.6686 -0.4280 -0.4377
10233TIP3   OH252113   7.018   2.270   3.808 -0.3811 -0.1154  0.5806
10233TIP3    H152114   6.951   2.222   3.856  0.3908 -0.3104  1.4704
10233TIP3    H252115   7.086   2.288   3.873  0.5262 -0.1029 -0.3559
10234TIP3   OH252116   5.526   3.386  11.533 -0.5254 -0.6771  0.4645
10234TIP3    H152117   5.460   3.432  11.482  0.4026  1.8247  1.4456
10234TIP3    H252118   5.606   3.394  11.481  0.0871  0.6127  1.5588
10235TIP3   OH252119   6.718   3.470   1.913 -0.3425  0.5927 -0.2254
10235TIP3    H152120   6.686   3.403   1.853 -0.2748 -0.0877  0.4816
10235TIP3    H252121   6.643   3.527   1.928 -0.3990  0.6828 -0.8477
10236TIP3   OH252122   6.175   3.508   1.711 -0.7195  0.1912 -0.8492
10236TIP3    H152123   6.168   3.529   1.618 -1.4324  0.3333 -0.7668
10236TIP3    H252124   6.098   3.548   1.750 -0.5357 -0.0595 -0.2286
10237TIP3   OH252125   4.723   1.083   2.150  0.0358 -0.3664 -0.0911
10237TIP3    H152126   4.759   1.171   2.164 -0.1318 -0.3226  0.0697
10237TIP3    H252127   4.781   1.043   2.086  1.0364 -0.6948  0.9998
10238TIP3   OH252128   2.399   3.936   0.930 -0.0932  0.4256  0.8744
10238TIP3    H152129   2.458   3.899   0.995  0.2411  0.4597  0.5871
10238TIP3    H252130   2.335   3.867   0.914 -0.9617  0.8865  2.2256
10239TIP3   OH252131   7.039   6.785   4.218 -0.1841 -0.2032 -0.6116
10239TIP3    H152132   7.078   6.868   4.244 -1.0391 -0.0986  0.4033
10239TIP3    H252133   7.112   6.724   4.213  0.1617  0.0483  1.0112
10240TIP3   OH252134   6.749   6.961   1.349 -0.3054 -0.7583  0.5846
10240TIP3    H152135   6.732   6.870   1.324  0.7912 -0.3243 -1.8682
10240TIP3    H252136   6.675   7.010   1.315  0.7809 -0.2829 -1.1627
10241TIP3   OH252137   2.869   3.268   1.670 -0.1091 -0.0374  0.4934
10241TIP3    H152138   2.784   3.310   1.680 -0.4644 -0.8989  1.1480
10241TIP3    H252139   2.928   3.319   1.726 -0.6365 -0.6832  1.6471
10242TIP3   OH252140   4.327   3.782   0.813 -0.3229 -0.2191  0.3129
10242TIP3    H152141   4.342   3.692   0.783  0.9035  0.6132 -1.6273
10242TIP3    H252142   4.386   3.792   0.888  2.0968  0.0439 -1.5754
10243TIP3   OH252143   6.813   4.336  15.475  0.4955  0.4893  0.2145
10243TIP3    H152144   6.796   4.429  15.491 -1.4029  0.0122  1.1254
10243TIP3    H252145   6.775   4.320  15.388  1.3641  0.6862 -0.2086
10244TIP3   OH252146   5.659   5.950   0.918 -0.2334  0.0466  0.0856
10244TIP3    H152147   5.707   5.995   0.849  0.5889 -0.6205  0.2219
10244TIP3    H252148   5.623   5.871   0.875  2.9334 -2.0573  1.1376
10245TIP3   OH252149   7.083   2.474   0.325  0.2235  0.3074 -0.7874
10245TIP3    H152150   7.027   2.552   0.317  1.6284  1.4465  0.2191
10245TIP3    H252151   7.152   2.500   0.386  2.3632 -0.7735 -2.6657
10246TIP3   OH252152   4.927   0.366   2.664 -0.6427 -0.5099 -0.3008
10246TIP3    H152153   4.899   0.418   2.588  0.2780 -0.3339 -0.5223
10246TIP3    H252154   4.854   0.374   2.726  0.0309  2.1906  0.2312
10247TIP3   OH252155   2.123   3.878  13.144 -0.0791 -0.3531  0.3042
10247TIP3    H152156   2.150   3.804  13.090  0.4971  0.6462 -0.8083
10247TIP3    H252157   2.169   3.953  13.106  2.0200  0.0547  3.5073
10248TIP3   OH252158   1.787   3.814   0.259 -0.4458 -0.0206  0.9550
10248TIP3    H152159   1.811   3.735   0.308 -0.8405 -0.6184  0.2079
10248TIP3    H252160   1.720   3.784   0.197 -0.4579  0.8639  0.5276
10249TIP3   OH252161   0.698   6.775   1.274 -0.1120  0.2801 -0.6195
10249TIP3    H152162   0.764   6.756   1.340 -1.8651  0.7848  1.3070
10249TIP3    H252163   0.682   6.690   1.232 -0.1595 -0.3608  0.6856
10250TIP3   OH252164   6.215   0.131   4.316  0.0280  0.3884 -0.0601
10250TIP3    H152165   6.182   0.045   4.291  0.9635 -0.3297  1.1355
10250TIP3    H252166   6.140   0.175   4.357 -0.1772 -0.2343  0.2343
10251TIP3   OH252167   6.206   6.895   0.437 -0.0204  0.1238  0.0283
10251TIP3    H152168   6.262   6.825   0.402  1.1805  0.9940  0.1918
10251TIP3    H252169   6.160   6.928   0.360  0.9527  0.5296 -0.3944
10252TIP3   OH252170   2.305   5.224   4.953 -0.1695 -0.0886  0.1807
10252TIP3    H152171   2.303   5.153   5.017  0.8328 -0.6779 -0.4151
10252TIP3    H252172   2.370   5.196   4.888  0.0365  1.2431 -0.2154
10253TIP3   OH252173   2.399   0.202   2.472 -0.1020 -0.1245  0.5507
10253TIP3    H152174   2.394   0.266   2.401 -1.6708 -0.3869  0.4024
10253TIP3    H252175   2.412   0.254   2.551 -0.8200  0.3541  0.3576
10254TIP3   OH252176   6.877   1.299   2.581  0.5682  0.0958 -0.3785
10254TIP3    H152177   6.829   1.351   2.516  1.7228  1.6338 -0.0254
10254TIP3    H252178   6.935   1.244   2.528  0.0256 -0.1416 -0.7295
10255TIP3   OH252179   2.422   5.809   0.988 -0.3047 -0.2928 -0.5985
10255TIP3    H152180   2.460   5.897   0.996 -2.8916  0.8963 -1.0565
10255TIP3    H252181   2.333   5.824   0.958 -0.9478 -3.0753 -0.1879
10256TIP3   OH252182   0.729   5.206  15.305 -0.0540 -0.0634  0.0408
10256TIP3    H152183   0.794   5.234  15.240 -0.0056  0.0886  0.1526
10256TIP3    H252184   0.687   5.129  15.266  0.1894 -0.1583 -0.0352
10257TIP3   OH252185   3.269   6.823   1.121  0.5073 -0.9159 -0.1647
10257TIP3    H152186   3.305   6.737   1.097  0.3880 -1.0904  0.2899
10257TIP3    H252187   3.270   6.823   1.217  2.0348  0.2191 -0.1633
10258TIP3   OH252188   0.682   2.399  10.695  0.1399  0.5814  0.1682
10258TIP3    H152189   0.708   2.489  10.715  0.7507  0.3936  0.2514
10258TIP3    H252190   0.755   2.365  10.643  0.6190 -0.3373  1.4088
10259TIP3   OH252191   6.550   2.941   0.664 -0.1835 -0.0249  0.1213
10259TIP3    H152192   6.603   3.016   0.693  0.1905  0.7312 -2.4096
10259TIP3    H252193   6.462   2.977   0.652 -0.1429 -0.1313 -0.4920
10260TIP3   OH252194   1.992   4.518  14.320 -0.3820 -0.1952 -0.2786
10260TIP3    H152195   1.941   4.466  14.257 -1.0782 -0.9153  0.8572
10260TIP3    H252196   2.051   4.571  14.266 -0.5287 -1.2697 -1.5108
10261TIP3   OH252197   0.347   1.046   0.096 -0.2440 -0.2613 -0.1194
10261TIP3    H152198   0.306   1.001   0.022  0.6093  0.0462 -0.7851
10261TIP3    H252199   0.315   0.999   0.173 -2.6269  0.5718 -0.5387
10262TIP3   OH252200   6.152   1.005   0.371 -0.3931 -0.2791  0.4274
10262TIP3    H152201   6.151   0.911   0.355 -0.6373 -0.4495  1.4242
10262TIP3    H252202   6.079   1.020   0.430 -0.8485  0.6574 -0.3645
10263TIP3   OH252203   1.750   6.598   1.378  0.1060  0.3693 -0.6667
10263TIP3    H152204   1.758   6.560   1.465  0.8323  1.2518 -0.3292
10263TIP3    H252205   1.659   6.584   1.353 -0.2819  0.7147  0.5312
10264TIP3   OH252206   0.355   3.829  14.572  0.3474  0.5975 -0.1024
10264TIP3    H152207   0.286   3.775  14.610  1.3179  0.2211  1.1548
10264TIP3    H252208   0.437   3.788  14.600  1.0926  1.1848 -1.3540
10265TIP3   OH252209   1.852   6.518   1.645 -0.6353 -0.2273 -0.2999
10265TIP3    H152210   1.945   6.516   1.670 -0.7349 -1.4021 -0.0097
10265TIP3    H252211   1.842   6.447   1.582 -1.4499 -0.4458  0.0642
10266TIP3   OH252212   2.024   4.709   4.771 -0.0849 -0.1189  0.0595
10266TIP3    H152213   2.002   4.631   4.720 -0.7941 -0.4336  0.8314
10266TIP3    H252214   1.952   4.770   4.753  1.7427  1.3579 -2.5567
10267TIP3   OH252215   5.641   6.572   2.688  0.1389  0.4688 -0.1927
10267TIP3    H152216   5.710   6.513   2.720  0.6211  1.1032 -0.0642
10267TIP3    H252217   5.560   6.535   2.725  0.6482  0.9794  1.4701
10268TIP3   OH252218   6.940   4.191  13.855  0.3959  0.0667 -0.0158
10268TIP3    H152219   6.980   4.126  13.913  1.2779  0.2962 -0.3599
10268TIP3    H252220   6.878   4.238  13.911  0.2320 -0.6324  0.3958
10269TIP3   OH252221   4.653   4.604  14.195 -0.0170 -0.1831  0.0071
10269TIP3    H152222   4.715   4.596  14.268 -0.8777 -3.1834  0.4841
10269TIP3    H252223   4.705   4.642  14.124  1.6777 -0.2006  1.2022
10270TIP3   OH252224   0.829   5.828   2.293  0.1134 -0.1075  0.3948
10270TIP3    H152225   0.745   5.814   2.249 -0.3507 -0.1948  1.2903
10270TIP3    H252226   0.806   5.879   2.371  0.4717 -2.6776  2.2211
10271TIP3   OH252227   4.518   2.655   3.728  0.6325  0.1074 -0.3344
10271TIP3    H152228   4.485   2.678   3.815 -0.2907 -2.0682 -0.0590
10271TIP3    H252229   4.508   2.560   3.724  1.4905  0.0900 -2.4950
10272TIP3   OH252230   6.601   7.100   1.606  0.1998  0.4319  0.1208
10272TIP3    H152231   6.696   7.088   1.616  0.4822  2.2058 -0.3459
10272TIP3    H252232   6.571   7.017   1.569  1.3009 -0.7879  1.8511
10273TIP3   OH252233   0.276   1.655   2.051  0.1527 -0.0773 -0.2474
10273TIP3    H152234   0.277   1.562   2.074 -2.3033  0.1324  0.8800
10273TIP3    H252235   0.185   1.673   2.029  0.3571  2.3604  0.7776
10274TIP3   OH252236   6.491   2.731   1.131 -0.0517 -0.3419 -0.2338
10274TIP3    H152237   6.397   2.745   1.132 -0.2092 -1.3263 -0.6975
10274TIP3    H252238   6.514   2.730   1.038  0.1551 -1.7337 -0.1846
10275TIP3   OH252239   1.915   1.284  14.390 -0.0476  0.2984 -0.0433
10275TIP3    H152240   1.992   1.291  14.333  0.7406  0.4976  1.0227
10275TIP3    H252241   1.951   1.286  14.479 -1.4495  2.8024  0.5252
10276TIP3   OH252242   0.024   0.050   2.839  0.5285  0.0963  0.3165
10276TIP3    H152243   0.092  -0.017   2.842  1.6296  1.2254  1.1652
10276TIP3    H252244   0.023   0.088   2.927 -0.8710  0.4292  0.1804
10277TIP3   OH252245   1.371   4.142  14.219 -0.5621 -0.2498  0.3331
10277TIP3    H152246   1.286   4.171  14.254 -1.8466 -1.7485 -1.4063
10277TIP3    H252247   1.383   4.054  14.254 -0.3182 -0.4992 -0.3588
10278TIP3   OH252248   1.258   0.978   0.665  0.1963  0.0652 -0.0652
10278TIP3    H152249   1.353   0.974   0.658  0.2636 -2.6564  1.4873
10278TIP3    H252250   1.237   0.911   0.730 -2.8542 -0.0187 -1.0845
10279TIP3   OH252251   0.012   1.008   2.878 -0.0033  0.2300  0.7751
10279TIP3    H152252   0.107   1.001   2.891  0.2593  1.1923 -0.5230
10279TIP3    H252253  -0.022   0.923   2.906  1.4039 -0.6400 -0.0927
10280TIP3   OH252254   0.901   0.384  14.906  0.8412 -0.5752 -0.0680
10280TIP3    H152255   0.922   0.318  14.840 -1.3762 -0.5300 -0.8808
10280TIP3    H252256   0.813   0.361  14.935  0.4650  1.3789  0.4111
10281TIP3   OH252257   3.140   2.102   1.481 -0.1539 -0.8537 -0.5280
10281TIP3    H152258   3.229   2.086   1.512  0.3681  0.9768 -1.0441
10281TIP3    H252259   3.122   2.029   1.422  0.7260 -1.6122  0.1260
10282TIP3   OH252260   1.848   4.928   0.538 -0.1636  0.0194 -0.1393
10282TIP3    H152261   1.889   5.012   0.520 -0.3359  0.0026 -0.6070
10282TIP3    H252262   1.839   4.886   0.453 -0.2319 -0.4028  0.0726
10283TIP3   OH252263   3.520   1.393   1.622 -0.0013 -0.2692  0.6903
10283TIP3    H152264   3.454   1.440   1.672 -1.0108  1.3998 -2.0759
10283TIP3    H252265   3.603   1.434   1.646 -0.6975  1.8926 -0.4833
10284TIP3   OH252266   1.492   6.926   0.839  0.2944 -0.5128  0.6051
10284TIP3    H152267   1.496   6.943   0.933 -2.0009  1.2556  0.4423
10284TIP3    H252268   1.506   7.012   0.798 -1.6645 -0.7045 -0.5462
10285TIP3   OH252269   1.558   6.642   0.847  0.0933 -0.3743  0.2358
10285TIP3    H152270   1.478   6.591   0.836  0.5036 -1.2269  1.1284
10285TIP3    H252271   1.529   6.733   0.850 -0.8140 -0.6650  0.3127
10286TIP3   OH252272   1.096   6.626   1.929 -0.0845  0.2480 -0.6261
10286TIP3    H152273   1.019   6.681   1.943 -0.7614 -0.6802 -0.6296
10286TIP3    H252274   1.168   6.673   1.971 -1.0051  0.2408  0.9862
10287TIP3   OH252275   6.930   5.527   3.228  0.0763 -0.1430 -0.4469
10287TIP3    H152276   6.925   5.584   3.150  0.5621  0.1271 -0.2833
10287TIP3    H252277   7.010   5.554   3.272 -0.4511  0.0312  0.4133
10288TIP3   OH252278   2.294   0.942   0.702  0.7230 -0.1475 -0.0149
10288TIP3    H152279   2.261   1.018   0.655  1.0064  0.7453  1.2116
10288TIP3    H252280   2.275   0.960   0.794 -0.2300 -2.0708  0.1821
10289TIP3   OH252281   1.686   3.336   2.297 -0.5436  0.4323  0.0848
10289TIP3    H152282   1.703   3.377   2.212  0.8781  1.1903  0.7145
10289TIP3    H252283   1.666   3.408   2.356  0.4013  0.1073  0.8340
10290TIP3   OH252284   4.935   5.841  13.378 -0.3569  0.2808  0.3204
10290TIP3    H152285   4.996   5.784  13.331 -1.4362 -0.0878 -0.6798
10290TIP3    H252286   4.986   5.918  13.402  0.2072  0.5118 -1.5510
10291TIP3   OH252287   3.513   5.379   4.948 -0.1861  0.4576  0.0234
10291TIP3    H152288   3.551   5.292   4.939  0.1473  0.6069 -0.0407
10291TIP3    H252289   3.588   5.438   4.940 -0.1007  0.6821  2.1182
10292TIP3   OH252290   2.449   0.823  15.362  0.4922  0.1089  0.4198
10292TIP3    H152291   2.507   0.750  15.384  0.7494 -0.6195 -2.4362
10292TIP3    H252292   2.362   0.782  15.354  0.5655  0.1775 -0.7713
10293TIP3   OH252293   2.067   0.792   1.771 -0.3815 -0.6891 -0.1116
10293TIP3    H152294   2.009   0.866   1.789  1.5311  0.4999  1.4425
10293TIP3    H252295   2.155   0.831   1.768  0.5719 -2.7636 -0.1375
10294TIP3   OH252296   6.901   6.896   1.775 -0.1018  0.3616  0.8747
10294TIP3    H152297   6.971   6.831   1.777  1.3824  1.7011 -2.7171
10294TIP3    H252298   6.913   6.947   1.854  0.6156 -1.7908  2.1958
10295TIP3   OH252299   3.679   6.348   3.717 -0.5367  0.9884 -0.7490
10295TIP3    H152300   3.676   6.287   3.644  2.2334  0.1109 -0.1842
10295TIP3    H252301   3.773   6.358   3.736 -1.1554  2.2636  1.7868
10296TIP3   OH252302   2.674   6.700   0.388 -0.2135 -0.2436  0.2958
10296TIP3    H152303   2.627   6.617   0.391 -0.9610  0.1610 -0.1766
10296TIP3    H252304   2.726   6.696   0.308 -1.2301  0.2749 -0.3885
10297TIP3   OH252305   0.247   2.338   0.827 -0.5051 -0.4419  0.8276
10297TIP3    H152306   0.327   2.326   0.879 -0.8378  1.8127  1.9005
10297TIP3    H252307   0.219   2.427   0.845 -0.9457  0.2552 -2.8306
10298TIP3   OH252308   2.605   3.609   4.827  0.6266 -0.4999  0.3443
10298TIP3    H152309   2.632   3.528   4.784  0.3558 -0.1595 -0.4673
10298TIP3    H252310   2.592   3.671   4.756  1.4461  0.4437  1.0158
10299TIP3   OH252311   2.494   4.307  12.042 -0.0492 -0.3006  0.8746
10299TIP3    H152312   2.409   4.264  12.043 -0.3947  0.3803  1.1854
10299TIP3    H252313   2.480   4.388  11.992  0.3071  0.0192  1.2826
10300TIP3   OH252314   2.247   5.794  12.958  0.9506  0.3964  0.2800
10300TIP3    H152315   2.239   5.866  13.021  0.5148  0.1345  0.5261
10300TIP3    H252316   2.310   5.826  12.894  1.1913  0.7773  0.6983
10301TIP3   OH252317   3.888   2.165  15.469  0.0780 -0.3146  0.2710
10301TIP3    H152318   3.919   2.075  15.454  1.2616 -0.0332  0.9200
10301TIP3    H252319   3.958   2.220  15.434 -0.4963  0.3509  0.1645
10302TIP3   OH252320   0.553   2.861  11.241  0.3939 -0.0827 -0.0265
10302TIP3    H152321   0.504   2.837  11.163  0.3132  0.4279 -0.1350
10302TIP3    H252322   0.491   2.847  11.313  0.1303  0.4469 -0.1515
10303TIP3   OH252323   1.000   7.039   1.100  0.4272  0.4536  0.4512
10303TIP3    H152324   1.010   6.950   1.066  0.4259  0.7520 -0.3498
10303TIP3    H252325   0.961   7.028   1.186  1.8179 -0.4073  0.9900
10304TIP3   OH252326   5.204   5.553   0.797 -0.4491  0.2334 -0.2199
10304TIP3    H152327   5.224   5.494   0.725  0.0544 -0.2616  0.3229
10304TIP3    H252328   5.175   5.634   0.755  1.8792  0.6859 -0.9967
10305TIP3   OH252329   1.325   0.441   4.233  0.3720  0.0758 -0.1785
10305TIP3    H152330   1.239   0.483   4.228  0.7594  0.8155 -0.6672
10305TIP3    H252331   1.370   0.470   4.154  1.1428 -0.1590  0.1762
10306TIP3   OH252332   6.124   0.558   1.812 -0.6406 -0.9507  0.3398
10306TIP3    H152333   6.204   0.579   1.860  0.6788  0.5809 -2.3901
10306TIP3    H252334   6.100   0.470   1.843  0.9540 -0.6304  2.6331
10307TIP3   OH252335   2.652   2.486   1.917 -0.6595  1.1745 -0.5743
10307TIP3    H152336   2.688   2.551   1.856  2.1932  1.8567  1.7557
10307TIP3    H252337   2.624   2.414   1.860 -0.4459  2.8414 -2.8901
10308TIP3   OH252338   2.871   0.413   1.690  0.0865 -0.2077 -0.1339
10308TIP3    H152339   2.823   0.395   1.771  0.3552 -0.6897 -0.0800
10308TIP3    H252340   2.808   0.394   1.620  0.1477 -0.6870 -0.0604
10309TIP3   OH252341   1.516   1.531   0.781 -0.1049  0.1965  0.4146
10309TIP3    H152342   1.546   1.547   0.692 -2.0086  0.3463 -0.2129
10309TIP3    H252343   1.547   1.442   0.801  0.0610  0.0406 -0.5148
10310TIP3   OH252344   3.061   5.995   0.981 -0.2623 -0.2621 -0.4809
10310TIP3    H152345   3.078   5.901   0.977  0.7867 -0.0334 -2.6021
10310TIP3    H252346   2.979   6.007   0.932 -0.4725 -0.0915 -0.0878
10311TIP3   OH252347   2.630   1.391   2.681  0.4559 -0.1436 -0.5421
10311TIP3    H152348   2.710   1.346   2.654 -0.1281 -1.1143 -0.7213
10311TIP3    H252349   2.622   1.372   2.774  0.3455 -0.1927 -0.5615
10312TIP3   OH252350   1.483   2.053   2.779 -0.3620 -0.4203 -0.5531
10312TIP3    H152351   1.454   2.095   2.860  1.6551  0.1889 -0.1365
10312TIP3    H252352   1.417   2.079   2.714 -0.4707  1.3700  0.2581
10313TIP3   OH252353   5.358   5.713  11.357  0.3900  0.3332 -0.2909
10313TIP3    H152354   5.379   5.619  11.359  2.3710  0.6884 -1.9667
10313TIP3    H252355   5.367   5.742  11.448 -3.6591 -1.7511  0.8720
10314TIP3   OH252356   5.644   5.494   0.406 -0.7337  0.6131  0.0185
10314TIP3    H152357   5.579   5.537   0.351 -0.7526 -0.9941 -1.2432
10314TIP3    H252358   5.728   5.531   0.379 -0.7764  0.0659 -0.8647
10315TIP3   OH252359   0.325   0.874   3.493 -0.3533  0.0618  0.9839
10315TIP3    H152360   0.233   0.899   3.498 -0.8824 -1.8129  1.0338
10315TIP3    H252361   0.369   0.932   3.556 -1.4241  1.2273  0.6801
10316TIP3   OH252362   3.003   1.884  13.674  0.3020 -0.4918 -0.0917
10316TIP3    H152363   3.004   1.935  13.755  0.1853 -1.7945  0.7341
10316TIP3    H252364   3.053   1.805  13.695  2.0609  0.1113 -1.9165
10317TIP3   OH252365   1.206   5.319   2.290 -0.5085 -0.3224 -0.1640
10317TIP3    H152366   1.129   5.367   2.320 -1.7527 -1.0773 -2.0196
10317TIP3    H252367   1.204   5.237   2.340 -0.2942  0.1231  0.5754
10318TIP3   OH252368   0.907   4.036  14.029 -0.1935  0.3617 -0.2278
10318TIP3    H152369   0.919   3.941  14.037  1.0620  0.5103 -0.2555
10318TIP3    H252370   0.814   4.046  14.007 -0.6692 -0.7696  1.1636
10319TIP3   OH252371   6.347   4.690   0.678  0.1771  0.2494  0.0801
10319TIP3    H152372   6.418   4.686   0.613 -0.1513 -0.8187 -0.2215
10319TIP3    H252373   6.274   4.728   0.630 -0.0844 -0.5974 -0.2063
10320TIP3   OH252374   6.980   1.498   0.982 -0.2657  0.8134 -0.1321
10320TIP3    H152375   6.990   1.444   1.060  2.2962 -0.4320 -1.2717
10320TIP3    H252376   7.013   1.584   1.007  3.2998 -0.3446 -0.6156
10321TIP3   OH252377   0.186   4.905   4.507  0.1038  0.0554  0.3556
10321TIP3    H152378   0.235   4.877   4.584  0.1735  1.1621  0.7205
10321TIP3    H252379   0.166   4.997   4.524  0.1883  0.3226 -0.9795
10322TIP3   OH252380   4.972   3.102   1.369 -0.4231 -0.2894 -0.1143
10322TIP3    H152381   5.062   3.081   1.344 -0.7291 -1.0374 -0.6271
10322TIP3    H252382   4.948   3.033   1.431 -0.4790  0.1844  0.3861
10323TIP3   OH252383   1.157   3.640   1.552  0.3668 -0.5168  0.4956
10323TIP3    H152384   1.178   3.656   1.644  1.9395 -0.3360  0.1272
10323TIP3    H252385   1.235   3.669   1.505  0.8138 -3.4608 -0.6864
10324TIP3   OH252386   6.136   4.636   3.973 -0.0364 -0.2304  0.1333
10324TIP3    H152387   6.087   4.694   3.914  1.4690  0.2685 -0.6431
10324TIP3    H252388   6.122   4.548   3.936 -1.1093 -0.2188  0.4716
10325TIP3   OH252389   2.322   7.047   2.856 -0.2959 -0.1874  0.1652
10325TIP3    H152390   2.414   7.042   2.830  0.3735 -0.4181  2.5006
10325TIP3    H252391   2.281   6.971   2.815  0.4110  0.2129 -1.3368
10326TIP3   OH252392   3.673   7.090  14.915 -0.1194 -0.1914  1.1461
10326TIP3    H152393   3.707   7.126  14.996 -1.9836  2.0237  0.9743
10326TIP3    H252394   3.723   7.133  14.846  0.6492 -1.2027  1.0533
10327TIP3   OH252395   1.261   6.575   1.212  0.4034  0.0858  0.1858
10327TIP3    H152396   1.288   6.632   1.284  2.4874  1.3044 -1.4766
10327TIP3    H252397   1.168   6.556   1.229  0.0552  2.7909  1.5832
10328TIP3   OH252398   2.544   1.628   2.286  0.2175  0.2514  0.3459
10328TIP3    H152399   2.617   1.584   2.242  0.5887  0.7657  0.4325
10328TIP3    H252400   2.546   1.717   2.250 -1.0964 -0.0564 -0.5172
10329TIP3   OH252401   3.603   6.768   0.569  0.2892 -0.1741 -0.5447
10329TIP3    H152402   3.511   6.755   0.590  0.0577  0.9755 -0.8112
10329TIP3    H252403   3.619   6.861   0.588  1.9550 -0.8480  1.6370
10330TIP3   OH252404   2.272   7.013  13.547 -0.0056  0.0540  0.4723
10330TIP3    H152405   2.345   7.014  13.609  0.1000  0.5621  0.3433
10330TIP3    H252406   2.313   7.023  13.461  0.0246 -2.8205  0.1181
10331TIP3   OH252407   2.093   4.147   0.722  0.0992 -0.0229 -0.0506
10331TIP3    H152408   2.132   4.224   0.680  0.4315 -0.1131  0.0862
10331TIP3    H252409   2.056   4.181   0.804  0.2977 -0.0186  0.0380
10332TIP3   OH252410   1.806   0.232  13.580  0.0041 -0.1412 -0.3615
10332TIP3    H152411   1.800   0.173  13.504 -0.6485  0.6527 -0.9394
10332TIP3    H252412   1.760   0.311  13.552  2.8747  1.5837 -0.4777
10333TIP3   OH252413   1.265   3.167   1.095 -0.1366  0.0391  0.3103
10333TIP3    H152414   1.289   3.156   1.003 -0.7884 -2.7449  0.4300
10333TIP3    H252415   1.289   3.084   1.136 -1.2897  0.6689  2.3255
10334TIP3   OH252416   2.509   4.877  14.942  0.2350 -0.0157 -0.4786
10334TIP3    H152417   2.560   4.901  14.865  2.6425 -2.1703  0.3757
10334TIP3    H252418   2.459   4.800  14.915 -0.4691  0.4343 -0.4729
10335TIP3   OH252419   4.163   5.020   3.249 -0.2699  0.9514 -0.2626
10335TIP3    H152420   4.161   4.963   3.172  0.5044  2.7562 -1.6543
10335TIP3    H252421   4.239   4.991   3.299 -0.4611  0.1316 -0.4454
10336TIP3   OH252422   7.145   3.534  14.894 -0.4384  0.7074 -0.6474
10336TIP3    H152423   7.105   3.620  14.895 -1.0688  0.4315 -1.7740
10336TIP3    H252424   7.086   3.480  14.841 -0.3764 -0.5747  0.5770
10337TIP3   OH252425   5.151   2.609  11.551  0.6627 -0.2595 -0.5729
10337TIP3    H152426   5.190   2.694  11.573  0.2239  0.4184 -2.3528
10337TIP3    H252427   5.217   2.567  11.495  0.6485 -0.8797 -0.1287
10338TIP3   OH252428   0.975   2.629  14.389  0.7684  0.1601 -0.3820
10338TIP3    H152429   0.908   2.695  14.408 -0.2987 -0.9282 -0.3243
10338TIP3    H252430   0.963   2.563  14.457  3.2703  0.9380  0.9018
10339TIP3   OH252431   0.273   6.268  13.695 -0.3026  0.3578 -0.0149
10339TIP3    H152432   0.362   6.268  13.662 -0.4980  0.0482 -0.5383
10339TIP3    H252433   0.226   6.332  13.641 -0.8283 -0.7706 -0.9136
10340TIP3   OH252434   3.086   0.230   1.148 -0.2747  0.2548  0.3789
10340TIP3    H152435   3.099   0.183   1.066 -1.1206  1.2141 -0.3222
10340TIP3    H252436   3.148   0.303   1.144 -0.8917  0.7723  0.2215
10341TIP3   OH252437   6.773   0.627   1.624  0.1140  0.0113  0.4422
10341TIP3    H152438   6.793   0.718   1.645  1.6664 -0.4016  0.8407
10341TIP3    H252439   6.833   0.576   1.678 -0.8459 -1.2579  0.3357
10342TIP3   OH252440   2.470   7.052   3.308  0.2559  0.1009  0.2275
10342TIP3    H152441   2.450   7.131   3.359 -1.7101  0.7418 -1.5047
10342TIP3    H252442   2.500   7.084   3.223  1.0580 -1.0146  0.0670
10343TIP3   OH252443   5.922   0.292  15.168  0.0852  0.3302  0.6566
10343TIP3    H152444   6.000   0.315  15.117 -1.1130  1.6864 -0.6132
10343TIP3    H252445   5.899   0.204  15.139 -0.4709  1.0101 -1.0633
10344TIP3   OH252446   4.765   0.926  14.561 -0.3479  0.2672 -0.0618
10344TIP3    H152447   4.794   0.974  14.484 -2.3832  0.1918 -0.9152
10344TIP3    H252448   4.754   0.993  14.629 -1.9898  0.8673 -0.8929
10345TIP3   OH252449   1.260   5.648   2.076 -0.4674 -0.1906  0.0947
10345TIP3    H152450   1.235   5.556   2.068 -2.0774  0.2956 -0.5558
10345TIP3    H252451   1.311   5.652   2.157  0.4569 -1.8252 -0.3879
10346TIP3   OH252452   4.008   4.831  13.733  0.6106  0.2325  0.4802
10346TIP3    H152453   3.942   4.816  13.666  1.3903  1.8397 -0.6839
10346TIP3    H252454   3.970   4.795  13.813 -1.1043 -0.0499 -0.4461
10347TIP3   OH252455   4.114   5.818  13.491  0.6993  0.1538 -0.0450
10347TIP3    H152456   4.183   5.807  13.426  0.4781  2.5841 -0.7454
10347TIP3    H252457   4.159   5.860  13.565  0.7921 -1.9056  1.0848
10348TIP3   OH252458   1.460   0.684   1.352  0.3042  0.4275  0.5590
10348TIP3    H152459   1.415   0.641   1.424 -1.5572 -0.3023 -0.9839
10348TIP3    H252460   1.504   0.613   1.305 -1.1398  0.4300 -0.8464
10349TIP3   OH252461   6.727   1.242   1.201 -0.5629  0.0526  0.1124
10349TIP3    H152462   6.672   1.265   1.275 -0.4399 -0.4941  0.3790
10349TIP3    H252463   6.798   1.306   1.203 -0.6420  0.1314  0.3762
10350TIP3   OH252464   3.813   5.895   0.773  0.0186  0.2429  0.2895
10350TIP3    H152465   3.757   5.963   0.738 -0.4431 -0.1736  0.2220
10350TIP3    H252466   3.888   5.893   0.713  0.0346  0.6866  0.2916
10351TIP3   OH252467   5.113   1.958   2.570 -0.4730  0.3222 -0.6698
10351TIP3    H152468   5.056   1.959   2.647  1.8971  0.1946  1.1580
10351TIP3    H252469   5.118   1.866   2.546  0.3437  0.0983  0.2851
10352TIP3   OH252470   4.241   4.283   2.437  0.1237 -0.7907 -0.5679
10352TIP3    H152471   4.199   4.221   2.377 -2.2351  1.4618 -1.3599
10352TIP3    H252472   4.212   4.255   2.524 -1.7271 -0.2963 -0.9886
10353TIP3   OH252473   4.604   1.769   4.344 -0.2976 -0.3138  0.0049
10353TIP3    H152474   4.538   1.736   4.406 -0.1148 -0.2652  0.2229
10353TIP3    H252475   4.670   1.810   4.399  1.3164 -2.7798 -0.0056
10354TIP3   OH252476   0.457   5.010   4.586 -0.0452 -0.3500  0.0695
10354TIP3    H152477   0.474   4.946   4.655  1.0421 -1.8880 -1.5714
10354TIP3    H252478   0.528   5.074   4.596 -0.6375  0.1311  1.1827
10355TIP3   OH252479   4.520   3.600   2.703 -0.4070  0.0201  0.2378
10355TIP3    H152480   4.568   3.646   2.771 -0.5048  1.9549 -0.9769
10355TIP3    H252481   4.465   3.537   2.751  1.3706 -0.3904  1.7730
10356TIP3   OH252482   0.710   5.096   4.874 -0.4267  0.1571 -0.1559
10356TIP3    H152483   0.766   5.087   4.797  0.7911 -0.8239  0.8218
10356TIP3    H252484   0.739   5.177   4.916  1.9349 -1.5037  1.6167
10357TIP3   OH252485   4.741   5.869   4.685 -0.3444 -0.5323  0.1673
10357TIP3    H152486   4.668   5.833   4.734  0.1705 -0.8182  0.7304
10357TIP3    H252487   4.819   5.837   4.731  0.1231  0.4124  0.0487
10358TIP3   OH252488   2.470   6.928  11.977  0.6582  0.1922  0.4995
10358TIP3    H152489   2.478   6.967  11.890  1.2938  1.5304  1.1360
10358TIP3    H252490   2.376   6.918  11.990  0.5854 -0.8375 -0.6782
10359TIP3   OH252491   2.268   6.925   2.274  0.1708  0.4426  0.0702
10359TIP3    H152492   2.244   6.846   2.323  3.7398 -1.4591 -1.0240
10359TIP3    H252493   2.283   6.991   2.341 -1.5390 -0.1720  1.1000
10360TIP3   OH252494   6.820   0.764   0.269 -0.4829 -0.5544 -0.2460
10360TIP3    H152495   6.761   0.699   0.307 -0.4934 -0.1424  0.4700
10360TIP3    H252496   6.901   0.716   0.251 -0.1475 -0.5706  1.1963
10361TIP3   OH252497   5.570   0.414   2.320  1.0457  0.4871  0.5120
10361TIP3    H152498   5.550   0.321   2.309  3.4765  0.1135 -0.8839
10361TIP3    H252499   5.515   0.458   2.255  0.5654 -0.0279  0.5648
10362TIP3   OH252500   0.424   2.743  15.049  0.3081  0.1597 -0.4776
10362TIP3    H152501   0.399   2.743  14.956 -2.0837 -0.1242  0.1344
10362TIP3    H252502   0.430   2.651  15.072 -0.2129  0.2250 -0.0741
10363TIP3   OH252503   4.951   4.672   3.716  0.4501 -0.1945  0.7148
10363TIP3    H152504   4.985   4.761   3.704 -0.6132  0.2548  1.0147
10363TIP3    H252505   4.879   4.682   3.777 -1.4320 -0.8645 -1.3365
10364TIP3   OH252506   0.518   3.036  14.766  0.4267  0.2576  0.0440
10364TIP3    H152507   0.463   2.958  14.755  1.8407 -0.4635 -2.3056
10364TIP3    H252508   0.486   3.097  14.699  1.8344  0.1931 -0.7001
10365TIP3   OH252509   0.113   0.748  12.654 -0.1815 -0.0634  0.5885
10365TIP3    H152510   0.091   0.666  12.609  1.6224 -0.2600  0.0384
10365TIP3    H252511   0.034   0.769  12.704 -1.4384 -1.0098 -0.9271
10366TIP3   OH252512   1.131   1.351   1.885 -0.0991 -0.0936  0.4613
10366TIP3    H152513   1.130   1.255   1.879 -1.6779 -0.0597  0.1709
10366TIP3    H252514   1.039   1.376   1.894  0.0420  1.5610 -2.0709
10367TIP3   OH252515   1.501   1.841  15.484 -0.1660 -0.7076 -0.4848
10367TIP3    H152516   1.494   1.909  15.550 -0.2221 -1.9165  0.7916
10367TIP3    H252517   1.411   1.814  15.466 -0.1248 -0.7183 -0.6733
10368TIP3   OH252518   3.431   1.416   0.394 -0.5889  0.0265  0.0473
10368TIP3    H152519   3.396   1.329   0.378 -1.6440  0.2940  0.8013
10368TIP3    H252520   3.526   1.406   0.387 -0.7375 -1.0363 -0.5129
10369TIP3   OH252521   2.492   1.591   2.551 -0.2237 -0.2977  0.6837
10369TIP3    H152522   2.520   1.612   2.462 -0.3336  2.2801  1.2252
10369TIP3    H252523   2.553   1.522   2.580  0.6024 -0.2644 -0.9247
10370TIP3   OH252524   4.076   0.905   2.400 -0.3633  0.1262 -0.1272
10370TIP3    H152525   4.027   0.829   2.434  1.2364 -0.1291  1.7112
10370TIP3    H252526   4.025   0.981   2.428 -0.1676 -0.1659  1.0476
10371TIP3   OH252527   1.535   1.395  15.000  0.5542 -0.7266  0.4034
10371TIP3    H152528   1.469   1.325  14.997 -0.1297 -0.0700 -0.0912
10371TIP3    H252529   1.546   1.422  14.909  1.2564 -0.5927  0.5271
10372TIP3   OH252530   1.306   6.522   0.916  0.0481  0.1145 -0.0202
10372TIP3    H152531   1.222   6.498   0.877 -0.2733  0.6925  0.3155
10372TIP3    H252532   1.284   6.555   1.003  0.6454  0.0528  0.1587
10373TIP3   OH252533   5.701   1.384  13.538 -0.2587 -0.0948  0.2328
10373TIP3    H152534   5.777   1.375  13.482 -1.5627 -0.3040 -1.5477
10373TIP3    H252535   5.682   1.294  13.567 -0.7879 -0.2756 -0.6471
10374TIP3   OH252536   7.041   7.056  14.605  0.2999  0.0779  0.4211
10374TIP3    H152537   6.974   7.002  14.564 -0.4606  0.3549  1.2855
10374TIP3    H252538   7.121   7.003  14.599 -0.2576 -0.7903  0.5266
10375TIP3   OH252539   2.696   1.134  15.147 -0.5195 -0.0051  0.4327
10375TIP3    H152540   2.761   1.076  15.186 -0.1073  0.8416  1.0166
10375TIP3    H252541   2.627   1.075  15.117 -0.4967 -0.7492  1.7652
10376TIP3   OH252542   4.936   1.116   2.429  0.0230 -0.0939 -0.1339
10376TIP3    H152543   4.938   1.151   2.340  1.7520  1.6143  0.5577
10376TIP3    H252544   4.849   1.138   2.462 -0.7675 -1.0881 -1.5097
10377TIP3   OH252545   7.101   5.625   1.987  0.3287  0.2193 -0.0720
10377TIP3    H152546   7.077   5.627   1.895  1.0147  2.0322 -0.2356
10377TIP3    H252547   7.060   5.703   2.025 -1.0745 -1.2319  1.4536
10378TIP3   OH252548   2.374   6.578  15.021 -0.1260  0.1768 -0.6862
10378TIP3    H152549   2.314   6.642  14.982  0.6153  1.8744  0.9110
10378TIP3    H252550   2.394   6.517  14.949 -2.3352  0.6159 -1.7133
10379TIP3   OH252551   0.493   2.503   2.438  0.3167  0.5925  0.1772
10379TIP3    H152552   0.425   2.450   2.397  0.9484  0.2217 -0.4078
10379TIP3    H252553   0.545   2.440   2.488  1.5956  0.4993 -1.2281
10380TIP3   OH252554   6.267   0.888  15.419 -0.1812  0.1138 -0.7809
10380TIP3    H152555   6.325   0.914  15.348  0.8676 -3.7058 -1.4539
10380TIP3    H252556   6.186   0.861  15.375  0.0164 -1.0641 -0.4285
10381TIP3   OH252557   5.663   1.696   0.247 -0.3325 -1.0888 -0.1757
10381TIP3    H152558   5.713   1.617   0.267  1.9488 -0.2736 -2.3367
10381TIP3    H252559   5.700   1.764   0.304 -2.8689 -1.6966  2.3061
10382TIP3   OH252560   2.081   6.354  13.310 -0.5024 -0.0138  0.6199
10382TIP3    H152561   2.150   6.388  13.252 -0.0944 -2.5432 -0.4283
10382TIP3    H252562   2.010   6.418  13.301  0.3917  0.8109 -0.9581
10383TIP3   OH252563   2.520   4.376   0.382 -1.0791  0.7088  0.4078
10383TIP3    H152564   2.472   4.322   0.445 -0.0447  0.3730  0.9148
10383TIP3    H252565   2.534   4.459   0.426  2.7499 -0.6898  2.0514
10384TIP3   OH252566   5.434   1.874   1.652  0.3784  0.5364  0.1300
10384TIP3    H152567   5.370   1.815   1.692 -1.0597  0.7163 -1.8426
10384TIP3    H252568   5.506   1.877   1.715 -1.4148  0.1122  2.2781
10385TIP3   OH252569   6.496   3.420   1.195  0.2092  0.3571 -0.2543
10385TIP3    H152570   6.506   3.449   1.286 -1.7011 -0.1355  0.1344
10385TIP3    H252571   6.570   3.360   1.181  1.6778  1.9826  0.3106
10386TIP3   OH252572   0.759   6.339  13.438  0.0946 -0.0719 -0.1115
10386TIP3    H152573   0.773   6.269  13.502  1.6166  1.2915  1.0826
10386TIP3    H252574   0.730   6.413  13.490 -0.1855  0.5918 -1.2064
10387TIP3   OH252575   5.150   4.872   2.131  0.4968  0.9795  0.2693
10387TIP3    H152576   5.110   4.795   2.172 -1.4161  1.8782  0.1723
10387TIP3    H252577   5.168   4.844   2.041 -1.1194  0.9408 -0.0579
10388TIP3   OH252578   1.666   5.496   0.597 -0.6968  0.5124 -0.3231
10388TIP3    H152579   1.591   5.539   0.556 -0.1470  2.6246  0.8147
10388TIP3    H252580   1.722   5.471   0.523 -3.2005 -2.5763 -1.3153
10389TIP3   OH252581   0.720   4.708  15.012 -0.2288 -0.4912 -0.0913
10389TIP3    H152582   0.814   4.723  15.007 -0.2895 -0.2640 -0.6704
10389TIP3    H252583   0.704   4.637  14.950 -0.5083 -0.1627 -0.4047
10390TIP3   OH252584   0.497   4.408  14.105 -0.0665 -0.1579 -0.3443
10390TIP3    H152585   0.450   4.465  14.045 -0.5800 -0.8021 -0.5539
10390TIP3    H252586   0.561   4.466  14.147 -1.2404  0.7795  0.1749
10391TIP3   OH252587   2.533   5.260   4.441  0.0889 -0.8053  0.8965
10391TIP3    H152588   2.474   5.190   4.415 -2.0652  0.8230  1.2696
10391TIP3    H252589   2.581   5.225   4.516  0.2950 -2.4789  0.0052
10392TIP3   OH252590   0.651   0.640   1.808  0.3179  0.1488  0.9867
10392TIP3    H152591   0.665   0.594   1.891 -0.6602 -0.5362  0.7785
10392TIP3    H252592   0.581   0.591   1.764  1.9468 -0.5125 -0.9941
10393TIP3   OH252593   1.450   6.984   4.811 -0.1730 -0.1804  0.2735
10393TIP3    H152594   1.528   6.989   4.756 -0.6660 -0.4682 -0.4539
10393TIP3    H252595   1.381   7.027   4.760 -0.4629  0.1878  0.9631
10394TIP3   OH252596   4.941   5.921   1.316  0.0772 -0.4079  0.4361
10394TIP3    H152597   4.937   5.998   1.373  1.1404 -0.1433  0.1670
10394TIP3    H252598   5.027   5.882   1.335 -0.7469 -1.9522  1.1119
10395TIP3   OH252599   4.334   4.982   1.882 -0.3318  0.0194  0.3828
10395TIP3    H152600   4.245   4.951   1.863  0.4338 -1.4614 -0.9576
10395TIP3    H252601   4.390   4.907   1.862  1.3911  1.5475 -0.6947
10396TIP3   OH252602   2.870   3.023   1.311  0.1793  0.1334  0.0432
10396TIP3    H152603   2.812   3.092   1.344  2.4974  1.3934  1.6012
10396TIP3    H252604   2.919   3.065   1.241 -0.0426 -0.6253 -0.5699
10397TIP3   OH252605   1.089   6.761   2.175  0.3602  0.1404 -0.0926
10397TIP3    H152606   1.126   6.846   2.196  0.1730  0.5388 -1.3405
10397TIP3    H252607   1.018   6.750   2.239  1.3342  0.2419  1.0291
10398TIP3   OH252608   2.506   3.277   0.043  0.1556  0.6538  0.0534
10398TIP3    H152609   2.488   3.371   0.050 -0.3267  0.6755 -1.4220
10398TIP3    H252610   2.471   3.252  -0.042 -0.5166 -1.0614  0.8151
10399TIP3   OH252611   0.694   1.728   0.054  0.0227  0.0671 -0.3656
10399TIP3    H152612   0.630   1.797   0.071 -2.1056 -1.6498 -1.2175
10399TIP3    H252613   0.778   1.768   0.077 -1.2629  2.5544  0.2456
10400TIP3   OH252614   6.558   1.646  13.389 -0.6861  0.6374  0.2376
10400TIP3    H152615   6.489   1.606  13.443 -1.6402 -0.2710 -1.6192
10400TIP3    H252616   6.519   1.728  13.357 -0.1857  1.0890  0.7757
10401TIP3   OH252617   1.850   1.342   1.928 -0.2069  0.0153 -0.2297
10401TIP3    H152618   1.849   1.275   1.860  1.0231  1.0080 -1.2332
10401TIP3    H252619   1.822   1.295   2.007  0.0942 -1.5500 -1.0270
10402TIP3   OH252620   3.624   4.042   1.245  0.0062  0.0260  0.2250
10402TIP3    H152621   3.537   4.016   1.217 -0.2854 -0.6101  1.6506
10402TIP3    H252622   3.684   3.988   1.193 -0.5315 -1.5527  1.2197
10403TIP3   OH252623   2.679   6.449   0.525 -0.4426 -0.5656 -0.0128
10403TIP3    H152624   2.723   6.371   0.491 -0.5268 -0.7707  0.3431
10403TIP3    H252625   2.744   6.489   0.583 -0.5833 -0.6560  0.2085
10404TIP3   OH252626   5.190   3.241   2.701 -0.3654  0.2769 -0.3159
10404TIP3    H152627   5.187   3.168   2.763 -3.1932 -0.8331 -1.6708
10404TIP3    H252628   5.259   3.218   2.639 -0.0177 -0.3753  0.3197
10405TIP3   OH252629   2.963   2.445   5.060 -0.3751 -0.2378 -0.0491
10405TIP3    H152630   3.033   2.391   5.097 -0.7264 -0.5068  0.2259
10405TIP3    H252631   2.901   2.456   5.132  0.4312  1.8412  0.3802
10406TIP3   OH252632   0.765   2.497   4.638  0.2553  0.1598 -0.1027
10406TIP3    H152633   0.850   2.532   4.666  1.7367 -1.5741 -2.2268
10406TIP3    H252634   0.765   2.407   4.671 -0.7797  0.1667 -0.0908
10407TIP3   OH252635   2.906   0.597  15.526 -0.1526 -0.4232  0.3193
10407TIP3    H152636   2.928   0.574  15.617 -0.2182  1.1596  0.7468
10407TIP3    H252637   2.895   0.692  15.528  2.3797 -0.0432 -1.8687
10408TIP3   OH252638   0.387   5.501   3.192 -0.2015  0.1440  0.1008
10408TIP3    H152639   0.464   5.479   3.244 -1.1312 -0.0657  1.3966
10408TIP3    H252640   0.420   5.506   3.102  1.7100  1.9540  0.8571
10409TIP3   OH252641   4.464   7.066  14.445  0.5812 -0.1752 -0.0033
10409TIP3    H152642   4.467   6.987  14.391  0.9261 -0.0641 -0.1495
10409TIP3    H252643   4.474   7.034  14.535  0.1485 -0.3473 -0.0144
10410TIP3   OH252644   2.851   1.518   0.853 -0.1949 -0.1674  0.2590
10410TIP3    H152645   2.803   1.444   0.889 -1.0593  1.0678  1.7331
10410TIP3    H252646   2.792   1.555   0.787  0.4251 -1.0447 -0.8032
10411TIP3   OH252647   6.458   4.133   0.885  0.2802 -0.1895 -0.0147
10411TIP3    H152648   6.544   4.154   0.922  0.8159  0.2605 -1.4815
10411TIP3    H252649   6.466   4.156   0.792 -1.3955 -0.2494 -0.1784
10412TIP3   OH252650   2.172   5.429  15.110  0.2825  0.0169 -0.0155
10412TIP3    H152651   2.189   5.487  15.036 -0.6099 -0.0449 -0.2762
10412TIP3    H252652   2.121   5.357  15.072  1.0210 -0.7250  0.3875
10413TIP3   OH252653   2.916   0.681   0.793  0.2400  0.2263 -0.2609
10413TIP3    H152654   2.865   0.725   0.861  0.8437  0.6175 -0.0565
10413TIP3    H252655   2.932   0.593   0.827 -0.9285 -0.1363 -0.6462
10414TIP3   OH252656   2.662   3.982  14.162  0.8844 -0.3648 -0.6816
10414TIP3    H152657   2.610   3.999  14.083  2.8807  1.0396 -1.7363
10414TIP3    H252658   2.599   3.946  14.225 -1.3748  1.4066 -1.8543
10415TIP3   OH252659   1.977   6.387   1.253  0.1112  0.5553  0.0335
10415TIP3    H152660   2.023   6.358   1.174  0.8710 -0.9073  0.9873
10415TIP3    H252661   2.047   6.421   1.310  0.0230 -1.4277  1.3813
10416TIP3   OH252662   3.795   5.698   2.157  0.6192 -0.4255 -0.2264
10416TIP3    H152663   3.752   5.672   2.238  0.0918  0.8530 -0.0878
10416TIP3    H252664   3.862   5.761   2.184 -0.5601  1.1523 -0.9281
10417TIP3   OH252665   1.416   3.954   2.325  0.1129  0.2419 -0.1987
10417TIP3    H152666   1.452   4.026   2.273  2.2671  0.6681  1.7834
10417TIP3    H252667   1.475   3.881   2.309  0.2988  0.1267  0.9677
10418TIP3   OH252668   5.859   0.053   3.032  0.4450 -0.0085 -0.1528
10418TIP3    H152669   5.904  -0.026   3.063 -0.5591  0.0176  1.4523
10418TIP3    H252670   5.785   0.021   2.980  0.7081 -0.1017 -0.4698
10419TIP3   OH252671   0.629   3.873   4.483 -0.4671  0.2038  0.4279
10419TIP3    H152672   0.642   3.963   4.513  0.3124 -0.2581  1.5315
10419TIP3    H252673   0.716   3.834   4.486 -0.5230 -0.1440 -1.6011
10420TIP3   OH252674   5.824   1.999  15.517 -0.8413 -0.0443  0.2385
10420TIP3    H152675   5.774   1.946  15.455 -1.3845  0.2097  0.4589
10420TIP3    H252676   5.895   1.941  15.545 -0.6925 -0.2219 -0.4833
10421TIP3   OH252677   1.142   2.244   4.267  0.4189 -0.0384  0.7072
10421TIP3    H152678   1.115   2.285   4.184 -0.0194 -0.6728  0.5279
10421TIP3    H252679   1.066   2.256   4.325  0.4756 -0.1609  0.8067
10422TIP3   OH252680   1.972   6.007   3.184  0.3739 -0.4398 -0.3693
10422TIP3    H152681   1.999   5.973   3.269 -1.9680  0.1984  0.6824
10422TIP3    H252682   1.958   5.929   3.131  0.8503 -0.8867  0.1520
10423TIP3   OH252683   1.173   6.568   5.857  0.0069  0.4678 -0.4395
10423TIP3    H152684   1.128   6.500   5.908 -0.7075 -0.3301 -2.0949
10423TIP3    H252685   1.123   6.648   5.874 -0.4383  0.1321 -0.1649
10424TIP3   OH252686   0.334   5.194   1.060 -0.2624  0.2096  0.0628
10424TIP3    H152687   0.275   5.121   1.075  0.1658  0.2739  2.2067
10424TIP3    H252688   0.277   5.271   1.054 -0.4100  0.3139  2.4221
10425TIP3   OH252689   0.132   3.957   0.075 -0.5606  0.3541  0.5517
10425TIP3    H152690   0.083   3.998   0.146  0.2450 -0.7580  1.7789
10425TIP3    H252691   0.119   4.015   0.000 -1.7356  1.3450  1.5000
10426TIP3   OH252692   1.655   6.906  12.177 -0.0058  0.5966 -0.6485
10426TIP3    H152693   1.573   6.931  12.219  0.0855 -4.1003  2.7733
10426TIP3    H252694   1.629   6.860  12.098 -0.4087  3.2888 -2.1494
10427TIP3   OH252695   6.747   3.908   1.524 -0.1232  0.1124 -0.1270
10427TIP3    H152696   6.839   3.920   1.502 -0.6975 -0.3016 -3.0016
10427TIP3    H252697   6.718   3.993   1.557  1.0769  0.4789  0.0024
10428TIP3   OH252698   0.515   6.207  13.936  0.4765 -0.4397  0.0976
10428TIP3    H152699   0.598   6.165  13.914  0.1818 -0.7308 -0.4796
10428TIP3    H252700   0.449   6.152  13.894  0.0092 -0.0566  0.3270
10429TIP3   OH252701   2.113   3.589   4.629 -0.0390 -0.1420 -0.6057
10429TIP3    H152702   2.163   3.550   4.700 -0.8559  1.4923  0.8987
10429TIP3    H252703   2.153   3.554   4.549  1.7561 -0.9385  0.6201
10430TIP3   OH252704   6.111   1.253   4.195  0.4332 -0.4485  0.1355
10430TIP3    H152705   6.177   1.254   4.264  0.6234  2.7414 -0.0313
10430TIP3    H252706   6.029   1.278   4.238  0.4212  0.9005 -0.6437
10431TIP3   OH252707   6.913   0.460   3.976 -0.0283  0.3277 -0.2866
10431TIP3    H152708   6.997   0.493   3.944  0.0874 -0.1171 -0.4501
10431TIP3    H252709   6.882   0.402   3.906 -0.3761  0.3349 -0.1391
10432TIP3   OH252710   1.357   6.023   1.944 -0.5756  0.5188 -0.6638
10432TIP3    H152711   1.371   5.998   2.035 -3.0036 -1.7170 -0.8520
10432TIP3    H252712   1.288   6.090   1.948 -0.3522  0.7588 -0.8203
10433TIP3   OH252713   6.819   0.895   1.713  0.6735  0.2267 -0.0971
10433TIP3    H152714   6.823   0.988   1.733 -2.7749  0.3396  0.3438
10433TIP3    H252715   6.823   0.852   1.799  1.2291 -0.0137 -0.2373
10434TIP3   OH252716   3.786   0.944   0.823  0.6773 -0.4455  0.5631
10434TIP3    H152717   3.822   1.008   0.762 -0.3757 -0.9358 -0.6046
10434TIP3    H252718   3.840   0.952   0.902 -0.0436  2.5274  0.7895
10435TIP3   OH252719   5.677   3.095   2.215 -0.1188  0.7176 -0.2884
10435TIP3    H152720   5.709   3.126   2.130 -0.3681  1.3341 -0.1643
10435TIP3    H252721   5.585   3.120   2.216 -0.0350  1.0221  0.3005
10436TIP3   OH252722   1.940   6.887   0.743  0.3363 -0.0415  0.1325
10436TIP3    H152723   1.937   6.951   0.671  1.2128 -1.2274 -0.9749
10436TIP3    H252724   1.921   6.803   0.701  0.2341 -0.6571  1.4017
10437TIP3   OH252725   1.691   3.673   4.026  0.5189  0.1606 -0.1673
10437TIP3    H152726   1.687   3.635   3.938 -1.2078  0.0480 -0.0526
10437TIP3    H252727   1.600   3.689   4.049  1.0119  0.8504  1.3268
10438TIP3   OH252728   0.195   0.904   1.144 -0.2284  0.2017 -0.3791
10438TIP3    H152729   0.165   0.991   1.171 -0.5083 -0.4656  1.5518
10438TIP3    H252730   0.115   0.857   1.121 -0.0725  0.4692 -1.4741
10439TIP3   OH252731   1.893   1.014   1.501  0.5592  0.4935 -1.0773
10439TIP3    H152732   1.875   1.003   1.408 -1.7103 -1.0273 -0.5073
10439TIP3    H252733   1.980   0.977   1.514 -0.1750 -1.6723 -2.1399
10440TIP3   OH252734   4.313   0.956   0.716  0.2334  0.0825  0.6833
10440TIP3    H152735   4.301   1.050   0.730  3.0216  0.5735  0.2171
10440TIP3    H252736   4.391   0.935   0.768 -0.7458 -2.1250  1.3028
10441TIP3   OH252737   3.358   0.768   1.156  0.1493  0.2184  0.0580
10441TIP3    H152738   3.297   0.756   1.083 -0.0961 -0.0328  0.3034
10441TIP3    H252739   3.400   0.852   1.139  1.3342 -0.6151 -1.2952
10442TIP3   OH252740   1.347   1.082   2.011 -0.4248  0.1360  0.5576
10442TIP3    H152741   1.399   1.023   2.067 -1.0187 -0.7162  0.2275
10442TIP3    H252742   1.293   1.132   2.072 -0.7056 -0.4374  0.7844
10443TIP3   OH252743   2.070   3.919   1.706 -0.5435  0.2809  0.1946
10443TIP3    H152744   2.073   3.924   1.801 -1.2924  1.6222  0.1620
10443TIP3    H252745   2.098   3.830   1.685  0.0051  0.1108  1.6432
10444TIP3   OH252746   4.902   6.441   3.387 -0.3176  0.0961  0.2430
10444TIP3    H152747   4.867   6.407   3.469 -0.0893  1.4498  0.9080
10444TIP3    H252748   4.968   6.505   3.414  1.3337 -1.0389 -0.9801
10445TIP3   OH252749   1.823   1.020   0.156 -0.5501  0.3807  0.1102
10445TIP3    H152750   1.812   0.935   0.199 -2.5556 -0.6678 -2.3798
10445TIP3    H252751   1.812   1.084   0.226 -0.8074 -1.3497  1.6781
10446TIP3   OH252752   0.966   1.130   3.676  0.3781  0.5312 -0.3973
10446TIP3    H152753   0.963   1.225   3.668  0.9561  0.5693 -0.1116
10446TIP3    H252754   0.880   1.101   3.645 -0.5316  1.2733  1.3934
10447TIP3   OH252755   1.408   5.692   4.182  0.4103 -0.2074 -1.0416
10447TIP3    H152756   1.358   5.774   4.184 -0.5120 -0.7689  0.3936
10447TIP3    H252757   1.368   5.641   4.112 -0.1229 -0.0939 -0.8246
10448TIP3   OH252758   5.609   0.043   2.854 -0.3225 -0.6954 -0.1140
10448TIP3    H152759   5.616  -0.052   2.846  1.6640 -0.7704  1.8690
10448TIP3    H252760   5.670   0.077   2.789  1.1585 -0.8792  1.1390
10449TIP3   OH252761   4.185   1.919  15.459 -0.5079  0.5383 -0.3163
10449TIP3    H152762   4.126   1.923  15.384  1.7305 -0.7840 -2.2017
10449TIP3    H252763   4.213   1.827  15.462  2.1965  1.3442 -0.0633
10450TIP3   OH252764   1.481   5.936   3.093 -0.6982  0.0237  0.1451
10450TIP3    H152765   1.528   5.868   3.142 -1.7289 -1.7673 -1.2694
10450TIP3    H252766   1.547   5.976   3.038  0.2590  1.3300  2.1736
10451TIP3   OH252767   1.526   2.626  14.629 -0.3141  0.3685  0.2903
10451TIP3    H152768   1.449   2.574  14.650  1.4646 -1.4768  2.5333
10451TIP3    H252769   1.559   2.656  14.714  1.7252  0.7095 -0.5985
10452TIP3   OH252770   1.772   1.595   1.384 -0.5577  0.3726 -0.5433
10452TIP3    H152771   1.679   1.599   1.359 -0.3541  0.1319 -1.3569
10452TIP3    H252772   1.782   1.665   1.449 -1.5806 -0.4255  0.4996
10453TIP3   OH252773   0.450   6.727   1.414  0.0643 -0.1435 -0.5517
10453TIP3    H152774   0.509   6.665   1.457  0.0726 -0.7535 -1.4358
10453TIP3    H252775   0.507   6.776   1.354  0.0586  0.7338  0.1288
10454TIP3   OH252776   3.558   6.769   1.842  0.0559  0.2858 -0.1387
10454TIP3    H152777   3.583   6.711   1.914  0.4192 -0.3887 -0.7990
10454TIP3    H252778   3.463   6.766   1.840  0.1048 -0.9237 -0.6826
10455TIP3   OH252779   1.003   5.226  15.210  0.6115  0.1342 -0.5660
10455TIP3    H152780   1.038   5.143  15.177  1.3567  0.4578 -0.5938
10455TIP3    H252781   1.071   5.260  15.268  0.5809  1.0347 -1.0419
10456TIP3   OH252782   2.149   4.629   4.035 -0.2449  0.0314  0.2338
10456TIP3    H152783   2.229   4.681   4.038 -1.0179  1.2407  0.1141
10456TIP3    H252784   2.090   4.673   4.095  0.6024 -3.3083  3.7374
10457TIP3   OH252785   0.828   4.633   1.357 -0.0638  0.1870 -0.5243
10457TIP3    H152786   0.744   4.631   1.402  0.2430  4.9797  0.4675
10457TIP3    H252787   0.807   4.665   1.269  0.4910 -0.6266 -0.9597
10458TIP3   OH252788   6.933   2.767  15.237  0.5701  0.4194 -0.1653
10458TIP3    H152789   6.949   2.791  15.145  1.6625  0.8126  0.1234
10458TIP3    H252790   6.978   2.683  15.247 -1.2653 -0.6305 -0.5335
10459TIP3   OH252791   4.295   7.094  12.533 -0.2615 -0.2743  0.3936
10459TIP3    H152792   4.265   7.150  12.605  0.9117  0.1965  0.5317
10459TIP3    H252793   4.388   7.082  12.550  0.3694  1.1209 -1.8878
10460TIP3   OH252794   4.572   6.832   1.676 -0.0153  0.1292 -0.0252
10460TIP3    H152795   4.568   6.776   1.753 -1.8872 -0.7051 -0.6764
10460TIP3    H252796   4.643   6.893   1.694  1.8588 -2.2114  0.8711
10461TIP3   OH252797   1.713   6.677   1.956  0.3014 -0.2904 -0.1988
10461TIP3    H152798   1.660   6.671   2.036  0.3629 -2.0627 -0.2651
10461TIP3    H252799   1.774   6.603   1.962  1.0635  0.2365 -1.3416
10462TIP3   OH252800   0.422   1.055   2.283 -0.1731  0.0878 -0.8453
10462TIP3    H152801   0.419   0.981   2.344 -0.4745 -0.0954 -1.0817
10462TIP3    H252802   0.514   1.082   2.283 -0.2363  0.3297 -0.0232
10463TIP3   OH252803   0.476   1.003   1.819  0.5164 -0.5192  0.1199
10463TIP3    H152804   0.481   0.911   1.794 -1.6170 -0.3831 -0.9162
10463TIP3    H252805   0.413   1.042   1.758  2.3164  1.9188 -0.2521
10464TIP3   OH252806   7.109   6.566   2.513  0.7608  0.2483  0.1525
10464TIP3    H152807   7.084   6.553   2.605  0.1796 -1.6985 -0.2807
10464TIP3    H252808   7.043   6.520   2.463 -0.2184  3.1848 -1.3821
10465TIP3   OH252809   3.059   5.866   0.163 -0.3254 -0.0854  0.1790
10465TIP3    H152810   2.999   5.851   0.236 -0.3934 -2.4302 -0.3059
10465TIP3    H252811   3.010   5.923   0.104 -1.4799 -0.6864  0.5345
10466TIP3   OH252812   4.090   0.245  15.265 -0.0967 -0.1803  0.5663
10466TIP3    H152813   4.058   0.315  15.209  0.8614 -0.5891 -0.5005
10466TIP3    H252814   4.054   0.265  15.352 -0.2640  1.3168  0.1524
10467TIP3   OH252815   4.628   4.382   1.480  0.1533  0.0413 -0.2582
10467TIP3    H152816   4.668   4.376   1.393 -0.9273  0.3563 -0.7967
10467TIP3    H252817   4.577   4.463   1.476  1.8102  1.1762  1.4062
10468TIP3   OH252818   5.958   1.580  14.029 -0.1051 -0.5243  0.3522
10468TIP3    H152819   6.031   1.610  14.082 -1.1888  2.2761  0.3425
10468TIP3    H252820   5.956   1.639  13.954 -1.5135 -1.4282 -0.3612
10469TIP3   OH252821   6.107   0.828   0.882 -0.2848  0.5307  0.6598
10469TIP3    H152822   6.198   0.821   0.911 -0.4376 -0.5063  0.9190
10469TIP3    H252823   6.107   0.786   0.796 -0.7770 -0.7071  1.2480
10470TIP3   OH252824   2.936   1.925   5.331  0.6742 -0.3735  0.0418
10470TIP3    H152825   2.871   1.860   5.359  0.3697 -0.7559 -1.5287
10470TIP3    H252826   3.018   1.894   5.371 -0.0349 -0.0026  1.8627
10471TIP3   OH252827   1.423   1.989  15.135 -0.9252  0.1052 -0.4751
10471TIP3    H152828   1.435   2.077  15.171 -1.3215 -0.0628  0.0727
10471TIP3    H252829   1.483   1.934  15.185 -0.5431  0.0868 -0.9397
10472TIP3   OH252830   4.711   1.479  14.970 -0.2055  0.0358 -0.1172
10472TIP3    H152831   4.772   1.486  14.896 -0.5295 -1.8141 -0.6002
10472TIP3    H252832   4.735   1.550  15.029  1.8488 -0.1433 -0.7134
10473TIP3   OH252833   2.951   0.507   2.811  0.5337 -0.6273 -0.2995
10473TIP3    H152834   3.024   0.455   2.846  0.4781 -0.1465  0.5262
10473TIP3    H252835   2.956   0.591   2.858 -2.9532 -1.9675  2.6686
10474TIP3   OH252836   1.537   3.034   0.419 -0.0053 -0.9127  0.0208
10474TIP3    H152837   1.501   3.121   0.397 -0.6301 -0.9592  0.8402
10474TIP3    H252838   1.553   3.038   0.513  1.7486 -1.0521 -0.2477
10475TIP3   OH252839   5.386   2.714   1.623 -0.7808  0.1395 -0.6846
10475TIP3    H152840   5.345   2.793   1.587  0.1828  0.9805  0.0664
10475TIP3    H252841   5.351   2.707   1.712  0.1272  0.4257 -0.3090
10476TIP3   OH252842   5.961   6.707   3.194 -0.1128 -1.2111  0.8175
10476TIP3    H152843   6.021   6.650   3.147 -0.4296 -1.9942  1.3535
10476TIP3    H252844   5.993   6.708   3.284 -0.0906 -0.5118  0.8072
10477TIP3   OH252845   5.071   0.768  12.703  0.1130 -0.7079 -0.4825
10477TIP3    H152846   4.978   0.748  12.696 -0.4706  0.9301  2.1079
10477TIP3    H252847   5.081   0.853  12.658  0.6768 -1.6099 -2.1246
10478TIP3   OH252848   6.578   2.270   2.846  0.2257 -0.6846 -0.2417
10478TIP3    H152849   6.671   2.261   2.826 -0.0225 -0.5561 -1.4687
10478TIP3    H252850   6.535   2.204   2.791 -0.3984 -0.8767  0.4626
10479TIP3   OH252851   5.862   1.522   0.633 -0.5672 -0.2799  0.1805
10479TIP3    H152852   5.917   1.460   0.585  1.0392  1.2883 -0.0539
10479TIP3    H252853   5.840   1.476   0.714  1.6872 -0.7000  0.6012
10480TIP3   OH252854   2.573   6.997   0.395  0.9423 -0.8074 -0.3529
10480TIP3    H152855   2.517   6.992   0.472 -1.7806 -0.5035 -2.2387
10480TIP3    H252856   2.610   6.910   0.386  0.8675 -0.9842  0.9768
10481TIP3   OH252857   0.238   6.554  14.140 -0.3391  0.3376 -0.2789
10481TIP3    H152858   0.242   6.537  14.046 -2.3506  0.1410 -0.3542
10481TIP3    H252859   0.329   6.571  14.165  0.0245  2.0809 -2.5645
10482TIP3   OH252860   6.859   2.599   2.507 -0.1096 -0.0551  0.4540
10482TIP3    H152861   6.779   2.571   2.551  0.4156 -0.8522  0.8974
10482TIP3    H252862   6.861   2.694   2.520 -0.2157 -0.2200  1.6981
10483TIP3   OH252863   6.782   5.978  14.790 -0.2456  0.0618  1.0426
10483TIP3    H152864   6.713   6.000  14.853  0.6773  1.3376  1.6146
10483TIP3    H252865   6.774   6.046  14.723  0.4944  0.2480  1.1437
10484TIP3   OH252866   7.142   2.795   2.741  0.3375  0.0398  0.0823
10484TIP3    H152867   7.118   2.717   2.792 -1.8403 -0.2514 -1.3498
10484TIP3    H252868   7.113   2.868   2.795 -0.2314 -0.2044  0.1073
10485TIP3   OH252869   3.421   4.720  15.444  0.0529  0.0739  0.4462
10485TIP3    H152870   3.436   4.780  15.517 -0.8300  2.0778 -0.9799
10485TIP3    H252871   3.346   4.757  15.397 -1.5445 -3.0210  0.4185
10486TIP3   OH252872   4.291   3.510   3.084 -0.8265  0.2916 -0.0045
10486TIP3    H152873   4.287   3.469   3.171  0.8723  0.4099  0.1503
10486TIP3    H252874   4.329   3.596   3.100  2.4004 -0.8399 -1.1984
10487TIP3   OH252875   6.777   3.688  15.056  0.6959 -0.3270 -0.0418
10487TIP3    H152876   6.764   3.695  15.150  1.8321  0.5615  0.0552
10487TIP3    H252877   6.735   3.765  15.019 -0.3465 -1.0227 -0.3318
10488TIP3   OH252878   5.639   6.520   0.678 -0.2022  0.1524  0.3954
10488TIP3    H152879   5.697   6.507   0.753  0.6080 -0.0070 -0.2493
10488TIP3    H252880   5.553   6.493   0.709 -0.0850  1.0982  1.5956
10489TIP3   OH252881   7.097   2.744  13.806  0.0824  0.0564 -0.3544
10489TIP3    H152882   7.097   2.780  13.895 -1.9350  0.7051 -0.5960
10489TIP3    H252883   7.131   2.655  13.816 -3.4168 -1.1176  1.6168
10490TIP3   OH252884   6.643   2.764   0.478 -0.2845 -0.4671  0.1189
10490TIP3    H152885   6.579   2.693   0.484 -0.4578 -0.1703  1.8952
10490TIP3    H252886   6.614   2.828   0.542 -0.1509  1.2555 -1.5101
10491TIP3   OH252887   3.564   6.644   5.504  0.0953  0.1388 -0.1145
10491TIP3    H152888   3.593   6.650   5.595  0.0609  1.6775 -0.1972
10491TIP3    H252889   3.641   6.670   5.453  0.4108 -1.6352 -0.5747
10492TIP3   OH252890   0.684   1.308  14.536  0.4295  0.8589 -0.1828
10492TIP3    H152891   0.626   1.275  14.468  1.6075  0.8710 -1.2250
10492TIP3    H252892   0.636   1.297  14.618 -1.0397  0.9202 -1.0329
10493TIP3   OH252893   7.086   5.915   2.256  0.1133  0.1575 -0.0328
10493TIP3    H152894   7.078   5.985   2.191  0.5725 -0.2608 -0.5403
10493TIP3    H252895   7.004   5.866   2.247 -0.1386  0.5300  0.2098
10494TIP3   OH252896   2.546   6.146   2.525  0.5138  0.7034  0.3609
10494TIP3    H152897   2.533   6.196   2.445  1.1665 -0.1549 -0.2852
10494TIP3    H252898   2.515   6.204   2.595 -0.0877  1.4353 -0.5115
10495TIP3   OH252899   6.214   0.577   4.482  0.3611  0.0740 -0.4354
10495TIP3    H152900   6.130   0.611   4.513  0.0597 -1.7740  0.8504
10495TIP3    H252901   6.221   0.490   4.521  1.7879 -0.7646 -2.4419
10496TIP3   OH252902   2.578   0.479   1.756  0.0325 -0.0789 -0.3471
10496TIP3    H152903   2.581   0.554   1.696  0.9006  0.4106  0.3048
10496TIP3    H252904   2.639   0.502   1.826 -1.4924 -0.3584  1.0862
10497TIP3   OH252905   3.001   2.417   2.730 -0.2553 -0.8831 -0.6429
10497TIP3    H152906   3.060   2.390   2.800  1.1402  3.9466  0.2475
10497TIP3    H252907   3.057   2.428   2.653 -0.4415  0.9291 -0.5437
10498TIP3   OH252908   6.112   2.455  14.542  0.2603  0.3292 -0.7153
10498TIP3    H152909   6.138   2.405  14.465 -0.1749  0.6936 -1.1008
10498TIP3    H252910   6.069   2.533  14.507 -2.1532 -0.6749 -0.1129
10499TIP3   OH252911   1.830   0.765   0.249 -0.1680 -0.3353  0.7103
10499TIP3    H152912   1.911   0.729   0.286 -0.6678 -0.4342  1.7108
10499TIP3    H252913   1.763   0.701   0.271 -0.1707 -1.3080 -1.9827
10500TIP3   OH252914   1.688   6.959   0.605 -0.0493 -0.3714  0.0166
10500TIP3    H152915   1.709   6.904   0.681 -0.0972 -2.7246 -1.6238
10500TIP3    H252916   1.751   7.031   0.609  0.1793 -0.6648  2.0638
10501TIP3   OH252917   4.518   5.833  15.079  0.0322 -0.4756 -0.0344
10501TIP3    H152918   4.519   5.816  14.985  2.6592  0.4720 -0.2464
10501TIP3    H252919   4.542   5.926  15.086  0.7561 -0.7635  1.5770
10502TIP3   OH252920   2.802   1.457   0.534 -0.2393  0.2280  0.0310
10502TIP3    H152921   2.841   1.375   0.503 -0.7983 -0.7863  1.9215
10502TIP3    H252922   2.877   1.514   0.550  0.2263 -0.3244 -0.1553
10503TIP3   OH252923   1.161   1.184   4.169 -0.3876  0.1956  0.1437
10503TIP3    H152924   1.104   1.249   4.129 -2.1760 -0.6312  1.3187
10503TIP3    H252925   1.183   1.123   4.098 -0.1183  1.0974 -0.5456
10504TIP3   OH252926   5.541   0.765  14.181  0.6379 -0.7955 -0.2866
10504TIP3    H152927   5.455   0.725  14.175  0.8697 -1.3633  0.2581
10504TIP3    H252928   5.539   0.835  14.115 -0.2487 -0.7781 -0.2399
10505TIP3   OH252929   4.415   0.547   5.464  0.2018  0.2707  0.1664
10505TIP3    H152930   4.498   0.530   5.508  0.4981 -0.4739 -0.6476
10505TIP3    H252931   4.437   0.606   5.392  0.1481 -0.4450 -0.4464
10506TIP3   OH252932   1.029   5.644   3.887  0.1345 -0.0135 -0.1517
10506TIP3    H152933   0.960   5.615   3.947  0.5543  1.9329  1.3269
10506TIP3    H252934   1.109   5.605   3.921  0.1637 -0.0526 -0.2656
10507TIP3   OH252935   3.745   0.891  12.080 -0.0764  0.1653 -0.0895
10507TIP3    H152936   3.677   0.892  12.013 -1.5568 -0.9796  1.3396
10507TIP3    H252937   3.712   0.950  12.148  0.6306  0.0277  0.3764
10508TIP3   OH252938   0.651   6.945  15.370 -0.1797  0.0833 -0.2252
10508TIP3    H152939   0.722   6.974  15.426 -0.3695 -0.0993  0.1109
10508TIP3    H252940   0.586   6.907  15.430  0.5030 -1.9516 -0.7381
10509TIP3   OH252941   1.053   2.348   0.615  0.3143  0.5455 -0.7874
10509TIP3    H152942   1.100   2.429   0.594 -0.5036  1.1662 -0.2731
10509TIP3    H252943   1.042   2.351   0.710  0.3642 -0.2277 -0.7525
10510TIP3   OH252944   6.777   1.374   4.490  0.2127  0.5663 -1.0102
10510TIP3    H152945   6.756   1.287   4.524 -1.5501  1.2351 -0.3585
10510TIP3    H252946   6.873   1.376   4.489  0.3047 -0.1949  2.0763
10511TIP3   OH252947   4.354   1.400   5.510  0.3902  0.7439  0.0036
10511TIP3    H152948   4.281   1.355   5.552 -0.0675  1.0139 -0.5059
10511TIP3    H252949   4.428   1.384   5.569  0.1818 -0.4608 -0.0387
10512TIP3   OH252950   2.075   5.861   1.314  0.1856  0.2906  0.3373
10512TIP3    H152951   2.023   5.781   1.313  1.0626 -0.2723 -2.0247
10512TIP3    H252952   2.156   5.836   1.360  0.3545 -0.1106 -0.1771
10513TIP3   OH252953   3.095   0.862   0.672  0.0632  0.4716 -0.4278
10513TIP3    H152954   3.022   0.807   0.700  1.3282  0.0446  2.2171
10513TIP3    H252955   3.172   0.805   0.681  0.7280  0.8368 -3.3660
10514TIP3   OH252956   2.642   6.259   0.895  0.3825 -0.1131 -0.3404
10514TIP3    H152957   2.705   6.272   0.965  0.4045 -1.0023 -0.1928
10514TIP3    H252958   2.557   6.281   0.934  0.5411  0.6325 -0.4075
10515TIP3   OH252959   3.001   5.635  15.011 -0.7017 -0.5362 -0.2423
10515TIP3    H152960   3.021   5.696  14.940  0.0532  0.3798  0.7523
10515TIP3    H252961   2.975   5.690  15.085  1.1310 -1.3303  1.0323
10516TIP3   OH252962   6.929   6.118   2.463  0.3524 -0.4895 -0.2493
10516TIP3    H152963   7.015   6.076   2.454 -0.0054 -1.0693 -0.9843
10516TIP3    H252964   6.920   6.134   2.556  1.9228  0.9394 -0.3170
10517TIP3   OH252965   6.075   0.733  12.433  0.0643  0.6996 -0.5533
10517TIP3    H152966   6.050   0.673  12.363  0.0859 -0.9837  0.8700
10517TIP3    H252967   6.166   0.757  12.413  0.3811 -0.5199 -0.5972
10518TIP3   OH252968   1.834   1.571  13.046  0.4289  0.4679  0.2061
10518TIP3    H152969   1.796   1.495  13.090 -3.4548  1.7772 -0.6118
10518TIP3    H252970   1.921   1.543  13.020  0.5432 -2.3834  3.2720
10519TIP3   OH252971   2.443   5.901   2.488 -0.0626  0.1460  0.2336
10519TIP3    H152972   2.466   5.991   2.512 -0.6950  0.7333 -1.2876
10519TIP3    H252973   2.349   5.895   2.504 -0.2490  0.1427 -0.8256
10520TIP3   OH252974   0.531   2.329  13.475 -0.3373  0.6782  0.3368
10520TIP3    H152975   0.510   2.418  13.503 -1.2906  0.0790  1.5791
10520TIP3    H252976   0.617   2.312  13.514 -0.6561  0.6511  1.0231
10521TIP3   OH252977   3.287   2.027   2.961 -0.4343 -0.8158  0.1736
10521TIP3    H152978   3.195   2.039   2.987 -0.6240 -0.9855 -0.4138
10521TIP3    H252979   3.298   1.932   2.957  0.1539 -0.8287  1.5904
10522TIP3   OH252980   4.095   6.140   0.194  0.4849  0.1892 -0.4115
10522TIP3    H152981   4.071   6.232   0.196  2.5862  0.8088 -2.7102
10522TIP3    H252982   4.054   6.105   0.115  0.5327 -0.6029 -0.0966
10523TIP3   OH252983   2.490   5.546   4.366 -0.5161 -0.1219 -0.3071
10523TIP3    H152984   2.560   5.578   4.309  0.2603  0.1094  0.7664
10523TIP3    H252985   2.508   5.452   4.376 -0.4088 -0.0788 -0.0953
10524TIP3   OH252986   1.097   5.579  13.630 -0.0048 -0.4617 -0.2012
10524TIP3    H152987   1.105   5.655  13.573 -0.4693 -0.9980 -0.9891
10524TIP3    H252988   1.148   5.602  13.708 -0.7449  0.9430 -0.1223
10525TIP3   OH252989   1.219   2.346   2.369 -0.4993  0.0205 -0.6763
10525TIP3    H152990   1.202   2.255   2.396  1.1393 -0.0169  0.2960
10525TIP3    H252991   1.157   2.362   2.298 -1.6511 -1.4606 -0.0321
10526TIP3   OH252992   0.959   1.168   0.283 -0.2738 -0.0991  0.0169
10526TIP3    H152993   0.895   1.127   0.341 -1.5175  1.4204 -0.2325
10526TIP3    H252994   1.044   1.144   0.319 -1.0318  0.1824  2.0089
10527TIP3   OH252995   5.998   5.699   2.635 -0.0156  0.0738  0.1680
10527TIP3    H152996   6.007   5.693   2.730  0.6843 -0.5138  0.0624
10527TIP3    H252997   6.086   5.686   2.601 -0.4458 -0.9400 -0.6126
10528TIP3   OH252998   1.400   5.872  14.098  0.3363 -0.3773 -0.0714
10528TIP3    H152999   1.467   5.806  14.113  0.1174 -0.7468 -0.7051
10528TIP3    H253000   1.420   5.908  14.012 -0.0238 -0.1866 -0.0763
10529TIP3   OH253001   2.905   1.668   3.059  0.4063 -0.1141  0.4303
10529TIP3    H153002   2.948   1.585   3.076  0.7725  0.5218  2.8321
10529TIP3    H253003   2.812   1.646   3.049  0.4724 -0.7922  1.2829
10530TIP3   OH253004   1.461   6.463   4.318  0.9041 -0.3282 -0.6364
10530TIP3    H153005   1.418   6.385   4.282 -2.6324  1.6935 -0.9624
10530TIP3    H253006   1.496   6.509   4.242  0.0424  0.1031 -0.7748
10531TIP3   OH253007   0.222   1.611   3.742  0.1516 -0.1909 -0.2924
10531TIP3    H153008   0.272   1.691   3.727 -2.4404  1.3927 -0.9427
10531TIP3    H253009   0.225   1.565   3.658  2.6819 -1.4209  0.4457
10532TIP3   OH253010   0.870   0.470  14.462  0.2022  0.4315 -0.5129
10532TIP3    H153011   0.934   0.540  14.475 -0.1118  0.4373  1.0846
10532TIP3    H253012   0.786   0.515  14.460  0.0287  0.1346  0.1256
10533TIP3   OH253013   0.017   6.776   3.773  0.3180  0.0103 -0.2548
10533TIP3    H153014   0.041   6.866   3.750 -0.2940 -0.2441 -1.9916
10533TIP3    H253015   0.052   6.723   3.701  0.1826 -1.0765  0.4709
10534TIP3   OH253016   0.995   6.405   3.398  0.2695 -0.0130 -0.3607
10534TIP3    H153017   0.941   6.427   3.323  1.4928  0.2244 -1.1878
10534TIP3    H253018   1.027   6.316   3.380  0.1125 -0.1774  0.1491
10535TIP3   OH253019   1.605   6.612  15.416  0.3143  0.5654 -0.4509
10535TIP3    H153020   1.545   6.635  15.344 -0.2057  1.8851  0.3809
10535TIP3    H253021   1.674   6.561  15.374  1.3389  3.3883 -2.3708
10536TIP3   OH253022   1.322   1.480   1.695 -0.3107  0.1024  0.4247
10536TIP3    H153023   1.277   1.451   1.775 -0.2625 -0.5088  0.2273
10536TIP3    H253024   1.281   1.565   1.675 -1.0270 -0.2137  0.5302
10537TIP3   OH253025   4.749   6.994   1.798 -0.4216 -0.2412  0.2157
10537TIP3    H153026   4.759   7.003   1.893 -1.3809 -0.8961  0.3857
10537TIP3    H253027   4.816   6.930   1.773 -1.1845 -1.2414  0.6885
10538TIP3   OH253028   3.242   4.274  13.971  0.0733 -0.3087  0.3857
10538TIP3    H153029   3.219   4.205  14.033  1.2980 -0.8947  0.1844
10538TIP3    H253030   3.321   4.314  14.007 -0.2692  0.5778  0.1740
10539TIP3   OH253031   6.378   5.363  14.947  0.5781  0.0105  0.0219
10539TIP3    H153032   6.402   5.455  14.938 -0.6516  0.6555  2.8680
10539TIP3    H253033   6.283   5.363  14.956  0.6813 -1.3884  1.5131
10540TIP3   OH253034   1.208   0.330   2.364 -0.2420 -0.1101  0.1726
10540TIP3    H153035   1.181   0.277   2.440 -0.6238 -1.2757 -0.7703
10540TIP3    H253036   1.128   0.377   2.340 -0.0827  0.3734  0.5791
10541TIP3   OH253037   5.106   7.050  12.452 -0.1062 -0.1113  0.5605
10541TIP3    H153038   5.022   7.083  12.420 -0.7828 -0.3875  2.0246
10541TIP3    H253039   5.160   7.127  12.463 -0.6327  0.2083  0.9362
10542TIP3   OH253040   0.196   3.150   0.925 -0.2421 -0.2728  0.2422
10542TIP3    H153041   0.231   3.105   1.002 -0.1355  1.8470  1.4646
10542TIP3    H253042   0.101   3.152   0.940 -0.3027 -0.6311 -0.1015
10543TIP3   OH253043   1.800   1.570   3.459 -0.1258  0.1625  0.3461
10543TIP3    H153044   1.840   1.519   3.388 -2.1288  0.3756 -0.9665
10543TIP3    H253045   1.783   1.505   3.527  1.8813 -0.0321  0.6974
10544TIP3   OH253046   3.384   5.876  14.885 -0.8008  0.2201 -0.3154
10544TIP3    H153047   3.364   5.967  14.864  0.6331  0.7754  0.6287
10544TIP3    H253048   3.470   5.880  14.927 -1.0581 -1.4842  0.4011
10545TIP3   OH253049   6.336   5.637   5.586 -0.0882  0.2059  0.5819
10545TIP3    H153050   6.406   5.700   5.602 -0.3282  0.8351 -0.7348
10545TIP3    H253051   6.259   5.676   5.628 -0.4058  1.1913 -0.8362
10546TIP3   OH253052   2.755   5.308   1.195  0.4968 -0.1323  0.3332
10546TIP3    H153053   2.739   5.401   1.175  0.3178  0.0147  1.1390
10546TIP3    H253054   2.694   5.261   1.137  0.4353  0.2617  0.0738
10547TIP3   OH253055   1.217   6.210  14.073  0.7250  0.6291  0.1539
10547TIP3    H153056   1.156   6.281  14.052 -0.4098  0.4380  2.5703
10547TIP3    H253057   1.193   6.139  14.014 -0.7487  0.9204  0.3704
10548TIP3   OH253058   4.881   5.031   1.390 -0.1123 -0.1628 -0.1467
10548TIP3    H153059   4.850   5.007   1.302  0.2859 -2.0990  0.2213
10548TIP3    H253060   4.968   4.993   1.396 -0.0128  0.2239  0.9894
10549TIP3   OH253061   1.722   4.693   0.643  0.8822  0.5674  0.4160
10549TIP3    H153062   1.762   4.778   0.625 -0.9806  0.6812 -3.6734
10549TIP3    H253063   1.638   4.714   0.683  1.0592  0.6021  0.7699
10550TIP3   OH253064   1.803   4.596   3.416  0.1246  0.0447 -0.0281
10550TIP3    H153065   1.795   4.512   3.462  0.0714 -0.3848 -0.8182
10550TIP3    H253066   1.733   4.650   3.453 -0.6180 -0.6601 -0.3765
10551TIP3   OH253067   1.379   0.696  14.921 -0.2991 -0.6367 -0.2529
10551TIP3    H153068   1.370   0.643  14.842  0.7299 -0.2645 -0.6360
10551TIP3    H253069   1.396   0.784  14.890 -0.0676 -0.4492  0.3820
10552TIP3   OH253070   0.615   2.994   0.242  1.0546  0.6812 -0.6624
10552TIP3    H153071   0.580   3.016   0.328  3.0099 -0.4444  0.4554
10552TIP3    H253072   0.581   2.906   0.225  1.8168  0.3229 -0.3777
10553TIP3   OH253073   3.380   0.421   5.306 -0.1533 -0.2750  0.1092
10553TIP3    H153074   3.434   0.401   5.230 -0.6189  1.2264 -0.6337
10553TIP3    H253075   3.342   0.507   5.287 -3.8414 -1.8559  0.0289
10554TIP3   OH253076   3.530   4.220   2.573 -0.4120 -0.0393 -0.1793
10554TIP3    H153077   3.603   4.250   2.519 -0.0330 -1.8580 -0.7243
10554TIP3    H253078   3.455   4.215   2.513 -0.1527 -1.4181 -0.3979
10555TIP3   OH253079   0.593   0.856  15.335  0.0514  0.5440 -0.0822
10555TIP3    H153080   0.560   0.817  15.254  0.1375  0.3686 -0.0348
10555TIP3    H253081   0.679   0.815  15.347 -0.6797 -0.7118  1.0038
10556TIP3   OH253082   3.615   0.219   5.092  0.5457  0.8849  0.0967
10556TIP3    H153083   3.577   0.305   5.077 -0.2186  0.7123  1.0204
10556TIP3    H253084   3.543   0.158   5.076  0.6154  0.5163  1.1475
10557TIP3   OH253085   6.202   7.007  14.445  0.3370  0.5706 -0.3751
10557TIP3    H153086   6.160   6.981  14.362  0.5911 -0.4583 -0.1890
10557TIP3    H253087   6.264   7.076  14.420  2.5190 -1.7179 -1.5071
10558TIP3   OH253088   0.528   6.789   2.354 -0.5240 -0.0586  0.5262
10558TIP3    H153089   0.551   6.880   2.336 -0.9238  0.1080  0.8546
10558TIP3    H253090   0.500   6.789   2.445 -0.7750 -0.4616  0.4504
10559TIP3   OH253091   6.018   4.915  13.470 -0.0211  0.0177 -0.4194
10559TIP3    H153092   6.020   4.855  13.396 -1.9930 -1.8507  0.9697
10559TIP3    H253093   6.090   4.887  13.526  0.0545 -0.0198 -0.5352
10560TIP3   OH253094   1.610   4.544   3.664 -0.3457  0.4594 -0.0912
10560TIP3    H153095   1.522   4.527   3.630 -1.5920 -1.3437  3.7572
10560TIP3    H253096   1.657   4.462   3.651 -0.4317  0.1841  1.3503
10561TIP3   OH253097   1.705   2.708  13.156  0.5115  0.0462 -0.1803
10561TIP3    H153098   1.745   2.654  13.088  0.4364 -1.0827  0.6521
10561TIP3    H253099   1.710   2.797  13.123  1.4928 -0.3691 -1.1646
10562TIP3   OH253100   0.742   0.174   1.833 -0.2810  0.6105 -0.6080
10562TIP3    H153101   0.722   0.118   1.907  0.2225 -0.6089 -1.3852
10562TIP3    H253102   0.662   0.175   1.781 -0.2957  0.6420 -0.5853
10563TIP3   OH253103   1.711   0.544   3.334 -0.8346  1.0264 -0.2796
10563TIP3    H153104   1.649   0.560   3.404 -0.3530 -0.8782  0.6123
10563TIP3    H253105   1.797   0.562   3.372 -0.4505 -1.5368  0.1231
10564TIP3   OH253106   6.383   0.237   3.584 -0.1428 -0.2406  0.2226
10564TIP3    H153107   6.307   0.294   3.574 -0.1141  0.3353  2.8621
10564TIP3    H253108   6.400   0.203   3.496 -1.0954  2.6048 -1.1215
10565TIP3   OH253109   1.105   5.815   2.261 -0.2958 -1.0658 -0.7655
10565TIP3    H153110   1.137   5.752   2.196 -1.1331  0.1118 -2.3673
10565TIP3    H253111   1.011   5.801   2.263 -0.4742  0.0200 -1.0373
10566TIP3   OH253112   2.840   6.182   1.085  0.1892 -0.2748  0.1480
10566TIP3    H153113   2.865   6.095   1.115 -1.9566 -0.6977  0.7993
10566TIP3    H253114   2.920   6.234   1.093  1.5979 -2.2573 -0.6217
10567TIP3   OH253115   0.979   6.620   4.795  0.5661  0.4201 -0.0986
10567TIP3    H153116   1.030   6.551   4.751 -1.7430 -1.6982  0.4338
10567TIP3    H253117   0.908   6.640   4.733  0.2113  1.0505  0.5061
10568TIP3   OH253118   4.371   6.443  14.983  0.7003 -0.1310 -0.1287
10568TIP3    H153119   4.329   6.403  14.907  3.2963 -0.1877 -1.5809
10568TIP3    H253120   4.341   6.391  15.058  0.4879 -1.9670 -1.4676
10569TIP3   OH253121   5.178   2.710  13.514  0.2661 -0.3578 -0.4275
10569TIP3    H153122   5.226   2.661  13.581 -0.1571  0.8046  0.7483
10569TIP3    H253123   5.188   2.802  13.540 -3.3202 -0.1200  0.3560
10570TIP3   OH253124   3.060   2.460   0.940 -0.5863 -0.5716 -0.1237
10570TIP3    H153125   3.052   2.545   0.897 -1.4892 -1.3061 -1.4500
10570TIP3    H253126   3.053   2.479   1.034 -0.2618  0.8596 -0.3907
10571TIP3   OH253127   6.744   0.604  14.282  0.1025 -0.5447  0.5316
10571TIP3    H153128   6.721   0.545  14.210 -2.0607 -0.1169  0.8503
10571TIP3    H253129   6.701   0.686  14.260 -0.3132 -0.3178  2.1606
10572TIP3   OH253130   4.589   4.745   4.646 -0.0087 -0.6764 -0.6040
10572TIP3    H153131   4.509   4.771   4.691  0.0797  1.4210 -1.6124
10572TIP3    H253132   4.560   4.710   4.562  0.0018 -2.2571  0.0186
10573TIP3   OH253133   0.888   4.265   2.962  0.2815  0.0301 -0.0096
10573TIP3    H153134   0.873   4.324   3.036  0.8702 -0.4805  0.5151
10573TIP3    H253135   0.874   4.320   2.885 -1.4946  0.2735  0.4721
10574TIP3   OH253136   0.358   6.914   0.604  0.3491 -0.1141  0.1958
10574TIP3    H153137   0.421   6.898   0.674  1.1134  3.0481  0.2949
10574TIP3    H253138   0.278   6.941   0.650 -0.6803 -2.6599  0.0020
10575TIP3   OH253139   1.149   0.124   3.000  0.3157 -0.0138  0.2200
10575TIP3    H153140   1.206   0.054   2.967 -1.4211 -1.0231 -0.7302
10575TIP3    H253141   1.208   0.197   3.018  1.9645 -1.1938 -0.2640
10576TIP3   OH253142   2.107   5.131   0.553 -0.3180 -0.2232  0.1218
10576TIP3    H153143   2.132   5.047   0.515  0.3175  0.2781 -0.6132
10576TIP3    H253144   2.139   5.127   0.643 -1.5796 -1.3155  0.5313
10577TIP3   OH253145   6.397   1.501  14.500 -0.1532 -0.0499 -0.4545
10577TIP3    H153146   6.315   1.545  14.520  1.5194  2.7871  0.4857
10577TIP3    H253147   6.434   1.479  14.586  1.0731  0.6565 -0.7834
10578TIP3   OH253148   2.332   2.380  15.318 -0.7492 -0.3556 -0.2081
10578TIP3    H153149   2.272   2.344  15.252 -0.9862 -1.4692  0.6168
10578TIP3    H253150   2.344   2.309  15.381  1.6775 -0.2379 -0.5182
10579TIP3   OH253151   6.675   6.770   4.032 -0.0635  0.1857  0.2350
10579TIP3    H153152   6.620   6.705   4.077 -1.1510  1.0303  0.1409
10579TIP3    H253153   6.626   6.852   4.039  0.8611  0.8088 -0.4711
10580TIP3   OH253154   5.434   5.362  13.163  0.2237  0.3572 -0.3094
10580TIP3    H153155   5.503   5.312  13.206  0.6975 -1.0028 -2.5392
10580TIP3    H253156   5.461   5.453  13.170  0.7309  0.0863  1.4252
10581TIP3   OH253157   2.763   3.707  15.081  0.0028  0.3052 -0.2547
10581TIP3    H153158   2.772   3.790  15.033  0.6222  0.4657  0.1455
10581TIP3    H253159   2.847   3.695  15.126 -1.0524  0.8533  1.9215
10582TIP3   OH253160   3.305   1.266  14.498  0.4143  0.1046 -0.2858
10582TIP3    H153161   3.224   1.238  14.541  0.2747 -2.5993 -2.1380
10582TIP3    H253162   3.282   1.271  14.405  2.4256 -1.0077 -0.8781
10583TIP3   OH253163   6.153   0.666   4.044 -0.0467 -0.1272  0.1865
10583TIP3    H153164   6.139   0.575   4.020 -0.6862 -0.8043  3.0010
10583TIP3    H253165   6.087   0.684   4.111  0.5595  2.1746  0.2193
10584TIP3   OH253166   4.784   2.443  14.430  0.5147 -0.2756  0.0657
10584TIP3    H153167   4.797   2.465  14.523  0.8156 -0.8268  0.1538
10584TIP3    H253168   4.865   2.399  14.404  0.1351 -0.7801 -0.2639
10585TIP3   OH253169   7.091   6.272   0.625  0.2202  0.8576  0.7829
10585TIP3    H153170   6.998   6.288   0.645 -0.2289  0.2379 -0.7254
10585TIP3    H253171   7.090   6.198   0.564  1.7299  0.6964  0.9387
10586TIP3   OH253172   4.091   0.225  13.627  0.0788 -0.5290  0.4518
10586TIP3    H153173   4.109   0.315  13.599 -1.2601 -0.6783 -0.9833
10586TIP3    H253174   4.034   0.234  13.703 -0.5515 -0.1616 -0.0592
10587TIP3   OH253175   6.541   0.224   0.930  0.9107  0.1586  0.2039
10587TIP3    H153176   6.489   0.216   0.850 -0.4133  0.9646  0.9571
10587TIP3    H253177   6.587   0.141   0.937 -1.4358 -1.1834  0.2777
10588TIP3   OH253178   4.232   3.347   1.346  0.7427 -0.2621  0.4135
10588TIP3    H153179   4.173   3.401   1.399 -0.1161 -0.4502 -0.3447
10588TIP3    H253180   4.197   3.258   1.356  1.0870 -0.4195  0.2198
10589TIP3   OH253181   1.547   7.158   2.827 -0.3431  0.2352 -0.0116
10589TIP3    H153182   1.624   7.176   2.772 -0.2824  1.3089  0.4061
10589TIP3    H253183   1.540   7.235   2.883  0.0410 -1.1522  2.0086
10590TIP3   OH253184   5.294   5.653   0.048  0.2161  0.2010  0.0433
10590TIP3    H153185   5.291   5.731   0.103 -2.2458  0.5453 -0.5480
10590TIP3    H253186   5.232   5.670  -0.023 -0.2819 -2.2542 -0.1582
10591TIP3   OH253187   3.893   6.140  14.547 -0.1182  0.4535 -0.1075
10591TIP3    H153188   3.873   6.115  14.637 -0.0673  4.2325  1.0548
10591TIP3    H253189   3.989   6.144  14.544 -0.0726 -0.7578 -0.6902
10592TIP3   OH253190   0.958   1.329   0.606  0.2383  0.3401  0.1239
10592TIP3    H153191   0.909   1.404   0.640  1.5450  0.7702  1.1065
10592TIP3    H253192   1.050   1.353   0.617  0.6792 -0.7593 -1.0143
10593TIP3   OH253193   2.304   7.096   3.709  0.7334 -0.0787  0.2097
10593TIP3    H153194   2.236   7.091   3.642  2.4118 -0.6104 -1.5047
10593TIP3    H253195   2.327   7.005   3.727  0.0190  0.0368  1.8417
10594TIP3   OH253196   4.756   4.770   4.989  0.1881 -0.5951 -0.2002
10594TIP3    H153197   4.710   4.771   5.073  0.8199 -0.6040  0.1538
10594TIP3    H253198   4.794   4.683   4.983 -1.2857 -1.1742 -1.2993
10595TIP3   OH253199   5.663   5.310   2.997 -0.8359  0.0369 -0.3887
10595TIP3    H153200   5.754   5.300   3.025 -0.7812 -1.4568 -1.1009
10595TIP3    H253201   5.667   5.308   2.902 -1.7380 -1.1650 -0.4086
10596TIP3   OH253202   1.123   0.131   1.274 -0.2819  0.0175  0.1029
10596TIP3    H153203   1.194   0.088   1.322 -0.4767  2.1354  2.3697
10596TIP3    H253204   1.047   0.073   1.286  0.2651 -0.6599  0.3137
10597TIP3   OH253205   3.979   0.924  13.106 -0.1583  0.1986 -0.3394
10597TIP3    H153206   4.033   0.861  13.059 -2.4035 -1.5009 -0.7635
10597TIP3    H253207   3.943   0.873  13.179 -0.4512  1.5400  0.4577
10598TIP3   OH253208   4.089   6.163   1.530  0.0939  0.0101 -0.0230
10598TIP3    H153209   4.099   6.132   1.620  1.5370 -0.5371 -0.3582
10598TIP3    H253210   3.994   6.161   1.514 -0.2270  0.6890  1.6732
10599TIP3   OH253211   4.848   6.929  12.276  0.1662 -0.2024 -0.1662
10599TIP3    H153212   4.838   7.003  12.336 -0.2028  0.2352 -0.7675
10599TIP3    H253213   4.806   6.856  12.323 -0.0848  0.1261  0.1274
10600TIP3   OH253214   4.394   2.488   1.357 -0.1163  0.1098  0.1573
10600TIP3    H153215   4.468   2.493   1.417 -0.1567 -0.3477  0.2496
10600TIP3    H253216   4.403   2.402   1.316 -0.2721  0.2874 -0.2524
10601TIP3   OH253217   1.667   6.191   3.252  0.3993 -0.4647 -0.0748
10601TIP3    H153218   1.728   6.208   3.180  0.4786 -0.6592 -0.0542
10601TIP3    H253219   1.580   6.197   3.213  0.4758 -1.9271 -0.4744
10602TIP3   OH253220   2.323   6.634  12.684  0.0807 -0.0516 -0.5983
10602TIP3    H153221   2.369   6.675  12.757 -2.3130 -1.1174  1.6169
10602TIP3    H253222   2.270   6.704  12.647 -0.1687  0.0593 -0.0421
10603TIP3   OH253223   0.285   1.800   1.326  0.0058  0.3110  0.3178
10603TIP3    H153224   0.335   1.776   1.404  1.0611 -2.9564 -1.2773
10603TIP3    H253225   0.340   1.865   1.282 -0.5734  2.1353  2.2467
10604TIP3   OH253226   1.944   1.235   2.433  0.6867 -0.3644  0.0247
10604TIP3    H153227   1.883   1.183   2.486 -1.8360 -0.5453 -2.9508
10604TIP3    H253228   1.998   1.170   2.389  0.6339 -0.3178 -0.1085
10605TIP3   OH253229   1.292   0.916   1.598 -0.3415  0.3421  0.4766
10605TIP3    H153230   1.262   0.839   1.549  1.0042 -0.0423  0.2528
10605TIP3    H253231   1.306   0.983   1.531  1.2783 -0.1137  0.3413
10606TIP3   OH253232   2.241   5.928   4.197  0.4193 -0.2629  0.5730
10606TIP3    H153233   2.149   5.957   4.195 -0.1785 -2.0264 -2.4050
10606TIP3    H253234   2.292   6.009   4.195 -1.1392  0.7390 -1.8064
10607TIP3   OH253235   2.446   2.902   1.362 -0.3717 -0.0589  0.1184
10607TIP3    H153236   2.491   2.818   1.361  1.9795  1.1367  1.1278
10607TIP3    H253237   2.515   2.965   1.384 -2.0483  2.1440 -0.7975
10608TIP3   OH253238   1.651   3.792  14.156 -0.1019 -0.2004 -0.0366
10608TIP3    H153239   1.707   3.733  14.207 -0.9763 -1.2996 -0.3320
10608TIP3    H253240   1.573   3.803  14.210  0.9978  2.5774  1.0903
10609TIP3   OH253241   2.754   3.361   3.843  0.2068  0.1212 -0.4219
10609TIP3    H153242   2.666   3.337   3.872 -0.2056 -0.0105 -1.7110
10609TIP3    H253243   2.804   3.280   3.845  0.1595  0.0979 -0.1821
10610TIP3   OH253244   1.413   0.059  15.097  0.2772 -0.0457 -0.2879
10610TIP3    H153245   1.332   0.008  15.102  0.3344 -0.3365 -2.0104
10610TIP3    H253246   1.404   0.125  15.166 -1.1235 -0.5047 -0.0102
10611TIP3   OH253247   1.768   6.985   3.251  0.1334 -0.0968 -0.3958
10611TIP3    H153248   1.720   6.946   3.178 -1.5669 -0.3876  0.8159
10611TIP3    H253249   1.762   7.079   3.237  1.1362 -0.1818 -1.4319
10612TIP3   OH253250   5.314   2.358  13.900  0.1892 -0.1728  0.4618
10612TIP3    H153251   5.260   2.380  13.976 -0.5246 -1.0831  0.2336
10612TIP3    H253252   5.364   2.281  13.929  0.5265 -0.0229  0.2822
10613TIP3   OH253253   5.796   4.989  15.334 -0.0985 -0.0493  1.1185
10613TIP3    H153254   5.702   4.996  15.319  0.0448  0.2029  0.2894
10613TIP3    H253255   5.827   4.932  15.263  1.1233  3.9125 -1.7145
10614TIP3   OH253256   5.631   0.153   0.555  0.6364  0.3540  0.1199
10614TIP3    H153257   5.707   0.096   0.565 -0.3554 -0.8693  0.7494
10614TIP3    H253258   5.555   0.094   0.556 -0.2931  1.4810 -1.1897
10615TIP3   OH253259   0.608   0.975  15.081 -0.2959 -0.5769  0.4008
10615TIP3    H153260   0.540   1.028  15.040  1.8369  1.7243 -0.2843
10615TIP3    H253261   0.635   1.025  15.158  2.8950  0.2323 -1.1625
10616TIP3   OH253262   1.799   3.521  14.853  0.0754 -0.0667  0.5884
10616TIP3    H153263   1.847   3.599  14.826  0.7108 -0.9666 -0.9283
10616TIP3    H253264   1.860   3.473  14.908 -0.4770  0.7106  1.9086
10617TIP3   OH253265   1.063   3.288   2.457 -0.2138  0.5756 -0.1029
10617TIP3    H153266   1.059   3.196   2.481  0.0185  0.8283  0.9396
10617TIP3    H253267   1.011   3.294   2.376 -0.7093 -0.3635  0.1349
10618TIP3   OH253268   2.737   2.430   0.808 -0.0744  0.0760  0.2864
10618TIP3    H153269   2.760   2.479   0.887  1.4293 -1.6761  0.9661
10618TIP3    H253270   2.805   2.454   0.744  1.5717 -2.2272  1.1059
10619TIP3   OH253271   7.057   1.656  15.258 -0.1087  0.4841 -0.0580
10619TIP3    H153272   7.104   1.624  15.335 -0.1516  0.0821 -0.1995
10619TIP3    H253273   6.975   1.691  15.292 -0.5194 -0.5009 -0.0157
10620TIP3   OH253274   6.695   3.684  10.525 -0.1425  0.4358  0.0701
10620TIP3    H153275   6.646   3.706  10.446 -1.4402  0.1670  0.7967
10620TIP3    H253276   6.656   3.738  10.593  0.9657  0.6569  0.5457
10621TIP3   OH253277   3.106   0.407  13.136  0.1059 -0.5835  0.2334
10621TIP3    H153278   3.053   0.458  13.198 -0.1889 -1.9390  1.1270
10621TIP3    H253279   3.071   0.430  13.050  0.3185  1.0972  0.5913
10622TIP3   OH253280   1.020   4.594   5.768  0.0344 -0.1577  0.0727
10622TIP3    H153281   1.050   4.515   5.721 -0.6318 -0.7924  0.7050
10622TIP3    H253282   1.075   4.664   5.734  0.2003 -0.7848 -0.9719
10623TIP3   OH253283   5.169   1.614  13.704  0.0396 -0.0266 -0.2256
10623TIP3    H153284   5.117   1.596  13.626 -1.4699  1.7666  0.3220
10623TIP3    H253285   5.127   1.562  13.773  0.8776 -0.9792 -0.4241
10624TIP3   OH253286   0.729   3.837   1.085  0.6668  0.0313 -0.1318
10624TIP3    H153287   0.819   3.804   1.076  0.1128 -1.7595  0.6439
10624TIP3    H253288   0.727   3.915   1.030  2.5276 -0.2608 -0.6700
10625TIP3   OH253289   4.028   2.743   2.021 -0.1774 -0.1613 -0.6370
10625TIP3    H153290   3.952   2.797   2.003  0.3092  1.0961  0.9845
10625TIP3    H253291   4.102   2.792   1.985  0.2666  0.2868  0.8471
10626TIP3   OH253292   1.023   2.793   0.956 -0.0405  0.6503 -0.2482
10626TIP3    H153293   1.054   2.730   0.891 -0.7295  0.8110 -0.7377
10626TIP3    H253294   1.100   2.811   1.010 -0.0920 -1.4783  0.6197
10627TIP3   OH253295   1.755   7.129  13.036 -0.3051  0.0271  0.0512
10627TIP3    H153296   1.733   7.124  12.943 -1.5658 -0.0968  0.3527
10627TIP3    H253297   1.707   7.056  13.076  0.7669 -0.3397  0.7047
10628TIP3   OH253298   3.722   4.523  11.606 -1.1877  0.3810 -0.0708
10628TIP3    H153299   3.791   4.469  11.568 -0.9241  1.3264 -0.9903
10628TIP3    H253300   3.644   4.468  11.604 -1.3348  0.5875 -2.6402
10629TIP3   OH253301   6.173   6.003   3.105 -0.6449  0.3719  0.1617
10629TIP3    H153302   6.083   6.029   3.128 -0.1545  1.6399  0.6835
10629TIP3    H253303   6.205   5.959   3.184 -0.4515  0.8623  0.3598
10630TIP3   OH253304   6.044   0.983   3.695 -0.1843 -0.5217  0.4655
10630TIP3    H153305   6.126   1.011   3.655 -0.3774  0.1431  0.5371
10630TIP3    H253306   6.043   0.888   3.681  0.3435 -0.4669 -0.0010
10631TIP3   OH253307   1.508   3.571   1.735 -0.4667  0.2215 -0.2979
10631TIP3    H153308   1.451   3.641   1.702 -0.1851  0.7280  0.2831
10631TIP3    H253309   1.588   3.580   1.683 -1.0237 -0.7136 -1.3615
10632TIP3   OH253310   2.301   0.691   4.135 -0.5290 -0.4881  0.3030
10632TIP3    H153311   2.225   0.743   4.161 -0.2936  0.8555 -1.5948
10632TIP3    H253312   2.376   0.735   4.176 -0.5704 -0.5955  0.4904
10633TIP3   OH253313   6.329   7.011   0.913 -0.4200 -0.1269  0.2681
10633TIP3    H153314   6.316   6.938   0.853 -0.7233  2.0700 -2.4708
10633TIP3    H253315   6.394   6.980   0.975  0.1746 -2.4093 -1.4352
10634TIP3   OH253316   0.139   2.060  14.204  0.1014 -0.1230  0.2811
10634TIP3    H153317   0.181   1.998  14.145 -0.2458 -0.7505  0.6779
10634TIP3    H253318   0.082   2.113  14.148  0.2519 -0.2901 -0.0287
10635TIP3   OH253319   6.655   5.488   2.066 -0.3704 -0.5281 -0.3382
10635TIP3    H153320   6.656   5.465   2.159  0.1601  0.7952 -0.0019
10635TIP3    H253321   6.570   5.457   2.035 -0.8758 -0.3022  0.7803
10636TIP3   OH253322   5.720   0.152   1.694 -0.5343 -0.4498  0.1615
10636TIP3    H153323   5.758   0.189   1.774 -0.5140 -1.9586  0.8717
10636TIP3    H253324   5.680   0.226   1.649 -0.0861  0.5003  1.3194
10637TIP3   OH253325   4.374   0.245   2.045 -0.0016 -0.1079 -0.2784
10637TIP3    H153326   4.393   0.164   2.090 -0.9245 -0.5403 -0.6416
10637TIP3    H253327   4.411   0.314   2.100 -1.7771 -0.5600  1.5351
10638TIP3   OH253328   6.233   1.008   2.452  0.2097 -0.4251 -0.0062
10638TIP3    H153329   6.138   1.011   2.439  0.1008  0.1723  0.8425
10638TIP3    H253330   6.244   1.022   2.546  1.1659  0.2041 -0.2050
10639TIP3   OH253331   4.989   3.114   1.789 -0.1681  0.1620 -0.4238
10639TIP3    H153332   4.993   3.171   1.712 -0.4381  1.2697  0.3713
10639TIP3    H253333   4.895   3.108   1.809 -0.2152 -1.2752 -1.0204
10640TIP3   OH253334   4.585   1.182   3.033  0.0530 -0.1991  0.3609
10640TIP3    H153335   4.618   1.130   3.107 -0.0971  0.3198  0.7962
10640TIP3    H253336   4.568   1.118   2.964  1.9673 -0.4971  0.1316
10641TIP3   OH253337   4.365   0.719   1.743  0.3597  0.3280 -0.5314
10641TIP3    H153338   4.271   0.714   1.723  0.4458  0.8623 -1.0477
10641TIP3    H253339   4.382   0.640   1.795 -0.2754 -0.0133 -0.8374
10642TIP3   OH253340   5.469   0.721   2.908 -0.0459  0.3755  0.3286
10642TIP3    H153341   5.555   0.679   2.917  0.5410  2.0092  3.1738
10642TIP3    H253342   5.440   0.700   2.820  2.1911 -2.2685  0.1696
10643TIP3   OH253343   1.693   6.004   1.344  0.2497  0.4557 -0.0641
10643TIP3    H153344   1.735   5.936   1.396 -1.1742 -1.0737 -0.8815
10643TIP3    H253345   1.742   6.003   1.261 -0.3122 -0.1490 -0.3872
10644TIP3   OH253346   2.447   0.996  15.135  0.4339 -0.3734  0.0717
10644TIP3    H153347   2.457   0.948  15.218  0.3822  0.0400  0.3222
10644TIP3    H253348   2.371   0.956  15.094 -0.3811  0.3401  0.8739
10645TIP3   OH253349   4.430   0.930   3.049  0.1648 -0.9055 -0.3636
10645TIP3    H153350   4.435   0.852   2.994  0.7285 -2.0074  1.2133
10645TIP3    H253351   4.471   0.903   3.132  0.6522  1.1511  0.0834
10646TIP3   OH253352   3.900   6.517   2.417  0.5067 -0.4958 -0.6015
10646TIP3    H153353   3.935   6.574   2.349 -0.6626 -1.0084 -1.6502
10646TIP3    H253354   3.975   6.466   2.447  1.2456  0.5067 -0.7297
10647TIP3   OH253355   5.005   5.293  13.639 -0.3057 -0.2718  0.3528
10647TIP3    H153356   5.049   5.316  13.557  0.2614  0.3236  0.8179
10647TIP3    H253357   4.993   5.199  13.634 -1.6627 -0.0393 -1.1000
10648TIP3   OH253358   2.964   3.597  15.259  0.0554 -0.6388 -0.7669
10648TIP3    H153359   2.985   3.606  15.352  1.6345  1.5387 -1.3155
10648TIP3    H253360   3.045   3.568  15.218  0.5820  2.4841 -2.0636
10649TIP3   OH253361   1.421   6.626  13.976 -0.1754  0.4306  0.2249
10649TIP3    H153362   1.472   6.705  13.956  0.1160  0.2015  0.0631
10649TIP3    H253363   1.484   6.554  13.970 -0.5611  0.1228 -0.1622
10650TIP3   OH253364   2.202   2.995   5.666  0.0851  1.0659  0.1497
10650TIP3    H153365   2.173   3.085   5.652 -1.9296  0.4598  0.2545
10650TIP3    H253366   2.216   2.989   5.760 -2.5134  0.5271  0.5504
10651TIP3   OH253367   3.146   0.908   0.399  0.0978 -0.2455  0.2958
10651TIP3    H153368   3.237   0.911   0.430 -0.2708 -0.6501  1.4548
10651TIP3    H253369   3.095   0.890   0.478 -0.7895 -2.4422 -0.7358
10652TIP3   OH253370   3.470   4.888   2.044 -0.5073  0.0433 -0.2264
10652TIP3    H153371   3.437   4.921   1.961  0.4657 -0.6471 -0.9095
10652TIP3    H253372   3.401   4.832   2.078  0.0027 -1.5586 -1.7368
10653TIP3   OH253373   6.770   6.292  14.741  0.2547 -0.6259 -0.4975
10653TIP3    H153374   6.675   6.298  14.750  0.5334  1.0718  1.6683
10653TIP3    H253375   6.789   6.336  14.657 -0.7044  1.0027  0.1126
10654TIP3   OH253376   4.508   1.425  12.506 -0.0949 -0.4556  0.0777
10654TIP3    H153377   4.565   1.355  12.472  1.2628  0.0550  1.2473
10654TIP3    H253378   4.538   1.504  12.461 -0.0972 -0.2449  0.4443
10655TIP3   OH253379   3.242   1.686   2.645 -0.1824  0.0996  0.1609
10655TIP3    H153380   3.170   1.635   2.682 -1.0086  0.0257 -1.4778
10655TIP3    H253381   3.205   1.774   2.632 -0.2741 -0.1625 -1.4887
10656TIP3   OH253382   1.815   3.246  15.083  0.3942 -0.0952 -0.1948
10656TIP3    H153383   1.884   3.312  15.077 -0.8520  1.2595 -0.2454
10656TIP3    H253384   1.778   3.243  14.994  0.1669 -0.5377 -0.0864
10657TIP3   OH253385   6.858   6.436   2.427  0.1040  0.0855 -0.7850
10657TIP3    H153386   6.888   6.386   2.502 -0.2871  0.9491 -0.0482
10657TIP3    H253387   6.819   6.371   2.369  1.2062 -0.7138 -0.6642
10658TIP3   OH253388   3.369   6.646   3.042  0.4571  0.0399  0.4707
10658TIP3    H153389   3.383   6.718   3.105  0.3814 -1.5151  2.3067
10658TIP3    H253390   3.453   6.637   2.998  0.6058  0.9511  0.5512
10659TIP3   OH253391   0.684   1.124   0.452  0.1019 -0.1620  1.0860
10659TIP3    H153392   0.593   1.129   0.424  0.3036  0.9256  0.6235
10659TIP3    H253393   0.689   1.178   0.531  0.4818  0.2684  0.7689
10660TIP3   OH253394   2.804   4.647   1.433  0.0776  0.2771  0.1314
10660TIP3    H153395   2.873   4.581   1.441 -0.1988 -0.1831 -1.0866
10660TIP3    H253396   2.726   4.606   1.469  0.2274  0.4545  0.6558
10661TIP3   OH253397   6.889   3.955   0.660 -0.2080  0.0886  0.4971
10661TIP3    H153398   6.832   3.929   0.732  0.5108 -0.6210  0.8214
10661TIP3    H253399   6.853   3.910   0.583  0.3272 -0.9376  0.8334
10662TIP3   OH253400   2.979   5.001   5.074  0.3651 -0.2316  0.1105
10662TIP3    H153401   2.910   4.971   5.133 -0.1193  0.9189  0.1532
10662TIP3    H253402   3.012   4.922   5.032  0.9371 -1.1018  2.1685
10663TIP3   OH253403   2.171   4.866  15.342 -0.1735  0.5244  0.3021
10663TIP3    H153404   2.115   4.793  15.369 -0.2066  0.0833 -0.9346
10663TIP3    H253405   2.251   4.855  15.394 -0.6696  0.3337  1.0325
10664TIP3   OH253406   0.807   7.081   0.034  0.1820  0.3344 -0.4955
10664TIP3    H153407   0.890   7.125   0.055 -0.6080  1.1187  1.0531
10664TIP3    H253408   0.740   7.147   0.051 -0.8981 -0.9036  0.1116
10665TIP3   OH253409   0.663   0.152   1.522 -0.1628 -0.0831 -0.5947
10665TIP3    H153410   0.606   0.213   1.476 -0.9856  0.2679  0.8837
10665TIP3    H253411   0.614   0.070   1.525 -1.2548  0.6200  1.9801
10666TIP3   OH253412   5.624   0.537   1.908  0.1933 -0.3459  0.4890
10666TIP3    H153413   5.559   0.519   1.976 -0.6018  3.1105  0.7262
10666TIP3    H253414   5.708   0.539   1.955  0.2726 -2.5887  0.5357
10667TIP3   OH253415   5.118   1.808   1.956 -0.2268  0.2518 -0.2189
10667TIP3    H153416   5.112   1.870   2.028  0.3638  0.9986 -0.8107
10667TIP3    H253417   5.042   1.827   1.901 -0.3583  0.0676 -0.1043
10668TIP3   OH253418   4.001   1.222   0.801  0.9126  0.0177 -0.6659
10668TIP3    H153419   4.000   1.209   0.896  1.9893  2.2183 -0.3173
10668TIP3    H253420   3.913   1.254   0.780  1.1711  1.1126 -0.1407
10669TIP3   OH253421   7.149   5.086   1.385 -0.0729  0.1564  0.3164
10669TIP3    H153422   7.174   5.170   1.424  1.1191 -0.5748  1.1610
10669TIP3    H253423   7.112   5.036   1.458 -0.9868  0.0194 -0.2316
10670TIP3   OH253424   5.093   1.266   2.879  0.3943  0.4100 -0.5712
10670TIP3    H153425   5.143   1.199   2.926  0.8033  0.6657 -0.6470
10670TIP3    H253426   5.111   1.249   2.787 -0.8434 -0.4400 -0.6807
10671TIP3   OH253427   5.081   2.099   4.807 -0.5004  0.2776  0.0630
10671TIP3    H153428   5.100   2.021   4.858  1.1399  0.8324  0.3169
10671TIP3    H253429   4.990   2.121   4.829 -0.9865 -1.5700 -0.0497
10672TIP3   OH253430   5.145   2.444   1.693 -0.1120  0.2684 -0.4637
10672TIP3    H153431   5.168   2.494   1.771 -1.6862  1.1122 -0.5055
10672TIP3    H253432   5.112   2.361   1.726 -1.8175  1.0444 -0.1477
10673TIP3   OH253433   6.824   1.795   2.103 -0.8415 -0.6129 -0.1898
10673TIP3    H153434   6.793   1.760   2.020  2.6675 -1.1784 -1.3470
10673TIP3    H253435   6.824   1.890   2.091 -1.0276 -0.6666 -0.5849
10674TIP3   OH253436   4.621   6.933  14.996 -0.2294 -0.5858 -0.0642
10674TIP3    H153437   4.675   6.900  15.068 -0.3214 -0.0049  0.2729
10674TIP3    H253438   4.669   7.008  14.962 -0.5452 -0.4135 -0.1336
10675TIP3   OH253439   3.849   0.844   2.139  0.4958 -0.2830  0.1136
10675TIP3    H153440   3.773   0.899   2.159  1.1807  0.5368  0.5288
10675TIP3    H253441   3.815   0.755   2.138  0.2653 -0.3302  4.2718
10676TIP3   OH253442   0.120   2.994   3.220  0.3020 -0.0839  0.0996
10676TIP3    H153443   0.150   2.980   3.130  0.8824 -1.0580  0.4409
10676TIP3    H253444   0.189   2.957   3.274  0.2220  1.0101  0.9684
10677TIP3   OH253445   2.546   5.686   3.487 -0.0820  0.1243  0.6336
10677TIP3    H153446   2.636   5.672   3.519 -0.0056  1.9753  1.2865
10677TIP3    H253447   2.497   5.711   3.565 -0.7766  0.8543 -0.0395
10678TIP3   OH253448   6.084   4.398   3.087 -0.5914  0.5698 -0.1004
10678TIP3    H153449   5.995   4.433   3.077 -0.7007  0.7904  1.4494
10678TIP3    H253450   6.087   4.323   3.028 -1.8295  0.5532 -0.1646
10679TIP3   OH253451   5.688   2.151  12.000 -0.1389  0.6408  0.4257
10679TIP3    H153452   5.659   2.226  11.948 -0.3392  1.5258  1.7833
10679TIP3    H253453   5.769   2.122  11.958 -0.1212  1.5504 -0.1802
10680TIP3   OH253454   1.472   5.574   3.157 -0.0181 -0.1638 -0.4639
10680TIP3    H153455   1.545   5.624   3.195  0.1454  0.2660 -1.3298
10680TIP3    H253456   1.513   5.512   3.097 -0.3206 -0.3980 -0.4324
10681TIP3   OH253457   2.562   3.107   1.898 -0.0569  0.4258  0.8173
10681TIP3    H153458   2.468   3.102   1.876 -0.3374 -0.5217  2.1838
10681TIP3    H253459   2.567   3.167   1.972  0.5348  1.1724  0.1827
10682TIP3   OH253460   4.840   0.458   2.411  0.3566 -0.3437  0.5978
10682TIP3    H153461   4.784   0.529   2.442 -0.5269 -0.2568 -1.1454
10682TIP3    H253462   4.867   0.485   2.323  3.4219 -0.2257  1.5026
10683TIP3   OH253463   6.616   4.538  15.341 -0.5133  0.4367 -0.1812
10683TIP3    H153464   6.547   4.596  15.374 -0.7559  0.8285 -1.3736
10683TIP3    H253465   6.696   4.572  15.382 -1.1935 -0.9402  2.4033
10684TIP3   OH253466   3.665   1.619   0.382 -0.7157  0.3187 -0.2390
10684TIP3    H153467   3.697   1.558   0.316 -0.7068 -0.3922  0.4203
10684TIP3    H253468   3.630   1.693   0.332  0.7431  0.5069 -0.9905
10685TIP3   OH253469   0.682   1.972   2.681 -0.1951  0.2021 -0.4915
10685TIP3    H153470   0.620   2.030   2.636 -1.3748 -1.5411 -1.1624
10685TIP3    H253471   0.696   1.900   2.620  0.3475 -0.8133  0.8048
10686TIP3   OH253472   6.350   0.881   2.768  0.2363  0.4260 -0.1673
10686TIP3    H153473   6.405   0.955   2.742  0.7962 -0.2940 -1.0943
10686TIP3    H253474   6.264   0.919   2.784  0.5378  1.2918 -0.5716
10687TIP3   OH253475   0.305   3.185  15.000  0.2097  0.3477 -0.3769
10687TIP3    H153476   0.348   3.101  14.988  1.1440  0.6833  0.5462
10687TIP3    H253477   0.229   3.166  15.055 -0.0013 -0.0125 -0.7929
10688TIP3   OH253478   6.456   0.820   3.745 -0.0718 -0.3610  0.2231
10688TIP3    H153479   6.465   0.893   3.806  0.4911 -0.3753  0.1518
10688TIP3    H253480   6.361   0.812   3.731 -0.1186  0.4683  0.0896
10689TIP3   OH253481   3.015   1.524   2.683 -0.0710  0.0807 -0.0924
10689TIP3    H153482   2.941   1.580   2.663 -1.2595 -1.0166  1.1045
10689TIP3    H253483   3.031   1.474   2.602 -3.8503 -3.2348  1.0533
10690TIP3   OH253484   4.431   0.813   0.206 -0.4314  0.0998 -0.2892
10690TIP3    H153485   4.368   0.741   0.203  0.2310 -0.4875 -0.1264
10690TIP3    H253486   4.387   0.885   0.162 -1.3933 -0.1727  0.2150
10691TIP3   OH253487   3.056   1.519   1.902  0.3062  0.2477 -0.6679
10691TIP3    H153488   3.009   1.436   1.897 -0.5541  0.6985 -0.2007
10691TIP3    H253489   2.988   1.585   1.894  1.0647  0.9123 -1.6994
10692TIP3   OH253490   5.381   0.603   1.035  0.8036  0.1296 -0.4331
10692TIP3    H153491   5.441   0.577   1.105  0.0223  1.5335  0.7773
10692TIP3    H253492   5.300   0.556   1.054  0.5110  0.7060 -0.2700
10693TIP3   OH253493   0.171   6.980  13.586 -0.3753 -0.3443 -0.5743
10693TIP3    H153494   0.181   6.994  13.680  1.0651 -1.3821 -0.5616
10693TIP3    H253495   0.142   6.889  13.578 -0.7042 -0.1938 -1.1330
10694TIP3   OH253496   5.833   5.940  13.623  0.1791  0.3056 -0.0621
10694TIP3    H153497   5.745   5.919  13.592 -1.3100  2.6687  2.3442
10694TIP3    H253498   5.851   5.874  13.691  0.1569 -0.0075 -0.3604
10695TIP3   OH253499   4.579   0.678  13.322  0.5094  0.3554 -0.1505
10695TIP3    H153500   4.658   0.724  13.350  1.8741 -1.9558 -0.1383
10695TIP3    H253501   4.545   0.638  13.402 -0.6033  1.2209 -0.1814
10696TIP3   OH253502   4.683   3.400   3.109  0.2139 -0.1807 -0.4026
10696TIP3    H153503   4.717   3.312   3.102 -0.3903 -0.5423  0.9518
10696TIP3    H253504   4.602   3.399   3.058 -1.1052 -1.1337  1.6362
10697TIP3   OH253505   5.724   0.799   5.046 -0.3268  0.2368 -0.2683
10697TIP3    H153506   5.649   0.850   5.076  0.2620  0.9879 -0.0500
10697TIP3    H253507   5.765   0.855   4.979 -0.7044 -0.7201 -1.3040
10698TIP3   OH253508   5.493   0.349  15.470  0.3839 -0.3764 -0.2160
10698TIP3    H153509   5.412   0.349  15.419  0.1933 -0.7843  0.0862
10698TIP3    H253510   5.532   0.264  15.452 -0.1543 -0.9100  1.0587
10699TIP3   OH253511   3.459   5.109   0.662 -0.2241  0.0247 -0.8257
10699TIP3    H153512   3.506   5.155   0.731 -1.3928  0.8787 -0.5785
10699TIP3    H253513   3.527   5.065   0.611  0.7100  0.1016  0.3506
10700TIP3   OH253514   5.028   6.616   0.809  0.4249  0.2566  0.4642
10700TIP3    H153515   5.042   6.650   0.898 -0.5157 -0.6337  0.9655
10700TIP3    H253516   4.971   6.681   0.768  2.3783  1.6341 -0.1303
10701TIP3   OH253517   0.864   4.028   1.266  0.4416  0.2076 -0.3737
10701TIP3    H153518   0.927   3.956   1.271 -0.2588 -0.4521 -0.8270
10701TIP3    H253519   0.790   3.999   1.319 -0.9414 -0.5543 -2.6763
10702TIP3   OH253520   1.675   3.981   3.341  0.2257 -0.1809  0.2310
10702TIP3    H153521   1.707   3.907   3.394 -0.4247 -0.7738 -0.1971
10702TIP3    H253522   1.583   3.989   3.365  0.2477  0.3790  0.1329
10703TIP3   OH253523   6.521   4.931  11.975  0.0287 -0.6743 -0.2050
10703TIP3    H153524   6.521   5.016  11.932 -0.0934 -0.6064 -0.0711
10703TIP3    H253525   6.526   4.951  12.068 -2.6544 -0.7069  0.0088
10704TIP3   OH253526   6.679   6.521   3.279  0.0753  0.0051 -0.6443
10704TIP3    H153527   6.606   6.462   3.295 -0.4161  0.7234 -0.2104
10704TIP3    H253528   6.661   6.558   3.192 -1.0289  1.5270  0.2044
10705TIP3   OH253529   0.183   6.136   0.011 -0.4254 -0.4955  0.0784
10705TIP3    H153530   0.092   6.121  -0.012 -1.3828  1.1333  2.6135
10705TIP3    H253531   0.225   6.159  -0.072 -2.3103 -1.2713 -1.1096
10706TIP3   OH253532   2.882   5.310   2.986  0.2886  0.3433 -0.0945
10706TIP3    H153533   2.811   5.365   2.953  0.7530 -0.4763 -2.5795
10706TIP3    H253534   2.897   5.246   2.916  3.4088  0.4652  0.4095
10707TIP3   OH253535   2.016   2.198  13.095 -0.0794 -0.0158 -0.8667
10707TIP3    H153536   1.981   2.257  13.162 -0.0674  0.5940 -1.3957
10707TIP3    H253537   1.939   2.158  13.055 -0.1056  0.0789 -0.9088
10708TIP3   OH253538   5.419   1.865  12.626  0.0914 -0.2641  0.0633
10708TIP3    H153539   5.370   1.833  12.551 -1.1383  1.0460  0.3049
10708TIP3    H253540   5.360   1.925  12.670  0.8484 -0.9072  2.0179
10709TIP3   OH253541   3.620   3.275   0.933  0.3790  0.7068  0.2265
10709TIP3    H153542   3.547   3.274   0.995  0.6567  1.3480  0.5551
10709TIP3    H253543   3.676   3.346   0.962  0.1577  1.4648 -1.1661
10710TIP3   OH253544   1.570   5.630   4.830 -0.4876 -0.1250  0.0631
10710TIP3    H153545   1.615   5.715   4.821  0.4126 -0.6181 -0.1544
10710TIP3    H253546   1.577   5.590   4.743  0.2754 -1.0052  0.5259
10711TIP3   OH253547   3.525   2.283   3.119 -0.1507  0.2085  0.3963
10711TIP3    H153548   3.557   2.197   3.093 -1.6031 -0.3064  0.2363
10711TIP3    H253549   3.569   2.301   3.203  0.3611 -0.5610  0.2969
10712TIP3   OH253550   6.502   2.254   0.969  0.3488 -0.0723  0.1727
10712TIP3    H153551   6.568   2.307   0.924  1.2701 -1.9862 -0.8082
10712TIP3    H253552   6.422   2.268   0.917  0.7974 -0.3130 -0.5972
10713TIP3   OH253553   2.072   2.252   1.597  0.0728 -0.2129  0.0184
10713TIP3    H153554   2.075   2.338   1.556  0.0138 -1.1371 -1.9492
10713TIP3    H253555   2.097   2.190   1.528  0.4017 -1.7545  1.4718
10714TIP3   OH253556   0.328   6.599   1.645 -0.3337  0.1285  0.5062
10714TIP3    H153557   0.312   6.538   1.573  0.5958  0.5880 -0.0939
10714TIP3    H253558   0.312   6.685   1.607  0.3382  0.3832  0.7971
10715TIP3   OH253559   4.919   6.446   2.371 -0.7048 -0.1911 -0.2892
10715TIP3    H153560   4.945   6.468   2.282  1.2868  0.2184  0.3767
10715TIP3    H253561   4.949   6.519   2.425 -1.3482 -0.7083  0.8124
10716TIP3   OH253562   3.417   6.295   2.283 -1.1151  0.2688 -0.2920
10716TIP3    H153563   3.476   6.249   2.344 -2.8459 -0.1453  1.1293
10716TIP3    H253564   3.459   6.380   2.268  0.2027 -0.3002  0.1111
10717TIP3   OH253565   1.576   4.200   2.517 -0.4300 -0.3959 -0.2309
10717TIP3    H153566   1.624   4.199   2.599  1.1998  0.4241 -1.1520
10717TIP3    H253567   1.493   4.243   2.538  0.0198 -0.0816  0.9424
10718TIP3   OH253568   4.402   3.853   4.652 -0.1458 -0.2013  0.2128
10718TIP3    H153569   4.386   3.785   4.587  0.9213 -0.5287  0.2860
10718TIP3    H253570   4.347   3.829   4.727 -0.3227 -0.5832 -0.0429
10719TIP3   OH253571   3.451   0.709  15.164 -0.7175 -0.9014 -0.5049
10719TIP3    H153572   3.477   0.766  15.237  1.8015 -1.6010 -0.8138
10719TIP3    H253573   3.501   0.629  15.177 -1.3471 -1.5889 -2.2025
10720TIP3   OH253574   0.143   4.865   5.485  0.7002 -0.4988  0.1415
10720TIP3    H153575   0.134   4.928   5.414  0.3789 -0.9734 -0.2401
10720TIP3    H253576   0.225   4.820   5.466 -0.0090 -1.4802 -0.6121
10721TIP3   OH253577   3.858   6.695   0.308 -0.3717  0.6057  0.0744
10721TIP3    H153578   3.812   6.780   0.313  0.2486  1.0142 -1.0983
10721TIP3    H253579   3.913   6.702   0.230 -2.0171 -1.7251 -1.3381
10722TIP3   OH253580   1.835   1.054  15.444 -0.7450  0.4097 -0.6370
10722TIP3    H153581   1.783   0.993  15.391  0.4597  0.0153 -1.3916
10722TIP3    H253582   1.826   1.021  15.534 -2.9224  1.1637 -0.5455
10723TIP3   OH253583   3.686   0.086  15.130  0.4189  0.1410  0.0752
10723TIP3    H153584   3.713   0.156  15.190 -1.3406 -0.4875  1.6289
10723TIP3    H253585   3.614   0.042  15.175  1.4688 -2.6752 -0.8787
10724TIP3   OH253586   4.324   4.294   3.777 -0.1619 -0.1769  0.4959
10724TIP3    H153587   4.413   4.286   3.811  0.5563  4.9722  0.1272
10724TIP3    H253588   4.336   4.301   3.682 -1.0115  0.0698  0.4047
10725TIP3   OH253589   5.825   1.100   1.223 -0.2246  0.1659  0.2897
10725TIP3    H153590   5.884   1.125   1.152  0.3316  1.4304  1.1874
10725TIP3    H253591   5.877   1.043   1.280  0.4191  1.9331  1.5169
10726TIP3   OH253592   6.636   3.318  13.275  0.4957 -0.1744 -0.4187
10726TIP3    H153593   6.708   3.335  13.214 -0.1778  1.8205 -0.6900
10726TIP3    H253594   6.632   3.396  13.330  0.6912 -1.6894  1.8285
10727TIP3   OH253595   4.394   1.101   4.353  0.5201 -0.2862  0.0481
10727TIP3    H153596   4.307   1.141   4.352  0.4834 -0.3796 -0.4182
10727TIP3    H253597   4.385   1.024   4.409  0.7242  0.6519  1.4040
10728TIP3   OH253598   4.649   0.341   1.443 -0.8823  0.0291  0.6295
10728TIP3    H153599   4.704   0.410   1.481  0.1337 -0.0352 -0.6945
10728TIP3    H253600   4.672   0.262   1.493 -0.7600  0.2813  0.9781
10729TIP3   OH253601   2.751   0.038   1.477 -0.9779 -0.4813  0.0291
10729TIP3    H153602   2.833   0.055   1.430 -0.5438  1.5101  1.4460
10729TIP3    H253603   2.771  -0.038   1.532  0.4118  0.8932  1.4658
10730TIP3   OH253604   3.487   0.035  15.331  0.2088 -0.5268  0.3023
10730TIP3    H153605   3.500   0.083  15.413  1.7513 -0.8486  0.2439
10730TIP3    H253606   3.392   0.026  15.324  0.0186  0.3853  1.5430
10731TIP3   OH253607   1.854   1.001  15.058 -0.0622 -0.7244 -0.1517
10731TIP3    H153608   1.898   0.990  15.142  0.7558 -0.2974 -0.5268
10731TIP3    H253609   1.842   0.911  15.025 -1.0419 -0.9335  0.7503
10732TIP3   OH253610   2.067   1.977   2.469  0.1947  0.1125 -0.4143
10732TIP3    H153611   2.123   2.033   2.523  1.0350 -0.8913 -0.2378
10732TIP3    H253612   2.006   2.038   2.427 -1.4288  0.7906  2.7405
10733TIP3   OH253613   2.041   4.067  13.984 -0.3107 -0.1537  0.3491
10733TIP3    H153614   2.108   4.027  14.040 -1.1921 -0.9528  0.8641
10733TIP3    H253615   1.964   4.075  14.042 -0.7518  0.4505 -0.3152
10734TIP3   OH253616   3.086   0.225   1.678  0.2329 -0.4272  0.2018
10734TIP3    H153617   3.093   0.256   1.588  0.0552 -0.6446  0.1129
10734TIP3    H253618   3.035   0.293   1.723  0.1994 -0.3896  0.1064
10735TIP3   OH253619   3.244   6.500  14.112  0.2739  0.1712  0.6192
10735TIP3    H153620   3.195   6.582  14.119  0.2852  0.2008  0.3718
10735TIP3    H253621   3.334   6.525  14.132  0.8458  0.8463 -2.4420
10736TIP3   OH253622   2.835   2.175   3.496 -0.0409 -0.4122  0.6770
10736TIP3    H153623   2.783   2.137   3.425  0.0293  0.3931  0.1862
10736TIP3    H253624   2.828   2.112   3.567 -0.0843 -1.2501 -0.0586
10737TIP3   OH253625   5.991   1.525   1.853  0.3373  0.5016 -0.3423
10737TIP3    H153626   6.024   1.516   1.943  1.7362 -1.7541 -1.0398
10737TIP3    H253627   6.058   1.575   1.807  1.1161 -1.0444 -0.8956
10738TIP3   OH253628   4.934   0.298  14.105  0.2315  0.1177  0.4701
10738TIP3    H153629   4.938   0.335  14.193  0.1033  1.3110 -0.0232
10738TIP3    H253630   4.860   0.342  14.064  1.2320  0.6864 -0.7473
10739TIP3   OH253631   5.215   6.186   2.621 -0.3647  0.2304 -0.4788
10739TIP3    H153632   5.261   6.112   2.582  0.3318  0.9562 -1.0413
10739TIP3    H253633   5.219   6.169   2.716 -0.5775 -0.6610 -0.6247
10740TIP3   OH253634   1.912   1.163   1.724  0.1957  0.7544  0.1320
10740TIP3    H153635   1.905   1.137   1.632  0.8545  0.2929  0.2110
10740TIP3    H253636   1.868   1.093   1.772  1.0206  0.3270  0.2664
10741TIP3   OH253637   5.132   1.974   5.369 -0.3270 -0.2686  0.2411
10741TIP3    H153638   5.180   2.042   5.416  1.2907 -0.2515 -1.3989
10741TIP3    H253639   5.153   1.893   5.415  1.9648 -0.3780 -0.9481
10742TIP3   OH253640   5.928   2.266   3.205  0.0293  0.1585 -0.2345
10742TIP3    H153641   5.975   2.197   3.252 -0.2510 -1.3344 -2.0800
10742TIP3    H253642   5.855   2.221   3.163 -0.7370  1.7652 -0.6612
10743TIP3   OH253643   3.291   5.734   0.855 -0.1238  0.0167  0.0230
10743TIP3    H153644   3.232   5.691   0.793  0.0362 -0.5918  0.2905
10743TIP3    H253645   3.346   5.791   0.801  1.1939 -1.8169 -0.6188
10744TIP3   OH253646   6.406   4.663  12.584 -0.7628 -0.2854  0.3075
10744TIP3    H153647   6.356   4.647  12.664  0.9743 -2.3439  1.0358
10744TIP3    H253648   6.485   4.708  12.615 -0.8733  0.4646 -0.4846
10745TIP3   OH253649   6.427   5.210   1.224  0.2844  0.5441  0.2404
10745TIP3    H153650   6.497   5.177   1.280  0.6337 -2.0299 -1.6305
10745TIP3    H253651   6.346   5.178   1.265  0.5537 -1.5730 -0.7894
10746TIP3   OH253652   3.843   6.587   1.692 -0.5831 -0.0666 -0.7609
10746TIP3    H153653   3.822   6.639   1.769  0.1854 -1.0628  0.1335
10746TIP3    H253654   3.901   6.518   1.724 -1.3806 -1.3269 -1.9603
10747TIP3   OH253655   5.437   3.039   0.932 -0.2145 -0.0084  0.3411
10747TIP3    H153656   5.511   2.997   0.974 -0.9822 -2.0724 -0.3401
10747TIP3    H253657   5.367   3.040   0.998 -0.2448  0.0873  0.3095
10748TIP3   OH253658   3.589   4.648  15.160  0.0292  0.3382 -0.6696
10748TIP3    H153659   3.518   4.662  15.098 -0.3015 -0.4425 -0.4644
10748TIP3    H253660   3.561   4.574  15.214  1.4469 -0.6594 -1.2574
10749TIP3   OH253661   3.903   5.471   0.638  0.8214 -0.5267 -0.1685
10749TIP3    H153662   3.979   5.528   0.634  0.3542  0.1804  0.7181
10749TIP3    H253663   3.848   5.510   0.707 -1.9120  0.9383 -3.0696
10750TIP3   OH253664   3.834   2.976   2.227 -0.5728  0.4708  0.4829
10750TIP3    H153665   3.769   3.038   2.194 -1.8238  0.3043  2.5496
10750TIP3    H253666   3.918   3.018   2.208 -1.2182  0.5165 -2.5616
10751TIP3   OH253667   6.296   1.498  15.251  0.0067  0.3955 -0.2744
10751TIP3    H153668   6.373   1.445  15.269  0.9862  2.4252  1.6532
10751TIP3    H253669   6.232   1.471  15.317 -0.8040 -0.9083 -1.5445
10752TIP3   OH253670   5.312   0.116   0.381 -0.0010 -0.0958 -0.4539
10752TIP3    H153671   5.249   0.153   0.318  1.9055  1.1910 -1.6375
10752TIP3    H253672   5.397   0.150   0.353  0.8933  0.5764  2.8915
10753TIP3   OH253673   4.086   7.015  12.300  0.5687  0.5196 -0.0844
10753TIP3    H153674   4.053   7.080  12.362 -1.0015  1.1979 -1.5837
10753TIP3    H253675   4.126   7.067  12.230  0.3673 -0.1539 -0.7088
10754TIP3   OH253676   5.891   4.478  11.565 -0.3062  0.3638 -0.2372
10754TIP3    H153677   5.876   4.463  11.471  0.5395  0.5899 -0.4166
10754TIP3    H253678   5.967   4.536  11.567  1.1364 -1.4876  0.6307
10755TIP3   OH253679   4.246   4.408  15.242 -0.3077  0.1904 -0.5177
10755TIP3    H153680   4.200   4.416  15.158 -1.4638  1.1058  0.1955
10755TIP3    H253681   4.224   4.488  15.289  1.3615  0.2563  0.1709
10756TIP3   OH253682   1.268   4.835   4.337  0.0415 -0.1385  0.3406
10756TIP3    H153683   1.349   4.790   4.363  0.7212 -0.1096 -1.6650
10756TIP3    H253684   1.265   4.912   4.394  1.5139 -0.0526  0.3321
10757TIP3   OH253685   6.101   3.856   0.195 -0.2681 -0.0810  0.2683
10757TIP3    H153686   6.120   3.940   0.154 -0.2322 -0.2769 -0.1128
10757TIP3    H253687   6.065   3.802   0.125 -2.1308  0.2292  0.9519
10758TIP3   OH253688   6.024   2.798   1.788 -0.3009  0.0837  0.2042
10758TIP3    H153689   6.012   2.889   1.761  0.3922  0.2665  0.4972
10758TIP3    H253690   6.119   2.789   1.802  0.0541 -1.5091 -2.7803
10759TIP3   OH253691   3.171   1.097   3.538 -0.1726 -0.0124 -0.0513
10759TIP3    H153692   3.224   1.167   3.577 -1.0143  0.8641 -0.4417
10759TIP3    H253693   3.159   1.034   3.609  0.0486  0.5636  0.5047
10760TIP3   OH253694   0.741   2.133  15.477 -0.5278  0.1902  0.3470
10760TIP3    H153695   0.804   2.164  15.412 -1.9494  1.3386 -0.5270
10760TIP3    H253696   0.730   2.208  15.535 -1.8000  0.3371 -0.0766
10761TIP3   OH253697   6.605   5.898   3.044  0.3130 -0.0946  0.0765
10761TIP3    H153698   6.633   5.942   3.124 -0.1290  2.5438 -1.1461
10761TIP3    H253699   6.641   5.810   3.050  0.5086  0.1529  3.0356
10762TIP3   OH253700   6.529   6.634   4.563  0.3248  0.3413  0.3100
10762TIP3    H153701   6.488   6.679   4.488 -0.6870 -0.2718  0.4837
10762TIP3    H253702   6.563   6.704   4.617 -0.4609  0.8701  0.1314
10763TIP3   OH253703   1.970   6.664   3.878  0.3397 -0.6013  0.4142
10763TIP3    H153704   1.985   6.738   3.937  0.5994  1.0194 -1.5976
10763TIP3    H253705   1.876   6.645   3.887  0.1359  0.3937  0.4925
10764TIP3   OH253706   3.622   0.948  14.545 -0.1806  1.0463 -0.0956
10764TIP3    H153707   3.570   1.019  14.584  1.8904  0.9953  2.8959
10764TIP3    H253708   3.703   0.990  14.517  0.5012  0.1072  0.4549
10765TIP3   OH253709   2.478   0.963   3.325 -0.1965 -0.3759  0.0655
10765TIP3    H153710   2.401   0.988   3.274  0.2223 -0.1169 -0.4461
10765TIP3    H253711   2.539   0.927   3.260 -0.1257 -1.1483  0.5506
10766TIP3   OH253712   5.967   1.079   2.601 -0.2025  0.0694  0.2544
10766TIP3    H153713   5.971   1.174   2.587 -2.2305  0.2824  1.0259
10766TIP3    H253714   6.048   1.059   2.648  1.4188  1.0212 -2.0323
10767TIP3   OH253715   4.775   5.169   4.005  0.4273  0.7029 -0.3453
10767TIP3    H153716   4.810   5.132   3.924 -1.3004 -3.1438  0.5241
10767TIP3    H253717   4.848   5.165   4.067  0.3664 -1.2051 -0.3491
10768TIP3   OH253718   2.547   0.892   0.752  0.3781  0.0761 -0.0208
10768TIP3    H153719   2.544   0.951   0.827 -0.3737  0.4853 -0.3733
10768TIP3    H253720   2.465   0.907   0.706  1.6660  1.2215 -2.0006
10769TIP3   OH253721   4.362   5.821   2.310 -0.5471  0.1069  0.3940
10769TIP3    H153722   4.303   5.884   2.352 -0.4017  1.2738 -1.1298
10769TIP3    H253723   4.448   5.841   2.345 -0.6214  0.2486  0.4963
10770TIP3   OH253724   2.452   1.288   0.123  0.1338  0.2522  0.0500
10770TIP3    H153725   2.485   1.233   0.051 -1.4651 -0.8576  0.1387
10770TIP3    H253726   2.454   1.377   0.088  0.4159 -0.1472 -0.9738
10771TIP3   OH253727   5.338   2.280   4.376 -0.0925 -0.3394 -0.1142
10771TIP3    H153728   5.321   2.281   4.470  0.9439  2.4021  0.0991
10771TIP3    H253729   5.370   2.192   4.359  0.8522 -0.5236  2.3370
10772TIP3   OH253730   6.410   1.055   1.026 -0.5348 -0.4450 -0.6166
10772TIP3    H153731   6.349   1.102   1.083 -1.5695 -1.4903 -0.8366
10772TIP3    H253732   6.431   1.117   0.956  1.3197  1.1038  1.2842
10773TIP3   OH253733   0.716   5.236   1.255  0.2080  0.8324  0.1390
10773TIP3    H153734   0.730   5.176   1.329 -1.5382 -0.7749 -0.7979
10773TIP3    H253735   0.803   5.245   1.215  0.3565 -1.8123 -0.2301
10774TIP3   OH253736   2.692   2.208   5.119 -0.0256 -0.0345  0.3712
10774TIP3    H153737   2.607   2.230   5.157 -0.4404 -2.3226  0.8217
10774TIP3    H253738   2.754   2.217   5.192 -0.3713 -1.4567  0.8595
10775TIP3   OH253739   5.366   2.474   2.105 -0.6569  0.0070  0.0105
10775TIP3    H153740   5.411   2.456   2.022  3.0109  0.4076  1.8056
10775TIP3    H253741   5.329   2.390   2.131  0.6012 -0.7673 -0.6465
10776TIP3   OH253742   5.409   4.133   2.991  0.0517  0.1820 -0.6079
10776TIP3    H153743   5.324   4.162   2.957 -0.0427  1.3164  0.5328
10776TIP3    H253744   5.389   4.104   3.080  0.9026  0.7372 -0.2306
10777TIP3   OH253745   4.845   1.007   4.278  0.2289  0.4470  0.5882
10777TIP3    H153746   4.766   0.954   4.285  0.1108  0.7405  1.5308
10777TIP3    H253747   4.814   1.093   4.247  0.2200  0.4681  0.6571
10778TIP3   OH253748   5.633   0.573   2.547 -0.7323 -0.1424  0.2825
10778TIP3    H153749   5.607   0.512   2.478  3.0814 -1.7808  0.1746
10778TIP3    H253750   5.616   0.525   2.628 -1.1195  0.0729  0.3287
10779TIP3   OH253751   6.549   1.395   1.027 -0.3605 -0.3661  0.1526
10779TIP3    H153752   6.613   1.327   1.046  0.7032  0.5612 -0.0568
10779TIP3    H253753   6.492   1.397   1.104 -0.7930 -1.9101 -0.1089
10780TIP3   OH253754   0.897   5.758   2.692 -0.7546 -0.5598 -0.2593
10780TIP3    H153755   0.867   5.799   2.773  0.7569  0.6390 -0.2885
10780TIP3    H253756   0.948   5.826   2.648 -0.6442 -1.5513 -1.6973
10781TIP3   OH253757   4.713   2.409   4.246  0.0298  0.4559  0.2457
10781TIP3    H153758   4.765   2.448   4.316 -0.5257  0.7972  0.4682
10781TIP3    H253759   4.642   2.363   4.291 -1.4305  2.2702 -0.1501
10782TIP3   OH253760   1.366   6.908  15.415 -0.7559 -0.4948 -0.2621
10782TIP3    H153761   1.296   6.878  15.356 -0.4548 -2.3719  0.3140
10782TIP3    H253762   1.446   6.900  15.363 -0.8252  0.7183 -0.5857
10783TIP3   OH253763   3.719   2.704   3.725 -0.1528 -0.2476 -0.6630
10783TIP3    H153764   3.743   2.620   3.686 -0.2918  0.2511 -1.8241
10783TIP3    H253765   3.656   2.742   3.664  0.9213  1.3126 -0.8294
10784TIP3   OH253766   1.342   2.151  14.647 -0.1644 -0.3499 -0.0895
10784TIP3    H153767   1.344   2.061  14.613 -1.4904 -0.7515  0.8384
10784TIP3    H253768   1.402   2.149  14.722  1.2777  0.0446 -1.2103
10785TIP3   OH253769   4.531   0.571   1.260  0.4581 -0.1217 -0.4352
10785TIP3    H153770   4.591   0.505   1.295  0.8904  0.0695 -0.8065
10785TIP3    H253771   4.587   0.628   1.206 -0.0817 -0.0201 -0.8926
10786TIP3   OH253772   0.530   6.783  15.109 -0.2206  0.5014  0.2800
10786TIP3    H153773   0.509   6.722  15.179 -1.9452  0.3888 -0.3148
10786TIP3    H253774   0.545   6.867  15.153 -2.1372  0.6311  0.7411
10787TIP3   OH253775   5.463   6.959  12.030 -0.6651  0.0655  0.0312
10787TIP3    H153776   5.392   6.926  11.974  0.1010 -1.9981  0.2406
10787TIP3    H253777   5.534   6.896  12.017 -0.0329  0.2922  2.3432
10788TIP3   OH253778   6.946   1.226   3.217  0.2474  0.1459 -0.8064
10788TIP3    H153779   6.929   1.311   3.177 -2.3516 -0.5630 -1.2917
10788TIP3    H253780   6.863   1.179   3.212  2.3182 -3.5171 -3.1397
10789TIP3   OH253781   3.387   4.566   1.209  0.0209  0.3374 -0.1611
10789TIP3    H153782   3.398   4.587   1.116  2.1774  0.0498 -0.0091
10789TIP3    H253783   3.369   4.650   1.251 -0.6478  0.5106 -0.7946
10790TIP3   OH253784   3.643   4.667   0.189  0.4740  0.2049  0.1655
10790TIP3    H153785   3.668   4.687   0.279  0.0996 -2.3006  0.8464
10790TIP3    H253786   3.584   4.593   0.196  1.6810 -1.0489 -2.2559
10791TIP3   OH253787   4.067   1.059   3.642  0.3402  0.0131 -0.2816
10791TIP3    H153788   3.974   1.043   3.623  0.3572 -0.8052  0.2624
10791TIP3    H253789   4.066   1.099   3.729  0.4630  0.5946 -0.5466
10792TIP3   OH253790   2.867   4.150   0.875  0.0464 -0.3632  0.3259
10792TIP3    H153791   2.791   4.197   0.909 -0.2850 -1.2431  0.8118
10792TIP3    H253792   2.919   4.217   0.830  0.4046  0.7752  2.3983
10793TIP3   OH253793   6.044   3.075   0.898 -0.4476 -0.7346 -0.6115
10793TIP3    H153794   6.052   3.164   0.864  0.7009 -0.4494  0.3538
10793TIP3    H253795   5.950   3.056   0.895 -0.8576  0.9742  0.3147
10794TIP3   OH253796   1.058   0.754   2.262  0.0557  0.1973 -0.7708
10794TIP3    H153797   1.094   0.833   2.300  1.0453 -0.3842 -0.4849
10794TIP3    H253798   1.131   0.692   2.261 -0.4041 -0.3346 -2.0586
10795TIP3   OH253799   6.959   3.885   0.370 -0.0766  0.3216  0.2539
10795TIP3    H153800   7.015   3.808   0.363  0.2523  0.5225  0.6792
10795TIP3    H253801   6.871   3.852   0.356  0.0946 -0.0812  0.1159
10796TIP3   OH253802   1.607   2.030   3.258  0.1750 -0.0497 -0.2031
10796TIP3    H153803   1.530   2.009   3.311  0.8134 -0.5654  0.5481
10796TIP3    H253804   1.645   1.944   3.238 -0.2787  0.1070 -1.8622
10797TIP3   OH253805   4.242   5.496  14.356  0.2191  0.0418 -0.6681
10797TIP3    H153806   4.152   5.529  14.353 -0.2053 -1.0337 -0.1021
10797TIP3    H253807   4.254   5.468  14.447  0.8029 -0.6769 -0.9619
10798TIP3   OH253808   6.678   5.427  12.325  0.0128 -0.4560  0.4256
10798TIP3    H153809   6.598   5.452  12.279  0.4160  0.5555  0.2728
10798TIP3    H253810   6.659   5.442  12.417  0.0704 -0.0806  0.3777
10799TIP3   OH253811   5.590   5.873  14.981 -0.0555 -0.3842  0.1213
10799TIP3    H153812   5.532   5.833  14.916  1.1775 -1.2406 -0.4713
10799TIP3    H253813   5.671   5.822  14.975  0.5375  0.3981  1.3808
10800TIP3   OH253814   3.967   6.016   4.779  0.3157  0.0389 -0.3374
10800TIP3    H153815   3.934   6.053   4.861  0.1753  1.0752 -0.8588
10800TIP3    H253816   4.021   6.085   4.742  1.2355 -0.8165 -0.6093
10801TIP3   OH253817   4.644   4.477   2.353 -0.1618  0.5272 -0.7695
10801TIP3    H153818   4.738   4.486   2.368 -0.2909 -0.3943  0.6173
10801TIP3    H253819   4.613   4.567   2.343  0.9660  0.8053 -1.9786
10802TIP3   OH253820   5.447   6.607   2.119  0.0717  0.0798 -0.0241
10802TIP3    H153821   5.353   6.619   2.133 -0.2202 -2.3918  0.3511
10802TIP3    H253822   5.488   6.638   2.200 -0.4270  0.7666 -0.0295
10803TIP3   OH253823   2.453   6.276   2.762  0.5525  0.5207 -0.2798
10803TIP3    H153824   2.476   6.365   2.788 -0.4557  1.0888 -1.2848
10803TIP3    H253825   2.358   6.271   2.773  0.5658 -0.3505 -0.4880
10804TIP3   OH253826   5.686   0.873   1.652  0.3701 -0.0289 -0.3311
10804TIP3    H153827   5.685   0.786   1.612  1.9208 -1.2290  2.0808
10804TIP3    H253828   5.640   0.861   1.736 -0.0208  1.6506 -0.2857
10805TIP3   OH253829   4.182   3.201   1.785  0.7237  0.5066  0.0124
10805TIP3    H153830   4.226   3.255   1.719 -0.3864  2.1687  0.6142
10805TIP3    H253831   4.171   3.259   1.860 -1.3426 -0.2644  0.3389
10806TIP3   OH253832   2.830   6.060   2.627  0.0131  0.1524  0.0215
10806TIP3    H153833   2.763   6.111   2.581  1.3589  0.2122 -1.9621
10806TIP3    H253834   2.892   6.035   2.558  2.5090  0.8754  1.9468
10807TIP3   OH253835   0.755   1.672  12.616  0.5079 -0.3746 -0.2208
10807TIP3    H153836   0.811   1.596  12.633  1.0846 -0.1411 -1.0436
10807TIP3    H253837   0.701   1.680  12.695  0.2375 -1.8173 -0.2394
10808TIP3   OH253838   0.072   7.042  12.927 -0.5258 -0.4197  0.2889
10808TIP3    H153839   0.009   7.114  12.920  0.4158  0.4357  0.4685
10808TIP3    H253840   0.149   7.073  12.879 -0.4253 -1.6527 -0.3340
10809TIP3   OH253841   5.856   1.479   1.507  0.1138 -0.1368  0.2555
10809TIP3    H153842   5.941   1.435   1.515  0.8853  1.2953  0.1833
10809TIP3    H253843   5.823   1.451   1.421 -0.4922 -2.3610  1.1634
10810TIP3   OH253844   3.610   5.250  13.779  0.5160  0.3255  0.7962
10810TIP3    H153845   3.547   5.297  13.725 -0.0238  0.6836  1.7244
10810TIP3    H253846   3.596   5.284  13.868  2.2150  0.6283  0.9677
10811TIP3   OH253847   4.303   6.509   1.910 -0.4660 -0.1514  0.4122
10811TIP3    H153848   4.376   6.456   1.879 -0.7046 -0.9363  1.1809
10811TIP3    H253849   4.235   6.445   1.935 -0.6632  0.4980  1.5610
10812TIP3   OH253850   2.236   0.338  15.258 -0.1249 -0.4190  0.2139
10812TIP3    H153851   2.221   0.379  15.343  0.5127 -1.8223  1.0330
10812TIP3    H253852   2.329   0.314  15.259  0.6651  2.3770 -2.1667
10813TIP3   OH253853   4.643   0.204  12.509  0.6133  0.0953 -0.2137
10813TIP3    H153854   4.735   0.178  12.506  0.9296  1.1901  0.0077
10813TIP3    H253855   4.611   0.172  12.593  0.6396 -0.7928 -0.5393
10814TIP3   OH253856   4.696   1.305  12.772 -0.0503 -0.9865  0.3486
10814TIP3    H153857   4.648   1.251  12.709  3.2019  0.0705 -3.2450
10814TIP3    H253858   4.752   1.243  12.819  0.3996 -1.3349 -0.6245
10815TIP3   OH253859   1.026   4.553   1.623  1.0094  0.6052  0.0949
10815TIP3    H153860   0.932   4.553   1.636  0.8842  2.9132 -0.5160
10815TIP3    H253861   1.038   4.586   1.534  2.3408 -1.5045 -0.5581
10816TIP3   OH253862   5.608   2.927   0.601  0.1288 -0.0458 -0.4000
10816TIP3    H153863   5.646   2.969   0.524  2.4487  0.7635  1.1481
10816TIP3    H253864   5.680   2.879   0.641 -0.2734  1.8085  2.7938
10817TIP3   OH253865   3.951   4.088   4.118 -0.1084 -0.2540 -0.2254
10817TIP3    H153866   3.901   4.154   4.166  0.2300  0.5345 -0.9196
10817TIP3    H253867   3.886   4.046   4.061 -0.1223  0.3100 -0.6412
10818TIP3   OH253868   2.339   2.385   5.601  0.1603  0.5061 -0.2659
10818TIP3    H153869   2.416   2.383   5.544  2.0637  0.8098  2.1893
10818TIP3    H253870   2.297   2.469   5.583  0.5653  0.4711 -1.3962
10819TIP3   OH253871   6.150   1.136  15.263 -0.0294  0.0612 -0.3305
10819TIP3    H153872   6.118   1.214  15.308 -0.9439 -1.4893  1.8419
10819TIP3    H253873   6.112   1.063  15.313  3.9623 -1.8327  0.1200
10820TIP3   OH253874   2.790   0.949  14.687  0.2437  0.1046  0.4287
10820TIP3    H153875   2.756   0.946  14.776 -0.6743  2.5070  0.2157
10820TIP3    H253876   2.715   0.929  14.631 -0.2186  2.5598  0.0798
10821TIP3   OH253877   1.403   3.930   3.460 -0.1321 -0.0152 -0.2287
10821TIP3    H153878   1.310   3.910   3.453 -0.3660  1.0608 -0.3379
10821TIP3    H253879   1.407   4.003   3.523  0.4953  0.8871 -1.2944
10822TIP3   OH253880   1.224   5.321   0.864 -0.4958  0.2066 -0.0676
10822TIP3    H153881   1.272   5.314   0.946 -0.3041 -0.9370 -0.2669
10822TIP3    H253882   1.261   5.398   0.821 -0.4833  0.7170  0.8356
10823TIP3   OH253883   4.518   1.439   3.155  0.5023  0.7684 -0.0232
10823TIP3    H153884   4.479   1.431   3.242  0.7755  0.1425  0.0400
10823TIP3    H253885   4.498   1.356   3.112  0.2352  1.1380 -0.6132
10824TIP3   OH253886   4.539   5.789   3.877 -0.0690 -0.1281 -0.6684
10824TIP3    H153887   4.467   5.727   3.891  0.3698 -0.3529  0.6607
10824TIP3    H253888   4.503   5.874   3.903 -0.0096 -0.1620 -0.4750
10825TIP3   OH253889   6.469   2.448  13.945  0.2943  0.2105 -0.6866
10825TIP3    H153890   6.434   2.414  13.863 -0.6887 -0.4234 -0.0083
10825TIP3    H253891   6.508   2.532  13.922  0.7212 -0.3207 -1.9480
10826TIP3   OH253892   0.125   4.983   1.116  0.3562  0.1802  0.3779
10826TIP3    H153893   0.087   4.900   1.089  1.0578  0.3302 -1.0928
10826TIP3    H253894   0.062   5.019   1.179  0.2192 -1.6092  1.2854
10827TIP3   OH253895   0.785   1.539   4.470 -0.0283  0.6298  0.0056
10827TIP3    H153896   0.880   1.539   4.461 -0.2678 -0.2002 -3.0434
10827TIP3    H253897   0.766   1.464   4.526  1.0180 -0.3241 -0.8943
10828TIP3   OH253898   2.026   6.930   1.961  0.4303  0.5427  0.3372
10828TIP3    H153899   2.043   6.840   1.991 -0.3023  0.5698  0.8618
10828TIP3    H253900   2.019   6.923   1.866  0.1085 -0.0048  0.3980
10829TIP3   OH253901   3.702   3.135   2.006 -0.9368  0.7372 -0.0198
10829TIP3    H153902   3.669   3.182   2.082 -1.2536 -0.2222  0.4333
10829TIP3    H253903   3.624   3.101   1.963 -0.5391 -1.5919  1.0834
10830TIP3   OH253904   6.777   2.032   1.428 -0.7967 -0.4031  0.7281
10830TIP3    H153905   6.733   1.949   1.444  0.6898 -1.0721  1.4559
10830TIP3    H253906   6.706   2.097   1.424 -2.3410 -2.1422 -3.4255
10831TIP3   OH253907   6.311   6.229   4.744  0.7082  0.3718  0.6374
10831TIP3    H153908   6.300   6.213   4.837  0.7560  2.5180  1.0184
10831TIP3    H253909   6.323   6.323   4.736  0.5245  0.2451 -1.5591
10832TIP3   OH253910   1.173   6.201   3.257 -0.0930 -0.2612 -0.1395
10832TIP3    H153911   1.101   6.174   3.201  0.4394 -1.4922 -0.2516
10832TIP3    H253912   1.195   6.123   3.308  1.0123  0.1514  0.0406
10833TIP3   OH253913   6.213   4.437   3.618 -0.2747  0.1578  0.4039
10833TIP3    H153914   6.161   4.516   3.605 -1.9651 -1.1315 -0.7696
10833TIP3    H253915   6.159   4.381   3.673  1.4281  0.2810  2.2560
10834TIP3   OH253916   5.518   2.490   3.108 -0.1475 -0.6182  0.5040
10834TIP3    H153917   5.607   2.460   3.088  0.4329 -0.0078  2.0588
10834TIP3    H253918   5.461   2.432   3.058  1.0683 -2.1976  0.9153
10835TIP3   OH253919   4.460   1.105   2.747  0.8262  0.0269 -0.1830
10835TIP3    H153920   4.441   1.094   2.654  1.0261 -1.0109 -0.1079
10835TIP3    H253921   4.374   1.119   2.787  0.6599 -0.3065 -0.4222
10836TIP3   OH253922   5.993   6.198   0.731  0.5192  0.2402  0.8331
10836TIP3    H153923   5.900   6.221   0.723 -0.4612 -3.7952 -0.4465
10836TIP3    H253924   6.002   6.167   0.821 -0.1245 -2.1268  0.1286
10837TIP3   OH253925   2.914   1.317   2.300 -0.3839 -0.5339 -0.2177
10837TIP3    H153926   2.962   1.338   2.381 -1.6436 -0.2545  0.4663
10837TIP3    H253927   2.982   1.285   2.240  0.3380 -2.1801  1.4456
10838TIP3   OH253928   5.347   1.081   0.324 -0.3557  0.6942  0.1493
10838TIP3    H153929   5.318   1.075   0.233 -0.2038  0.8985  0.0870
10838TIP3    H253930   5.399   1.161   0.328  3.0466 -1.3621 -0.5405
10839TIP3   OH253931   0.287   2.391   2.306  0.4664  0.2966  0.2466
10839TIP3    H153932   0.239   2.471   2.286 -0.5514 -0.3053  0.2839
10839TIP3    H253933   0.339   2.374   2.227 -2.8291 -1.5539 -1.6187
10840TIP3   OH253934   4.904   6.556   4.681  0.4427 -0.6375 -0.0300
10840TIP3    H153935   4.948   6.527   4.761  2.5174 -1.3600 -1.3938
10840TIP3    H253936   4.823   6.597   4.712  2.1039  0.8046  2.5454
10841TIP3   OH253937   6.702   1.032  15.389 -0.3025  0.0285  0.4315
10841TIP3    H153938   6.696   1.117  15.431 -2.2839  0.3923 -0.5070
10841TIP3    H253939   6.706   0.969  15.462 -0.9381  0.8101  1.1509
10842TIP3   OH253940   0.289   0.722   1.325  0.8021  0.0458 -0.2304
10842TIP3    H153941   0.279   0.765   1.240 -0.0897  2.5424  1.0741
10842TIP3    H253942   0.344   0.781   1.376  0.0105 -0.6063  1.4529
10843TIP3   OH253943   1.781   0.048   2.681 -0.3209 -0.2824 -0.3966
10843TIP3    H153944   1.766   0.103   2.604  2.0870 -0.0730 -0.7482
10843TIP3    H253945   1.802  -0.038   2.646 -0.8890 -0.6236  0.0808
10844TIP3   OH253946   2.124   4.899   4.390  0.3352 -0.0213  0.0470
10844TIP3    H153947   2.206   4.853   4.370 -0.7786 -1.2745 -1.8358
10844TIP3    H253948   2.076   4.899   4.307 -1.3278  1.2131  0.9822
10845TIP3   OH253949   3.182   1.080   3.971 -0.5356  0.0719 -0.1169
10845TIP3    H153950   3.186   1.162   3.922 -2.7090 -0.2271 -0.8387
10845TIP3    H253951   3.244   1.023   3.925 -1.4135  0.2844 -1.5987
10846TIP3   OH253952   3.280   0.939  14.856  0.0378  0.2751 -0.2378
10846TIP3    H153953   3.261   0.893  14.938 -3.5972  0.3780 -0.9180
10846TIP3    H253954   3.355   0.994  14.876  0.1458 -0.8074  2.5889
10847TIP3   OH253955   0.483   6.268   1.476  0.1502  0.0278 -0.1120
10847TIP3    H153956   0.425   6.236   1.408 -0.8731  2.5048 -0.4727
10847TIP3    H253957   0.542   6.328   1.431 -1.3904  2.7205  1.3318
10848TIP3   OH253958   3.713   4.496   4.628  0.6036  0.1645 -0.0552
10848TIP3    H153959   3.803   4.526   4.634  0.1267  1.6022  0.0602
10848TIP3    H253960   3.663   4.574   4.606 -0.5760 -0.6830 -0.4338
10849TIP3   OH253961   2.943   5.140   2.762 -0.9919  0.0964  0.9005
10849TIP3    H153962   2.870   5.082   2.785 -0.6248  0.0591  1.9799
10849TIP3    H253963   3.021   5.092   2.791 -0.3228 -0.9912 -2.4315
10850TIP3   OH253964   6.477   0.930  15.235 -0.2505 -0.5977 -0.5867
10850TIP3    H153965   6.485   0.835  15.240  1.0729 -0.4275  1.1343
10850TIP3    H253966   6.560   0.963  15.272 -1.9880  1.2520  1.8290
10851TIP3   OH253967   5.583   4.267   0.420  0.4043  0.5368 -0.0481
10851TIP3    H153968   5.566   4.231   0.333  0.4340 -0.9550  0.5431
10851TIP3    H253969   5.498   4.298   0.450 -0.3707 -2.2046  0.8074
10852TIP3   OH253970   1.872   5.126   5.246  0.3489 -0.8972  0.1758
10852TIP3    H153971   1.841   5.080   5.168  1.1360  1.8154 -1.8452
10852TIP3    H253972   1.964   5.102   5.253  0.2410 -1.2557  0.3328
10853TIP3   OH253973   6.548   5.369  13.507 -0.4031 -0.3865 -0.3487
10853TIP3    H153974   6.538   5.292  13.563 -1.4194 -0.7723 -1.0534
10853TIP3    H253975   6.639   5.365  13.478  0.2601  0.0526  1.6032
10854TIP3   OH253976   2.469   4.669   1.668  0.2055  0.1810 -0.3663
10854TIP3    H153977   2.454   4.673   1.763 -2.0340 -1.5528 -0.5840
10854TIP3    H253978   2.461   4.759   1.638 -2.5811  0.3333  0.6676
10855TIP3   OH253979   6.642   4.165   1.677  0.3775  0.0179  0.4007
10855TIP3    H153980   6.558   4.208   1.694  0.1982 -0.5543  0.9555
10855TIP3    H253981   6.683   4.158   1.763  1.0827  0.4813  0.1029
10856TIP3   OH253982   3.785   5.043   0.267 -0.0046 -0.7334 -0.3697
10856TIP3    H153983   3.871   5.031   0.226  0.2620 -1.3054  0.3392
10856TIP3    H253984   3.781   5.137   0.285  0.4373 -0.6856 -0.4957
10857TIP3   OH253985   5.851   5.833  13.193  0.7657  0.2067 -0.1079
10857TIP3    H153986   5.843   5.918  13.237  0.4168  0.6678 -1.0448
10857TIP3    H253987   5.944   5.824  13.175  0.8550  0.2111  0.3406
10858TIP3   OH253988   4.971   4.331   4.318  0.1220 -0.7896  0.1865
10858TIP3    H153989   4.976   4.316   4.223 -0.5231 -0.3078  0.0723
10858TIP3    H253990   5.052   4.376   4.340 -0.9664  1.6764 -0.6312
10859TIP3   OH253991   0.888   5.524   1.029  0.8477 -0.4239 -0.1056
10859TIP3    H153992   0.889   5.429   1.025  1.9398 -0.5063  1.5255
10859TIP3    H253993   0.817   5.545   1.090  1.0102 -0.2347  0.0220
10860TIP3   OH253994   2.399   1.808   2.668 -0.0321 -0.4710  0.0849
10860TIP3    H153995   2.420   1.716   2.655  0.3002 -0.4595  0.5133
10860TIP3    H253996   2.464   1.855   2.616  0.2555 -0.4625  0.4504
10861TIP3   OH253997   1.002   6.239   5.032  0.0125  0.1278 -0.3395
10861TIP3    H153998   1.005   6.330   5.062 -1.0079 -0.1962  0.7805
10861TIP3    H253999   1.092   6.208   5.037  0.0020  0.3548  1.5702
10862TIP3   OH254000   0.385   0.979   0.482  0.0394 -0.9641  0.3867
10862TIP3    H154001   0.372   0.962   0.576  1.0898 -1.2755  0.4757
10862TIP3    H254002   0.310   1.034   0.458  0.3999  0.1462  1.6872
10863TIP3   OH254003   4.342   1.440   2.545 -0.5040 -0.3631 -0.1080
10863TIP3    H154004   4.373   1.494   2.473 -1.9122  0.5513 -0.0513
10863TIP3    H254005   4.417   1.432   2.604  0.3495 -0.2874 -1.1857
10864TIP3   OH254006   5.443   3.355  13.888  0.5362 -0.6645  0.4281
10864TIP3    H154007   5.433   3.300  13.965 -2.2780 -0.8301 -0.0051
10864TIP3    H254008   5.534   3.341  13.860  1.7375 -0.3172  3.8741
10865TIP3   OH254009   0.717   1.640  13.946  0.2170 -0.5714 -0.0830
10865TIP3    H154010   0.658   1.658  13.873 -1.1671  2.4021  1.7079
10865TIP3    H254011   0.685   1.558  13.983 -0.9511 -0.5165 -0.9366
10866TIP3   OH254012   3.752   1.247   4.629  0.4980 -0.2042  0.0320
10866TIP3    H154013   3.705   1.326   4.602  0.4489 -0.4252 -0.5346
10866TIP3    H254014   3.764   1.197   4.548 -1.7464 -2.0088  0.7550
10867TIP3   OH254015   0.921   4.355   1.388 -0.3881 -0.0618  0.3522
10867TIP3    H154016   0.916   4.434   1.335 -0.5202 -0.5101 -0.3118
10867TIP3    H254017   0.907   4.385   1.478 -1.4827  0.5313 -0.0044
10868TIP3   OH254018   5.660   0.171   2.569  0.2579 -0.0284 -0.0258
10868TIP3    H154019   5.566   0.156   2.572  0.2440 -0.1560 -1.0750
10868TIP3    H254020   5.698   0.083   2.564  0.4892 -0.0394  1.5965
10869TIP3   OH254021   3.849   0.296  12.035 -0.5686  0.2263  0.6808
10869TIP3    H154022   3.793   0.343  12.097  0.3363  1.6060  0.4762
10869TIP3    H254023   3.802   0.301  11.952 -0.4465  0.8369  0.6453
10870TIP3   OH254024   6.561   4.019   1.267  0.4010 -0.5361 -0.2973
10870TIP3    H154025   6.590   4.096   1.218  1.4256 -0.5597  0.2687
10870TIP3    H254026   6.641   3.969   1.284  0.1047 -0.3862  1.6237
10871TIP3   OH254027   2.646   5.078   2.463 -0.0381 -0.6222 -0.0255
10871TIP3    H154028   2.737   5.050   2.461 -0.4483 -2.2690  2.2096
10871TIP3    H254029   2.646   5.158   2.515  0.4854  0.9025 -2.3410
10872TIP3   OH254030   6.074   7.127   3.747  0.3430 -0.4881 -0.4096
10872TIP3    H154031   6.008   7.197   3.740  0.7208 -0.1828 -1.0115
10872TIP3    H254032   6.094   7.122   3.840  0.5636  0.4584 -0.3938
10873TIP3   OH254033   6.793   0.152   1.503  0.4320 -0.0515 -0.0526
10873TIP3    H154034   6.790   0.145   1.407 -3.6149 -0.2467 -0.0032
10873TIP3    H254035   6.776   0.244   1.521  2.2513  0.1944  0.4896
10874TIP3   OH254036   0.231   3.861  15.360 -0.4619  0.2781  0.6228
10874TIP3    H154037   0.164   3.845  15.293 -0.4000 -1.0670  0.8632
10874TIP3    H254038   0.217   3.952  15.387 -0.5759  0.8039 -1.1221
10875TIP3   OH254039   2.039   3.616   0.847  0.6118  0.0457 -0.3927
10875TIP3    H154040   1.967   3.596   0.787 -1.1167  1.8250  1.0386
10875TIP3    H254041   2.107   3.653   0.790 -1.4594  2.8515 -1.1662
10876TIP3   OH254042   6.995   6.636  15.357  0.4459  0.1402  0.4926
10876TIP3    H154043   6.935   6.571  15.393 -0.0602  0.2758 -0.0989
10876TIP3    H254044   6.942   6.685  15.294  1.5576 -0.6429 -1.0718
10877TIP3   OH254045   1.100   3.030   2.520 -0.3209 -0.3588  0.1737
10877TIP3    H154046   1.103   2.971   2.445  0.5548 -0.6878  0.4571
10877TIP3    H254047   1.185   3.018   2.564 -0.1696  1.0120  0.2974
10878TIP3   OH254048   6.031   6.660   0.790 -0.6148  0.0960  0.1342
10878TIP3    H154049   6.000   6.599   0.723 -1.2390 -1.9638  2.2208
10878TIP3    H254050   6.126   6.651   0.790 -0.7979 -2.1804  1.5608
10879TIP3   OH254051   4.951   6.814   0.076  0.6093 -0.7267 -0.0243
10879TIP3    H154052   4.904   6.756   0.136 -0.8087  0.6281  0.2108
10879TIP3    H254053   4.951   6.769  -0.008 -0.0921 -1.2593  0.2648
10880TIP3   OH254054   3.043   3.413  15.480  0.2184  0.1581 -0.1522
10880TIP3    H154055   3.128   3.455  15.465 -0.0234  0.1480 -1.6132
10880TIP3    H254056   3.021   3.436  15.570  2.1035 -0.4379  0.4941
10881TIP3   OH254057   6.906   4.205  13.580 -1.0419 -0.8127 -0.3760
10881TIP3    H154058   6.830   4.149  13.592 -1.2065 -0.6654 -0.7313
10881TIP3    H254059   6.952   4.202  13.664 -2.3414  0.4406  0.4038
10882TIP3   OH254060   4.974   2.031   2.796 -0.4979 -0.1609 -0.3918
10882TIP3    H154061   5.016   2.115   2.812  0.5342 -0.7179 -0.0558
10882TIP3    H254062   4.974   1.988   2.882 -0.2254 -0.8368 -0.7200
10883TIP3   OH254063   5.984   2.055  13.874 -0.4090 -0.0655  0.4051
10883TIP3    H154064   5.896   2.050  13.910  0.2703  0.2382  2.1425
10883TIP3    H254065   6.032   2.110  13.936  0.6720  0.8381 -1.1940
10884TIP3   OH254066   6.121   6.424   0.409 -0.0270 -0.1545  0.6814
10884TIP3    H154067   6.070   6.435   0.329  2.1280  0.0276 -0.7348
10884TIP3    H254068   6.059   6.438   0.480 -1.9355 -0.0664 -0.9696
10885TIP3   OH254069   5.260   1.672   2.726  0.2011 -0.0774 -0.6662
10885TIP3    H154070   5.303   1.624   2.796  0.1090  0.5118 -0.2048
10885TIP3    H254071   5.189   1.615   2.698 -0.1962 -0.0087  0.1918
10886TIP3   OH254072   4.990   1.916   1.448 -0.4003  0.4236  0.3773
10886TIP3    H154073   4.958   2.005   1.465 -0.4340  0.5819 -0.5327
10886TIP3    H254074   5.066   1.928   1.391 -1.8808 -0.2729 -1.7769
10887TIP3   OH254075   4.931   6.975   0.350 -0.6948  0.1657  0.2374
10887TIP3    H154076   4.988   6.955   0.276 -1.4621 -1.3556  0.0299
10887TIP3    H254077   4.989   7.018   0.413  0.0938  0.9638 -0.9988
10888TIP3   OH254078   0.912   0.642   0.627  0.4277  0.6334  0.5293
10888TIP3    H154079   0.935   0.705   0.695 -0.7367  1.9117 -0.2253
10888TIP3    H254080   0.943   0.558   0.660  1.4870  1.5158  1.8167
10889TIP3   OH254081   4.882   2.682  15.256  0.1731  0.2160  0.8623
10889TIP3    H154082   4.810   2.619  15.266  0.6586 -0.1606  1.9994
10889TIP3    H254083   4.918   2.691  15.344  1.2334  0.7519  0.3737
10890TIP3   OH254084   0.795   4.037   0.871 -0.0876  0.4104  0.2362
10890TIP3    H154085   0.888   4.055   0.888 -0.3763  0.1878  2.2187
10890TIP3    H254086   0.748   4.093   0.933 -1.2143 -0.7845  0.5041
10891TIP3   OH254087   5.090   6.294  15.276  0.0113 -0.3618 -0.3602
10891TIP3    H154088   5.139   6.315  15.356 -1.0257 -0.2331  0.2455
10891TIP3    H254089   5.038   6.218  15.299  0.7691 -1.1948 -1.3551
10892TIP3   OH254090   4.340   2.611  10.765  0.5481  0.0185 -0.3629
10892TIP3    H154091   4.370   2.574  10.682  0.8614  0.8140 -0.6074
10892TIP3    H254092   4.409   2.589  10.827 -0.0051 -1.1758 -0.1509
10893TIP3   OH254093   6.814   3.405  11.563 -0.1376  0.6547 -0.0838
10893TIP3    H154094   6.903   3.429  11.538 -0.4843  0.3426 -1.6431
10893TIP3    H254095   6.803   3.316  11.530 -0.1333 -0.3176  2.4293
10894TIP3   OH254096   2.747   0.132  13.769  0.2208  0.0829 -0.0966
10894TIP3    H154097   2.677   0.117  13.705  0.6306  0.0845 -0.5463
10894TIP3    H254098   2.780   0.044  13.789 -1.0083 -0.0651  1.3650
10895TIP3   OH254099   6.797   3.725   0.122  0.3430 -0.0658  0.3895
10895TIP3    H154100   6.717   3.722   0.070  0.2864 -1.6936  0.5295
10895TIP3    H254101   6.773   3.684   0.206  1.1000  0.1801  0.7318
10896TIP3   OH254102   2.109   1.035   4.301  0.5898  0.3791  0.3709
10896TIP3    H154103   2.133   1.005   4.213  0.4316  1.9147 -0.2100
10896TIP3    H254104   2.157   0.976   4.360 -1.2989 -2.2911 -0.6864
10897TIP3   OH254105   0.492   2.585   1.018  0.7935 -0.7985  0.4135
10897TIP3    H154106   0.487   2.490   1.004  0.5370 -0.5677 -1.1264
10897TIP3    H254107   0.578   2.609   0.984  1.5552 -0.7154  2.3323
10898TIP3   OH254108   5.379   2.990   3.630  0.4738 -0.4057 -0.3403
10898TIP3    H154109   5.388   2.921   3.564  0.5120 -0.4055 -0.3358
10898TIP3    H254110   5.292   2.977   3.667 -0.4217  0.9476 -1.9278
10899TIP3   OH254111   3.263   1.180  15.204  0.1809 -0.0197 -0.4668
10899TIP3    H154112   3.194   1.239  15.235 -0.8602 -1.3295 -0.2317
10899TIP3    H254113   3.345   1.222  15.230 -0.5301  1.5126 -0.6727
10900TIP3   OH254114   5.380   3.053  14.665  0.2544  0.1317 -0.0245
10900TIP3    H154115   5.354   2.962  14.679 -0.9130  0.0967 -2.3048
10900TIP3    H254116   5.473   3.055  14.690 -0.0358 -1.3542  1.3149
10901TIP3   OH254117   2.658   2.405   3.334  0.3102  0.2460  0.6344
10901TIP3    H154118   2.613   2.386   3.416  0.5752  0.3249  0.8003
10901TIP3    H254119   2.619   2.345   3.270  0.6684 -0.3902  1.0048
10902TIP3   OH254120   3.927   1.448   0.366  0.2208  0.1645 -0.2078
10902TIP3    H154121   3.939   1.537   0.400  1.4314  0.1590 -0.5686
10902TIP3    H254122   3.948   1.391   0.439  1.6007  0.1674 -0.5762
10903TIP3   OH254123   6.101   1.889  14.271  0.2079 -0.6020 -0.1566
10903TIP3    H154124   6.102   1.794  14.272 -0.9268 -0.6177 -0.3038
10903TIP3    H254125   6.008   1.913  14.278  0.4191  0.4771 -0.8549
10904TIP3   OH254126   2.318   0.565  14.412 -0.0653 -0.0455 -0.2749
10904TIP3    H154127   2.325   0.637  14.474 -0.7260 -1.2159  1.1947
10904TIP3    H254128   2.340   0.604  14.327  0.1605  1.7319  0.5768
10905TIP3   OH254129   5.703   5.909   1.185  0.4229 -0.5194 -0.1860
10905TIP3    H154130   5.693   5.916   1.090 -0.5137 -0.7394 -0.1108
10905TIP3    H254131   5.617   5.881   1.216  0.6475 -0.1916  0.7535
10906TIP3   OH254132   5.066   5.457   1.726 -0.4006 -0.6476 -0.2101
10906TIP3    H154133   5.007   5.491   1.659  1.6163 -1.5394 -2.4694
10906TIP3    H254134   5.089   5.534   1.778 -0.1343  0.4688 -1.9663
10907TIP3   OH254135   1.156   6.853  15.245  0.1549 -0.0137  0.2921
10907TIP3    H154136   1.063   6.864  15.267 -0.0698  0.1392 -0.7220
10907TIP3    H254137   1.168   6.904  15.165  0.5119 -2.0744 -1.0076
10908TIP3   OH254138   5.491   2.711  15.152  0.3981  0.5882 -0.4593
10908TIP3    H154139   5.404   2.671  15.159 -0.3179  2.3115  1.0350
10908TIP3    H254140   5.533   2.692  15.237  0.1296  2.7543  0.1786
10909TIP3   OH254141   2.210   6.844  15.026 -0.6284  0.5562  0.2201
10909TIP3    H154142   2.187   6.804  14.942  1.6633  0.2396 -0.2949
10909TIP3    H254143   2.199   6.938  15.012 -0.0440  0.5185 -0.5003
10910TIP3   OH254144   3.257   0.374   0.929 -0.7701  0.3903  0.9556
10910TIP3    H154145   3.270   0.281   0.911  0.5239  0.5157  1.2098
10910TIP3    H254146   3.282   0.418   0.848  1.6716  0.7174  1.8594
10911TIP3   OH254147   0.985   5.825  14.104 -0.0945  0.0831  0.1226
10911TIP3    H154148   0.921   5.768  14.146  1.0168  0.4684  2.4324
10911TIP3    H254149   1.049   5.843  14.172  0.1991  3.1624 -0.8890
10912TIP3   OH254150   6.473   5.259   2.331 -0.5251 -0.1558 -0.1565
10912TIP3    H154151   6.444   5.249   2.240 -2.0109  0.5052  0.2219
10912TIP3    H254152   6.475   5.170   2.366 -1.4107 -0.2794 -0.4074
10913TIP3   OH254153   2.384   6.655  13.168  0.0541  0.2457 -0.1005
10913TIP3    H154154   2.414   6.569  13.140 -0.1934  0.8102 -2.1907
10913TIP3    H254155   2.347   6.640  13.255  1.4011 -1.4562  0.2070
10914TIP3   OH254156   3.457   6.530  14.453  0.2423  0.0139  0.3930
10914TIP3    H154157   3.457   6.570  14.366 -0.3067  1.1909  0.9276
10914TIP3    H254158   3.403   6.588  14.507  2.2307  0.4246  2.0168
10915TIP3   OH254159   4.459   6.340  12.826  0.1703 -0.7376  0.3549
10915TIP3    H154160   4.544   6.334  12.783  0.3666  2.9359  0.0621
10915TIP3    H254161   4.396   6.317  12.757  0.7571 -0.0413 -0.4233
10916TIP3   OH254162   2.413   6.126   3.018 -0.0221  0.4828 -0.3437
10916TIP3    H154163   2.376   6.053   3.068  1.6319  0.6944  1.2612
10916TIP3    H254164   2.474   6.086   2.957 -0.7534  0.3538 -0.9889
10917TIP3   OH254165   6.049   1.357   1.354  0.3246 -0.1456 -0.0622
10917TIP3    H154166   6.090   1.415   1.289 -0.7484 -0.1139 -0.7228
10917TIP3    H254167   5.966   1.332   1.314  1.6519 -3.8492 -0.7611
10918TIP3   OH254168   0.084   0.965   1.992 -0.0874 -0.2163 -0.3200
10918TIP3    H154169   0.154   1.004   2.045 -0.0733 -0.7382  0.0454
10918TIP3    H254170   0.067   1.030   1.924 -0.0557  0.4298  0.2799
10919TIP3   OH254171   5.630   3.472   2.262 -0.0794 -0.0807  0.0850
10919TIP3    H154172   5.542   3.490   2.295 -1.3732 -0.6147 -2.8730
10919TIP3    H254173   5.687   3.532   2.310 -1.8184 -0.8099  3.1731
10920TIP3   OH254174   5.765   7.076   2.627 -0.0580  0.6635  0.1387
10920TIP3    H154175   5.768   6.981   2.638  0.6202  0.6381 -0.2696
10920TIP3    H254176   5.830   7.095   2.560 -0.7816  1.3326 -0.3856
10921TIP3   OH254177   3.260   6.749  11.946  0.6010 -0.1656  0.4229
10921TIP3    H154178   3.298   6.664  11.970 -0.4624 -0.9170 -0.4677
10921TIP3    H254179   3.166   6.737  11.959  0.2531  0.2496 -1.5516
10922TIP3   OH254180   4.632   2.373  12.804 -0.0562  0.2418 -0.2233
10922TIP3    H154181   4.656   2.347  12.893  0.6177 -0.4170 -0.5940
10922TIP3    H254182   4.589   2.295  12.767 -2.0975  1.1476  0.1759
10923TIP3   OH254183   0.229   4.383  14.590  0.0483 -0.2125 -0.5003
10923TIP3    H154184   0.277   4.383  14.507 -0.1728  0.8745 -0.6318
10923TIP3    H254185   0.296   4.383  14.658  0.2285 -0.9260 -0.6715
10924TIP3   OH254186   3.379   5.767   2.131 -0.3234 -0.4371  0.0943
10924TIP3    H154187   3.456   5.769   2.074 -1.2246 -1.9957 -1.2273
10924TIP3    H254188   3.381   5.680   2.171 -0.0411  0.4208  2.0006
10925TIP3   OH254189   4.443   0.665   2.965 -0.0957  0.3912  0.4527
10925TIP3    H154190   4.517   0.660   3.026  1.5510 -1.2706 -1.5933
10925TIP3    H254191   4.411   0.575   2.959 -0.2087  0.5206 -1.1183
10926TIP3   OH254192   6.679   5.878  13.985  0.6656  0.3258  0.0818
10926TIP3    H154193   6.689   5.860  13.891  0.8080  0.4426  0.0763
10926TIP3    H254194   6.755   5.931  14.008  0.0216  1.2984  0.0043
10927TIP3   OH254195   6.248   6.995  15.477  0.4391  0.1905 -0.4270
10927TIP3    H154196   6.232   7.057  15.406 -2.7955  0.5863  0.5581
10927TIP3    H254197   6.247   6.909  15.434 -0.3614  0.5088 -1.0714
10928TIP3   OH254198   4.072   0.633   2.704 -0.4229  0.0280 -0.4325
10928TIP3    H154199   4.106   0.545   2.723 -1.6298 -0.8806 -2.3818
10928TIP3    H254200   4.010   0.620   2.633 -0.6959  2.4693 -0.6721
10929TIP3   OH254201   3.252   2.599   5.046  0.4588  0.6172 -0.1424
10929TIP3    H154202   3.175   2.551   5.076  0.2282  1.0471 -0.0376
10929TIP3    H254203   3.264   2.668   5.111 -0.5244  2.0662 -1.4624
10930TIP3   OH254204   5.012   6.622   4.434 -0.1191 -0.1414 -0.4916
10930TIP3    H154205   4.986   6.591   4.521  1.0867  0.5744  0.1421
10930TIP3    H254206   4.930   6.637   4.388 -0.7695 -0.4262  0.5709
10931TIP3   OH254207   1.418   1.815   3.315 -0.1778  0.2117  0.2530
10931TIP3    H154208   1.333   1.777   3.337  0.1046  0.1720  1.3330
10931TIP3    H254209   1.474   1.739   3.296 -0.0774  0.1649  0.7106
10932TIP3   OH254210   5.501   0.388  14.529 -0.0311 -0.1041 -0.8132
10932TIP3    H154211   5.460   0.322  14.473 -3.6456  1.5960 -0.3591
10932TIP3    H254212   5.481   0.471  14.486  2.8224  0.8361 -0.3893
10933TIP3   OH254213   2.720   0.589  13.548  0.0876 -0.7535 -0.2456
10933TIP3    H154214   2.642   0.545  13.514  0.6340 -1.5249 -0.5102
10933TIP3    H254215   2.765   0.522  13.600  0.8474 -0.4664 -0.5231
10934TIP3   OH254216   2.188   6.694   4.077 -0.1782  0.3281 -0.6298
10934TIP3    H154217   2.156   6.772   4.124  0.3782  1.5763 -2.2855
10934TIP3    H254218   2.151   6.620   4.125 -2.1237  1.6535 -0.0567
10935TIP3   OH254219   6.681   1.414  12.267  0.4333  0.0883 -0.0514
10935TIP3    H154220   6.610   1.455  12.317  0.7114  0.7188 -0.1757
10935TIP3    H254221   6.678   1.322  12.293 -0.3811  0.1259  0.0019
10936TIP3   OH254222   6.519   6.920  13.193  0.3678 -0.0881  0.4743
10936TIP3    H154223   6.436   6.968  13.184  0.4143  0.2954  1.8630
10936TIP3    H254224   6.493   6.829  13.205  0.1337  0.0522  1.0556
10937TIP3   OH254225   1.920   4.063  14.810  0.5668  0.6926 -0.0993
10937TIP3    H154226   1.912   4.078  14.904  2.0143 -0.5822  0.2621
10937TIP3    H254227   1.980   4.131  14.779 -0.7103  1.7399 -0.2960
10938TIP3   OH254228   5.065   6.357  13.587  0.0921 -0.4815  0.2756
10938TIP3    H154229   4.996   6.291  13.579 -0.3914 -0.0130  0.5671
10938TIP3    H254230   5.056   6.410  13.508 -0.1664 -0.1526  0.5240
10939TIP3   OH254231   1.638   5.619  15.512  0.1287  0.3526  0.0145
10939TIP3    H154232   1.589   5.691  15.552  0.3832  0.2322  0.5498
10939TIP3    H254233   1.705   5.662  15.459  1.6056  0.5295  1.9609
10940TIP3   OH254234   5.622   6.322   1.301  0.6317  0.2847  0.0012
10940TIP3    H154235   5.538   6.317   1.347 -0.0806 -1.3170 -1.4152
10940TIP3    H254236   5.685   6.343   1.369 -0.9668  1.8865  1.0375
10941TIP3   OH254237   5.791   1.145   2.280  0.4524 -0.3638  0.1006
10941TIP3    H154238   5.822   1.187   2.200 -1.2269 -0.0480 -0.3812
10941TIP3    H254239   5.859   1.079   2.299  1.4005  0.2836 -0.9694
10942TIP3   OH254240   1.394   1.163   1.402  0.0574  0.1964  0.1787
10942TIP3    H154241   1.358   1.248   1.375 -0.3567  0.3630  1.2345
10942TIP3    H254242   1.485   1.181   1.425 -0.0395  0.3570  0.4318
10943TIP3   OH254243   2.264   1.577   2.321  0.3786 -0.2433  0.3587
10943TIP3    H154244   2.259   1.538   2.408 -1.3372  1.5964  1.1384
10943TIP3    H254245   2.342   1.632   2.324  1.5706 -1.8968 -0.0202
10944TIP3   OH254246   5.948   1.624  12.634 -0.2545  0.1391 -0.6784
10944TIP3    H154247   6.043   1.621  12.628 -0.3523  0.0077 -2.2329
10944TIP3    H254248   5.917   1.602  12.546 -1.7387 -0.8003  0.0535
10945TIP3   OH254249   3.326   2.641  15.336  0.1372 -0.0681  0.2513
10945TIP3    H154250   3.404   2.598  15.370 -0.4224 -2.4016 -1.2427
10945TIP3    H254251   3.354   2.730  15.315  2.1748 -0.6292  0.5016
10946TIP3   OH254252   7.087   5.744   4.947  0.1952 -0.1363 -1.0245
10946TIP3    H154253   7.085   5.840   4.943  2.5049  0.1024  1.9864
10946TIP3    H254254   7.018   5.716   4.887  0.2419  3.3738 -2.8220
10947TIP3   OH254255   6.166   4.146  14.403  0.2655  0.8202 -0.7541
10947TIP3    H154256   6.130   4.235  14.399 -1.3692  0.1534 -1.4198
10947TIP3    H254257   6.092   4.090  14.382  1.1116 -0.7476  0.3326
10948TIP3   OH254258   0.648   0.477   1.454  0.0216 -0.5386 -0.3063
10948TIP3    H154259   0.690   0.419   1.392 -0.4362 -0.9601 -0.2241
10948TIP3    H254260   0.694   0.560   1.445  1.7748 -1.3720  0.7621
10949TIP3   OH254261   2.370   5.813   0.320 -0.6829  0.3101  0.7139
10949TIP3    H154262   2.395   5.810   0.412  1.1473 -1.1690  0.1900
10949TIP3    H254263   2.445   5.852   0.275 -0.9901 -0.2955 -0.3564
10950TIP3   OH254264   6.667   6.314   2.247 -0.1260 -0.6031  0.8085
10950TIP3    H154265   6.607   6.371   2.296 -0.7522 -0.9404  0.4310
10950TIP3    H254266   6.631   6.311   2.159 -0.0118 -1.4721  0.7882
10951TIP3   OH254267   3.282   6.676   1.835  0.3925 -0.0032 -0.7011
10951TIP3    H154268   3.212   6.655   1.773  0.1840  0.7368 -0.7147
10951TIP3    H254269   3.239   6.729   1.903  0.1232 -2.5390  1.2197
10952TIP3   OH254270   2.320   5.572   1.133  0.7876 -0.2491 -0.6862
10952TIP3    H154271   2.303   5.556   1.040  2.6629 -1.2959 -0.8759
10952TIP3    H254272   2.380   5.648   1.134  2.7560 -1.7648 -0.4924
10953TIP3   OH254273   5.902   6.048   2.191 -0.1158 -0.3987  0.2709
10953TIP3    H154274   5.979   6.011   2.236  1.6237  0.8640 -1.5584
10953TIP3    H254275   5.894   6.136   2.227 -0.8642 -0.6200  0.6389
10954TIP3   OH254276   0.454   0.989   3.703 -0.6191  0.0379  0.1089
10954TIP3    H154277   0.470   0.920   3.767 -1.7482 -1.1253 -0.8381
10954TIP3    H254278   0.402   1.053   3.751 -0.1484 -0.0836  0.7966
10955TIP3   OH254279   5.248   4.261  13.142 -0.0759  0.3741 -0.1371
10955TIP3    H154280   5.285   4.343  13.109 -1.7687  0.4704 -1.8954
10955TIP3    H254281   5.155   4.267  13.121 -0.4707 -1.3904  1.0135
10956TIP3   OH254282   7.112   3.092  13.724  0.0206  0.4378 -0.9909
10956TIP3    H154283   7.042   3.120  13.783 -1.3946 -1.4397 -1.7119
10956TIP3    H254284   7.152   3.018  13.768  3.2166  2.9771  0.5484
10957TIP3   OH254285   3.553   6.207   2.957 -0.7086  0.3661  0.8477
10957TIP3    H154286   3.582   6.230   2.868  0.6322  2.0900  1.6860
10957TIP3    H254287   3.507   6.124   2.947 -1.2605  0.9145 -1.5849
10958TIP3   OH254288   4.986   0.648   5.132 -0.4794 -0.5775  0.1158
10958TIP3    H154289   4.927   0.696   5.075  1.5407  0.4791 -1.1444
10958TIP3    H254290   5.020   0.577   5.077  1.4289  0.4081 -0.0228
10959TIP3   OH254291   1.114   2.149   1.490  0.0840 -0.7200 -0.7964
10959TIP3    H154292   1.146   2.189   1.571  0.0433 -0.5478 -0.8647
10959TIP3    H254293   1.193   2.117   1.446  0.0584 -1.2567 -0.4534
10960TIP3   OH254294   0.303   4.221   1.430  0.1928  0.0863 -0.6927
10960TIP3    H154295   0.373   4.216   1.496 -0.0363 -3.0176 -0.6422
10960TIP3    H254296   0.259   4.304   1.450  0.9872 -0.1027  2.1932
10961TIP3   OH254297   0.829   2.675  14.892  0.1459 -0.2182 -0.1972
10961TIP3    H154298   0.881   2.669  14.812 -0.3152 -2.6559 -0.3447
10961TIP3    H254299   0.894   2.681  14.962  0.5950 -0.7917 -0.5582
10962TIP3   OH254300   3.775   0.999   3.146 -0.1146  0.0766 -0.5706
10962TIP3    H154301   3.801   1.027   3.058  2.9201 -0.3945  0.1115
10962TIP3    H254302   3.814   1.063   3.205  0.2065 -1.1215  0.5600
10963TIP3   OH254303   0.479   0.102   3.383  0.1521  0.3815 -0.4226
10963TIP3    H154304   0.550   0.037   3.377  0.1442  0.3615 -0.3101
10963TIP3    H254305   0.514   0.179   3.340  1.0987  1.1105  1.5557
10964TIP3   OH254306   0.223   4.048  14.771  0.2713 -0.0939 -0.1628
10964TIP3    H154307   0.262   3.965  14.745 -0.0484 -0.1471 -0.4755
10964TIP3    H254308   0.297   4.108  14.780  0.7813 -1.0576  2.5378
10965TIP3   OH254309   5.210   1.069   1.193  0.3423 -0.3622  0.0180
10965TIP3    H154310   5.223   0.976   1.212 -1.3563 -0.6542 -0.1941
10965TIP3    H254311   5.295   1.109   1.211  0.5987 -1.6717  1.8551
10966TIP3   OH254312   6.570   2.592   2.347 -0.1506  0.3774  0.2737
10966TIP3    H154313   6.589   2.591   2.441 -1.1129  1.0983  0.4836
10966TIP3    H254314   6.653   2.617   2.306  0.2234  0.2470  0.9442
10967TIP3   OH254315   4.468   4.160   1.372  0.0662 -0.2021 -0.8640
10967TIP3    H154316   4.504   4.234   1.422 -1.4143 -0.5241  0.7287
10967TIP3    H254317   4.531   4.146   1.302  0.7797  2.0731 -0.7322
10968TIP3   OH254318   4.701   0.726   0.201 -0.0160 -0.0203  0.1574
10968TIP3    H154319   4.699   0.662   0.272  2.1733 -1.7677 -1.2780
10968TIP3    H254320   4.618   0.714   0.155 -0.1722 -0.9227  0.6719
10969TIP3   OH254321   6.439   6.838   0.688 -0.1440 -0.2360 -0.1135
10969TIP3    H154322   6.479   6.752   0.672  1.5954  0.8184 -1.7393
10969TIP3    H254323   6.367   6.843   0.624  1.4002  0.5272 -1.8431
10970TIP3   OH254324   2.445   5.076   3.977  0.3565  0.8987 -0.4589
10970TIP3    H154325   2.448   5.127   4.057 -1.2255 -2.5163  1.8962
10970TIP3    H254326   2.356   5.090   3.943 -0.0342 -0.1248  0.1176
10971TIP3   OH254327   3.528   6.570   0.003 -0.1703  0.1161 -0.4010
10971TIP3    H154328   3.527   6.664   0.019 -0.1413  0.2415 -1.0780
10971TIP3    H254329   3.438   6.541   0.020 -0.2030  0.2861 -0.2878
10972TIP3   OH254330   3.115   1.042   2.373  0.3017  0.5284  0.2167
10972TIP3    H154331   3.060   1.107   2.416 -1.9503 -1.1212 -0.0292
10972TIP3    H254332   3.117   0.968   2.434  1.3370  0.1335 -0.2842
10973TIP3   OH254333   0.913   4.351  14.178  0.1652  0.4307 -0.0578
10973TIP3    H154334   0.833   4.400  14.198 -1.5677 -2.5995  0.8066
10973TIP3    H254335   0.893   4.304  14.097  0.9973 -0.4788  0.2555
10974TIP3   OH254336   6.944   1.480  14.686 -0.0409 -0.1577 -0.3701
10974TIP3    H154337   6.907   1.522  14.608  0.3743 -0.2291 -0.6053
10974TIP3    H254338   6.873   1.423  14.717 -0.5027  0.4982 -0.2076
10975TIP3   OH254339   3.942   6.252   0.970 -0.2679  0.4171  0.2783
10975TIP3    H154340   3.971   6.336   1.004  1.6909  0.9440 -2.5227
10975TIP3    H254341   3.950   6.192   1.044  1.6905  1.9751  1.3566
10976TIP3   OH254342   3.544   0.758   2.665 -0.4002  0.1862  0.3067
10976TIP3    H154343   3.627   0.726   2.700 -1.3092 -1.2058  1.2126
10976TIP3    H254344   3.537   0.718   2.578  0.6919  1.7106 -0.5192
10977TIP3   OH254345   6.182   6.104   2.631  0.5738 -0.6169  0.2846
10977TIP3    H154346   6.167   6.035   2.695 -2.0751 -0.4242 -0.0612
10977TIP3    H254347   6.189   6.184   2.683  1.3832 -0.8567  0.5380
10978TIP3   OH254348   5.110   5.190   0.730 -0.5539  0.3360  0.2871
10978TIP3    H154349   5.151   5.114   0.689 -1.6610  0.0496 -0.3206
10978TIP3    H254350   5.030   5.204   0.679 -1.8207  0.1385  2.1668
10979TIP3   OH254351   0.571   6.405   2.673 -0.2020  0.2298  0.4256
10979TIP3    H154352   0.643   6.348   2.703  0.7537  0.3597 -1.5742
10979TIP3    H254353   0.579   6.406   2.578 -2.1778  1.1785  0.2505
10980TIP3   OH254354   4.761   3.613   4.977  0.7482  0.2031 -0.1451
10980TIP3    H154355   4.688   3.582   5.031  1.0686  0.8605  0.6827
10980TIP3    H254356   4.720   3.653   4.901  0.2100  1.3913  0.7578
10981TIP3   OH254357   1.845   2.350  12.894  0.1597 -0.0073 -0.2993
10981TIP3    H154358   1.899   2.421  12.929 -2.6590  1.4017  1.3759
10981TIP3    H254359   1.893   2.318  12.818  2.8953  1.7513  0.6194
10982TIP3   OH254360   6.788   0.396  12.669  0.3215  0.0185  1.1102
10982TIP3    H154361   6.767   0.467  12.729 -0.0002 -0.4798  1.5923
10982TIP3    H254362   6.745   0.420  12.587  3.1474  2.1628  0.1591
10983TIP3   OH254363   1.436   6.296   0.810 -0.3994 -0.2927 -0.3781
10983TIP3    H154364   1.359   6.240   0.810 -0.8836  0.3604 -0.2837
10983TIP3    H254365   1.400   6.385   0.809  0.2195  0.1618  4.7885
10984TIP3   OH254366   6.391   0.280   4.180 -0.1283  0.0372 -0.0800
10984TIP3    H154367   6.346   0.304   4.098  0.1680  0.8816  0.0007
10984TIP3    H254368   6.334   0.214   4.219  0.1708 -1.0308 -1.3932
10985TIP3   OH254369   0.197   6.967   3.982  0.4604 -0.2924 -0.5012
10985TIP3    H154370   0.194   6.972   3.886  1.7305 -2.7229 -0.7176
10985TIP3    H254371   0.290   6.977   4.003  0.1215  0.7844  0.5481
10986TIP3   OH254372   4.302   3.388   1.632  0.1967 -0.2725  0.1097
10986TIP3    H154373   4.393   3.389   1.602 -0.3115  0.6089 -1.4623
10986TIP3    H254374   4.306   3.424   1.721  1.4607 -0.8705  0.3024
10987TIP3   OH254375   6.291   0.140   3.830 -0.1510  0.3717  0.1355
10987TIP3    H154376   6.329   0.189   3.757  1.9847 -0.5754  0.5770
10987TIP3    H254377   6.230   0.079   3.789 -1.3003  1.9630 -0.5863
10988TIP3   OH254378   2.201   3.630  15.551  0.2338 -0.1399  0.3495
10988TIP3    H154379   2.135   3.698  15.568 -0.2590  0.2361 -2.7298
10988TIP3    H254380   2.257   3.668  15.483  2.1987 -1.4212  1.2108
10989TIP3   OH254381   4.103   6.642   2.274 -0.1648  0.2314  0.2524
10989TIP3    H154382   4.131   6.651   2.183 -2.0764 -1.6087 -0.5726
10989TIP3    H254383   4.167   6.584   2.314  0.7598  1.1557  0.1179
10990TIP3   OH254384   4.432   3.484   2.444 -0.1167  0.4634  0.3830
10990TIP3    H154385   4.424   3.502   2.538  1.5629  0.5342  0.5292
10990TIP3    H254386   4.508   3.425   2.438  0.1327  0.9189 -0.9810
10991TIP3   OH254387   3.751   3.552   1.512  0.1339  0.7056  0.1994
10991TIP3    H154388   3.755   3.613   1.586 -1.3385 -1.0537  1.7643
10991TIP3    H254389   3.686   3.486   1.538  0.4986 -0.6267 -2.1387
10992TIP3   OH254390   4.426   2.495  12.613  0.0957  0.7637 -0.4362
10992TIP3    H154391   4.485   2.444  12.558  0.7103  0.1216  0.7750
10992TIP3    H254392   4.339   2.470  12.585  0.3981 -0.3092 -0.4538
10993TIP3   OH254393   0.077   1.258  14.798  0.2666  0.2000  0.3008
10993TIP3    H154394   0.075   1.162  14.789 -1.9925  0.4172 -2.1097
10993TIP3    H254395   0.121   1.273  14.882  0.8239 -2.9382  0.6408
10994TIP3   OH254396   0.319   6.612   0.143 -0.2347  0.4767 -0.0992
10994TIP3    H154397   0.229   6.632   0.117 -0.1274  0.2911 -0.6435
10994TIP3    H254398   0.326   6.641   0.233 -0.2904  2.2099 -0.6336
10995TIP3   OH254399   5.173   0.790   2.525  0.2948  0.3245  0.6855
10995TIP3    H154400   5.084   0.773   2.555  0.7625 -1.2625  1.2448
10995TIP3    H254401   5.168   0.785   2.430  0.1385 -1.7587  0.7796
10996TIP3   OH254402   5.539   1.387  14.699 -0.4226  0.8321  0.1440
10996TIP3    H154403   5.514   1.465  14.748  0.4856  1.4647 -0.3824
10996TIP3    H254404   5.562   1.420  14.612  0.3255  0.0181  0.0297
10997TIP3   OH254405   7.067   0.638   3.179  0.5033  0.2721 -0.0972
10997TIP3    H154406   6.990   0.675   3.222 -0.8322 -0.2860 -1.9123
10997TIP3    H254407   7.072   0.683   3.094  1.5335 -0.4726 -0.4499
10998TIP3   OH254408   6.688   4.688   0.769 -0.3043 -0.7638 -0.3548
10998TIP3    H154409   6.675   4.753   0.700 -0.3995  0.4935  0.8258
10998TIP3    H254410   6.782   4.692   0.788  0.1266 -2.7091 -1.9465
10999TIP3   OH254411   7.097   0.626  15.484  0.1382  0.7154 -0.2428
10999TIP3    H154412   7.191   0.636  15.501  0.8489  0.8423 -3.8171
10999TIP3    H254413   7.059   0.711  15.509  0.3772 -0.3441  4.2057
11000TIP3   OH254414   5.638   6.348   0.979  0.2329  0.0922  0.2600
11000TIP3    H154415   5.670   6.438   0.966 -0.6439  0.8251  2.8643
11000TIP3    H254416   5.644   6.334   1.073 -3.4423 -1.1051  0.4100
11001TIP3   OH254417   6.757   0.180  15.239  0.1734 -0.0090 -0.4008
11001TIP3    H154418   6.723   0.249  15.181  2.9467  0.8012 -1.1337
11001TIP3    H254419   6.780   0.226  15.320 -2.5754 -0.9432  0.9593
11002TIP3   OH254420   1.670   5.226   0.324 -0.2066 -0.2786  0.3676
11002TIP3    H154421   1.760   5.215   0.355  0.1068 -0.1645 -0.4936
11002TIP3    H254422   1.678   5.287   0.250 -0.8927 -0.9206 -0.2282
11003TIP3   OH254423   4.587   0.501   0.401 -0.0477  0.0526 -0.0377
11003TIP3    H154424   4.546   0.546   0.475  1.3857  2.5594 -0.7197
11003TIP3    H254425   4.513   0.477   0.344 -0.9941 -0.3107  1.3159
11004TIP3   OH254426   1.924   0.501   2.927  0.3361 -0.0772 -0.2674
11004TIP3    H154427   1.853   0.463   2.875 -1.1155 -0.1014  1.6974
11004TIP3    H254428   1.879   0.554   2.993  2.2226  1.8940 -0.5246
11005TIP3   OH254429   5.228   6.978   2.090 -0.0084  0.2022  0.0815
11005TIP3    H154430   5.295   7.023   2.038 -1.0076  0.5133 -0.9747
11005TIP3    H254431   5.145   7.012   2.055 -0.7128 -0.3833  1.1786
11006TIP3   OH254432   1.007   1.653  14.030  0.3782  0.6450 -0.6884
11006TIP3    H154433   0.921   1.634  13.993  0.6114  0.6517 -1.2399
11006TIP3    H254434   1.006   1.611  14.116  0.4056 -0.7509 -1.3445
11007TIP3   OH254435   0.690   6.304  15.432  0.0384  0.2611 -0.2746
11007TIP3    H154436   0.778   6.341  15.442 -0.4455  1.2067  0.5663
11007TIP3    H254437   0.632   6.380  15.435 -0.8273 -0.3840 -0.6277
11008TIP3   OH254438   3.710   6.690   4.519 -0.1582  0.7411  0.9617
11008TIP3    H154439   3.746   6.673   4.432 -1.3353  0.4779  0.5233
11008TIP3    H254440   3.616   6.676   4.510 -0.4559  1.9752  1.9638
11009TIP3   OH254441   3.724   3.941   2.148  0.0709  0.2448 -0.0682
11009TIP3    H154442   3.805   3.914   2.191 -0.2701 -2.2154 -0.8801
11009TIP3    H254443   3.738   3.922   2.055 -0.8014  1.4250 -0.4546
11010TIP3   OH254444   1.369   4.509   0.518  0.1566 -0.0639  0.2468
11010TIP3    H154445   1.411   4.518   0.433 -0.7234 -3.6686 -0.6433
11010TIP3    H254446   1.289   4.561   0.511  0.1115 -0.3066 -1.1213
11011TIP3   OH254447   5.486   1.929   1.125  0.1745  0.3058  0.3024
11011TIP3    H154448   5.503   1.912   1.032  0.5892 -1.7486  0.7288
11011TIP3    H254449   5.453   2.019   1.127  0.2785  0.4231 -1.8184
11012TIP3   OH254450   5.117   2.563   4.177  0.4427  0.1433 -0.3543
11012TIP3    H154451   5.101   2.561   4.271 -0.9046  0.1462 -0.5696
11012TIP3    H254452   5.105   2.654   4.152 -0.6965 -0.0939 -0.7511
11013TIP3   OH254453   3.665   5.526   1.708  0.8831  0.1398 -0.6408
11013TIP3    H154454   3.717   5.533   1.787  0.3541 -0.3262 -0.2466
11013TIP3    H254455   3.718   5.474   1.647  0.0018 -2.1818  0.5108
11014TIP3   OH254456   5.921   0.637  14.103  0.4008 -0.0055 -0.3576
11014TIP3    H154457   5.922   0.706  14.170 -0.0568 -1.1919  0.8865
11014TIP3    H254458   5.896   0.683  14.023  2.5339  1.7249 -0.0842
11015TIP3   OH254459   7.141   0.226   1.009 -0.0843 -0.3921  0.0580
11015TIP3    H154460   7.095   0.188   0.934  1.2044  0.7430 -1.3428
11015TIP3    H254461   7.128   0.320   1.000  0.7982 -0.1953  0.7933
11016TIP3   OH254462   7.087   1.242  12.797 -0.0993  0.0303 -0.0191
11016TIP3    H154463   7.033   1.165  12.811 -0.4901  0.2054 -0.5412
11016TIP3    H254464   7.176   1.208  12.787 -0.0970 -0.2535  0.9169
11017TIP3   OH254465   6.796   1.449   2.312  0.1421 -0.4987  0.2680
11017TIP3    H154466   6.743   1.527   2.298  1.3164  0.1190 -0.8261
11017TIP3    H254467   6.734   1.376   2.307 -1.0285  0.3838  1.7720
11018TIP3   OH254468   2.095   1.037  12.779  0.5547  0.3726  0.0879
11018TIP3    H154469   2.166   1.101  12.771 -0.3475  1.5010  0.8109
11018TIP3    H254470   2.038   1.074  12.846  0.2644 -1.4562  0.8820
11019TIP3   OH254471   6.397   0.928   0.297 -0.1147 -0.1388  0.3553
11019TIP3    H154472   6.318   0.967   0.334  0.6321  0.5778  1.2045
11019TIP3    H254473   6.458   0.923   0.370  0.3669 -1.4038 -0.1213
11020TIP3   OH254474   6.108   2.443   4.239  0.1500 -0.1741 -0.0207
11020TIP3    H154475   6.114   2.500   4.162  0.9470  0.7224  0.6885
11020TIP3    H254476   6.015   2.443   4.262  0.0978  0.5513 -0.2302
11021TIP3   OH254477   3.436   7.120  15.017 -0.0031  0.2975  0.9389
11021TIP3    H154478   3.405   7.210  15.029 -1.5522  0.1409 -1.6224
11021TIP3    H254479   3.529   7.129  14.996 -0.3955  1.3803 -0.3551
11022TIP3   OH254480   6.053   0.337  15.413 -0.4533 -0.4230  0.4850
11022TIP3    H154481   6.010   0.328  15.328  0.3720 -0.2067  0.0446
11022TIP3    H254482   5.983   0.366  15.472 -1.6201 -2.9636  0.4356
11023TIP3   OH254483   4.947   7.081  15.458 -0.0802  0.0292 -0.5695
11023TIP3    H154484   4.864   7.128  15.454  1.2584  2.5238  0.2047
11023TIP3    H254485   4.927   7.001  15.507 -1.7569  1.1833  0.6737
11024TIP3   OH254486   1.054   5.599   0.432 -0.1103 -0.4092  0.3807
11024TIP3    H154487   0.978   5.559   0.390 -0.4182  0.2490  0.3148
11024TIP3    H254488   1.085   5.665   0.370 -0.4435  0.4194  1.0890
11025TIP3   OH254489   1.915   6.623   1.062  0.1146 -0.3396  0.1949
11025TIP3    H154490   2.000   6.641   1.102  0.3679 -1.8491  0.3685
11025TIP3    H254491   1.934   6.617   0.968 -0.2706  1.9747 -0.0572
11026TIP3   OH254492   2.948   3.581   3.309  0.1164  0.1192  0.0524
11026TIP3    H154493   2.880   3.648   3.318 -0.1944 -0.2715  0.5768
11026TIP3    H254494   3.011   3.601   3.378  0.0539 -0.1026  0.1704
11027TIP3   OH254495   6.616   3.702   1.422 -0.4399  0.2625 -0.4309
11027TIP3    H154496   6.686   3.762   1.448 -0.5179 -0.5845  1.8178
11027TIP3    H254497   6.660   3.617   1.413 -0.7125  0.2354 -1.5922
11028TIP3   OH254498   6.863   5.841   4.264 -0.9181 -0.0014 -0.1003
11028TIP3    H154499   6.854   5.884   4.349 -0.5733  0.4023 -0.2692
11028TIP3    H254500   6.844   5.910   4.201 -0.5520 -0.1459 -0.3661
11029TIP3   OH254501   7.131   1.749   3.143 -0.3856 -0.0458  0.1497
11029TIP3    H154502   7.168   1.671   3.102  0.7843  1.1515 -1.1152
11029TIP3    H254503   7.197   1.777   3.207  0.0577  0.9770 -0.7388
11030TIP3   OH254504   4.807   4.430   1.740  0.6552  0.4558 -0.0789
11030TIP3    H154505   4.792   4.368   1.811  3.2599  1.6942  1.6295
11030TIP3    H254506   4.727   4.483   1.737 -0.7978 -1.6882 -0.2785
11031TIP3   OH254507   2.798   1.960   4.409  0.8434 -0.3406  0.1201
11031TIP3    H154508   2.740   1.986   4.481  0.2640  0.8338 -0.7470
11031TIP3    H254509   2.803   1.865   4.415  0.4052 -0.2917  1.4095
11032TIP3   OH254510   4.164   2.510   1.009  0.0813  0.3491  0.3456
11032TIP3    H154511   4.144   2.569   0.936 -1.5404  0.0068  0.5057
11032TIP3    H254512   4.253   2.479   0.990  0.2174  1.3484 -0.7462
11033TIP3   OH254513   2.475   0.677   2.077 -0.0496  0.4665 -0.6833
11033TIP3    H154514   2.568   0.655   2.086 -0.7021 -2.2404 -0.1572
11033TIP3    H254515   2.430   0.614   2.133 -2.2211  1.6975 -0.9988
11034TIP3   OH254516   2.974   2.854   1.921 -0.5040  0.2040 -0.0366
11034TIP3    H154517   2.914   2.909   1.872 -0.3779  0.1152 -0.2912
11034TIP3    H254518   3.036   2.821   1.856 -0.5120 -0.1477  0.1289
11035TIP3   OH254519   1.481   7.132   0.637  0.2179  0.2719 -0.7468
11035TIP3    H154520   1.540   7.064   0.604 -0.2905 -0.2582 -0.5919
11035TIP3    H254521   1.487   7.203   0.573  0.6380  0.0126 -0.9949
11036TIP3   OH254522   6.709   5.142   2.054  0.6146 -0.1386  0.7549
11036TIP3    H154523   6.647   5.096   2.110 -1.2435  2.0046  0.5376
11036TIP3    H254524   6.778   5.172   2.113  0.6023 -1.1151  1.2713
11037TIP3   OH254525   4.568   2.315   0.030 -0.0583  0.5715  0.1780
11037TIP3    H154526   4.488   2.368   0.029 -1.3803 -1.3314  0.1289
11037TIP3    H254527   4.576   2.286   0.121 -0.8737 -1.2859 -0.3056
11038TIP3   OH254528   0.865   0.317   3.408 -0.4028  0.2481 -0.2787
11038TIP3    H154529   0.867   0.336   3.502  0.0234  0.5866 -0.3539
11038TIP3    H254530   0.855   0.222   3.403 -0.6036  0.2468  0.1096
11039TIP3   OH254531   7.082   4.009  11.574  0.2242 -0.1156 -0.4763
11039TIP3    H154532   7.039   4.091  11.549 -0.6681 -0.5583 -0.4105
11039TIP3    H254533   7.020   3.941  11.549  0.4517 -0.7088  0.5324
11040TIP3   OH254534   1.148   1.309   4.784 -0.5892  0.1462  0.0699
11040TIP3    H154535   1.201   1.283   4.709 -1.2486  1.5242 -0.8944
11040TIP3    H254536   1.077   1.245   4.788  0.0270 -0.5359  0.1545
11041TIP3   OH254537   6.427   0.137   1.658  0.1369 -0.3850  0.6507
11041TIP3    H154538   6.499   0.083   1.627  0.4021 -0.3645  1.2182
11041TIP3    H254539   6.348   0.095   1.623  0.3375 -1.1526  1.1122
11042TIP3   OH254540   4.014   2.545   2.461  0.7389 -0.2410 -0.1243
11042TIP3    H154541   4.063   2.578   2.386 -2.1699 -0.1265 -2.0742
11042TIP3    H254542   3.998   2.622   2.516  1.8710 -0.1101  0.0209
11043TIP3   OH254543   4.608   5.733   0.941  0.3248 -0.3621  0.0694
11043TIP3    H154544   4.646   5.784   1.013 -2.2566  2.3093 -0.3764
11043TIP3    H254545   4.684   5.701   0.892  2.0664  1.1636  1.6843
11044TIP3   OH254546   0.165   6.880   3.434  0.1425 -0.4354  0.4843
11044TIP3    H154547   0.181   6.930   3.353 -0.2742 -0.8461  0.1448
11044TIP3    H254548   0.238   6.903   3.491  1.0677 -1.0472 -0.4410
11045TIP3   OH254549   3.745   3.659  14.075  0.1089 -0.5425 -0.7667
11045TIP3    H154550   3.840   3.663  14.060  0.4117 -0.9117  0.9887
11045TIP3    H254551   3.709   3.729  14.021  1.5559  0.7775 -0.0479
11046TIP3   OH254552   5.264   1.689   1.768 -0.0313  0.4510 -0.5665
11046TIP3    H154553   5.230   1.741   1.841 -0.7471 -1.0796  0.2100
11046TIP3    H254554   5.192   1.630   1.745  2.0945 -2.9969  1.2232
11047TIP3   OH254555   3.380   4.850   1.333 -0.1693 -0.1988  0.8469
11047TIP3    H154556   3.445   4.899   1.282 -0.2717 -2.5963 -1.6990
11047TIP3    H254557   3.303   4.908   1.336  0.7900  1.1023  0.6820
11048TIP3   OH254558   3.900   4.642   1.943  0.2341 -0.3160 -0.6170
11048TIP3    H154559   3.973   4.581   1.942  0.6635  0.1919 -1.2780
11048TIP3    H254560   3.872   4.645   2.034 -0.7452 -2.5978 -0.8125
11049TIP3   OH254561   1.138   1.164   2.226  0.2839  0.5933 -0.3124
11049TIP3    H154562   1.051   1.197   2.202  0.0437 -0.2036 -0.5484
11049TIP3    H254563   1.166   1.221   2.298  1.1143  3.1733 -2.6259
11050TIP3   OH254564   2.329   2.639   2.370  0.9272  0.0797  0.6288
11050TIP3    H154565   2.366   2.590   2.297 -1.9765  1.3218 -1.7855
11050TIP3    H254566   2.398   2.701   2.395  2.4104 -1.1941 -0.2321
11051TIP3   OH254567   1.983   5.588  15.316  0.2834  0.5916  0.3510
11051TIP3    H154568   2.057   5.547  15.360  0.3909  0.2980 -0.0981
11051TIP3    H254569   1.989   5.557  15.226 -0.7209  0.1018  0.4419
11052TIP3   OH254570   6.212   1.734   1.568 -0.4720  0.4434 -0.0792
11052TIP3    H154571   6.246   1.751   1.480  1.8547  0.6093  0.8207
11052TIP3    H254572   6.142   1.798   1.580 -0.7079  0.5217 -1.7357
11053TIP3   OH254573   5.522   1.708   0.026  0.1078  0.4113  0.7985
11053TIP3    H154574   5.566   1.696  -0.058 -0.3670  1.0979  0.4488
11053TIP3    H254575   5.593   1.704   0.091  0.4294 -0.4940  0.4052
11054TIP3   OH254576   1.778   5.936   0.449 -0.4325  0.5990 -0.4531
11054TIP3    H154577   1.723   6.007   0.482 -0.5139  0.9408 -1.3191
11054TIP3    H254578   1.861   5.977   0.429  0.0674  0.1294  0.6073
11055TIP3   OH254579   2.535   1.091   1.533  0.0586 -0.2091 -0.2273
11055TIP3    H154580   2.502   1.056   1.450  1.4778  1.9876 -1.7696
11055TIP3    H254581   2.517   1.185   1.528  1.3167  0.1415  1.4221
11056TIP3   OH254582   2.027   3.579   0.274  0.4268  0.0659  0.1490
11056TIP3    H154583   1.978   3.602   0.354 -2.0815  2.6977 -2.0131
11056TIP3    H254584   2.104   3.636   0.276  0.4770 -0.0212  0.7782
11057TIP3   OH254585   1.486   2.818  10.306  0.8091  0.2972  0.3685
11057TIP3    H154586   1.468   2.729  10.335  0.2789 -0.1139 -1.1530
11057TIP3    H254587   1.414   2.839  10.247  1.3788  1.4186  0.0478
11058TIP3   OH254588   0.033   1.321  13.592 -0.4186  0.2913  0.1430
11058TIP3    H154589  -0.024   1.382  13.640 -0.3234  0.1774  0.4043
11058TIP3    H254590   0.018   1.341  13.500  1.2740  2.2939  0.2418
11059TIP3   OH254591   1.216   2.532   1.098 -0.2082  0.2080  0.2566
11059TIP3    H154592   1.185   2.494   1.015  1.4205  1.5191 -0.9842
11059TIP3    H254593   1.264   2.610   1.072  0.9904  0.2201  2.3928
11060TIP3   OH254594   0.915   6.492   3.144 -0.6929  0.9638 -0.3386
11060TIP3    H154595   0.981   6.559   3.125 -0.8596  1.8245  1.9232
11060TIP3    H254596   0.841   6.516   3.089 -0.5896  2.4166  0.1170
11061TIP3   OH254597   2.573   0.873   3.041  0.5788 -0.5330 -0.3521
11061TIP3    H154598   2.652   0.910   3.003  1.3932  0.9380  2.6568
11061TIP3    H254599   2.586   0.778   3.036  1.6749 -0.3333 -1.5448
11062TIP3   OH254600   3.465   2.483  14.116 -0.3804 -0.0154 -0.3411
11062TIP3    H154601   3.437   2.530  14.194  0.6024  0.9381 -0.5459
11062TIP3    H254602   3.541   2.532  14.084  1.5011 -2.4742  0.1631
11063TIP3   OH254603   2.238   6.439  15.508 -0.3044 -0.1236  0.4428
11063TIP3    H154604   2.278   6.525  15.524 -1.2328  0.0899  1.6749
11063TIP3    H254605   2.246   6.427  15.414 -1.3454  1.9123  0.0593
11064TIP3   OH254606   2.231   6.137   3.303 -0.6942 -0.6736  0.2118
11064TIP3    H154607   2.244   6.055   3.255  0.4191 -1.1503  1.2756
11064TIP3    H254608   2.294   6.132   3.375 -0.4681  1.2074  0.1763
11065TIP3   OH254609   0.761   2.619   0.924  0.3695 -0.1072 -0.5980
11065TIP3    H154610   0.850   2.654   0.921  0.3686  0.3227  2.2875
11065TIP3    H254611   0.772   2.525   0.908  1.4505 -0.1789  0.4644
11066TIP3   OH254612   5.283   0.420   2.580  0.2271  0.0736 -0.3009
11066TIP3    H154613   5.323   0.334   2.592  1.8674  0.4398 -2.8217
11066TIP3    H254614   5.243   0.416   2.493 -1.8476  1.0517  0.5642
11067TIP3   OH254615   2.703   2.698   0.128  0.0486  0.0991 -0.0740
11067TIP3    H154616   2.705   2.737   0.215  0.7092  1.2323 -0.5802
11067TIP3    H254617   2.780   2.641   0.126 -1.0192 -1.3884  0.7307
11068TIP3   OH254618   0.576   2.793   1.498 -0.3896  0.1753 -0.1920
11068TIP3    H154619   0.606   2.745   1.421 -2.3330 -0.9688 -0.2656
11068TIP3    H254620   0.490   2.826   1.473 -0.3287  1.1925  0.9220
11069TIP3   OH254621   6.245   2.762  14.128 -0.7353  0.2723 -0.0725
11069TIP3    H154622   6.269   2.854  14.114  0.2581 -0.2248 -1.7172
11069TIP3    H254623   6.323   2.713  14.105 -0.5299 -0.8893  2.9434
11070TIP3   OH254624   1.405   4.588   0.258  0.1517  0.6875 -0.0202
11070TIP3    H154625   1.331   4.645   0.278 -1.7578 -0.7414 -2.7024
11070TIP3    H254626   1.478   4.648   0.241 -0.5416  2.1443  1.9988
11071TIP3   OH254627   1.448   4.107   2.116 -0.1193 -0.3020  0.0568
11071TIP3    H154628   1.530   4.137   2.076 -1.2924  0.5887 -1.7365
11071TIP3    H254629   1.424   4.029   2.066 -0.0683 -0.9183  0.9779
11072TIP3   OH254630   4.027   5.670  11.757  0.0370 -0.4748 -0.4478
11072TIP3    H154631   4.118   5.698  11.766  0.1416 -0.9795  0.1432
11072TIP3    H254632   4.033   5.575  11.744 -0.4585 -0.7085  0.9219
11073TIP3   OH254633   0.561   1.385   4.116 -0.2131 -0.0206 -0.1835
11073TIP3    H154634   0.548   1.396   4.210  0.0933  1.3343 -0.2945
11073TIP3    H254635   0.569   1.474   4.082 -0.0656 -0.5102 -1.4590
11074TIP3   OH254636   4.072   5.217   5.406  0.2346 -0.0414 -0.3533
11074TIP3    H154637   4.048   5.124   5.399 -0.4802  0.1310 -0.2733
11074TIP3    H254638   4.022   5.249   5.481 -0.2649  0.6358 -0.9639
11075TIP3   OH254639   6.215   5.071   1.353 -0.3320 -0.0846  0.2794
11075TIP3    H154640   6.144   5.007   1.344  0.9020 -1.3191 -0.9278
11075TIP3    H254641   6.224   5.083   1.448 -0.0905 -2.2664  0.5503
11076TIP3   OH254642   4.673   6.105   1.866 -0.4849  0.0084  0.2108
11076TIP3    H154643   4.705   6.054   1.791  1.0222 -1.2194  1.6520
11076TIP3    H254644   4.655   6.040   1.933 -0.1128  1.2444  1.5360
11077TIP3   OH254645   5.174   5.385   2.258 -0.1715 -0.2368 -0.4771
11077TIP3    H154646   5.258   5.428   2.276 -0.3823  0.3060 -0.8112
11077TIP3    H254647   5.196   5.316   2.196  0.2513 -0.9541  0.4402
11078TIP3   OH254648   5.998   2.325  13.522  0.0084 -0.0452 -0.1629
11078TIP3    H154649   6.053   2.384  13.470  0.9845 -0.7972 -0.0149
11078TIP3    H254650   6.051   2.307  13.600 -1.1015  0.4216  0.7071
11079TIP3   OH254651   3.921   0.162   2.646 -0.5009 -0.5922 -0.3425
11079TIP3    H154652   3.856   0.201   2.705  0.2169  2.1847 -1.2812
11079TIP3    H254653   3.881   0.166   2.560 -0.4402 -2.0602 -0.4407
11080TIP3   OH254654   3.625   1.617  12.948 -0.9848  0.2203  0.2029
11080TIP3    H154655   3.604   1.704  12.982 -1.2662  0.6741 -1.1172
11080TIP3    H254656   3.714   1.626  12.913 -0.6179 -0.3021  0.9869
11081TIP3   OH254657   0.630   1.925  15.360  0.1742  0.4153 -0.3143
11081TIP3    H154658   0.656   1.988  15.427  0.2168  0.1221 -0.0519
11081TIP3    H254659   0.710   1.875  15.343 -0.0605 -0.0827  0.0452
11082TIP3   OH254660   2.567   0.651   0.014  0.3796 -0.1275  0.0482
11082TIP3    H154661   2.593   0.573   0.064  1.9380  1.8503  2.4496
11082TIP3    H254662   2.588   0.724   0.072 -3.9747  1.9853 -0.8780
11083TIP3   OH254663   6.807   1.743  15.424  0.4346 -0.2491  0.0948
11083TIP3    H154664   6.768   1.803  15.487  1.7689  0.0729  0.6296
11083TIP3    H254665   6.762   1.660  15.439 -0.2356  0.1884  0.5028
11084TIP3   OH254666   7.056   5.034  13.220 -0.9598  0.0627 -0.9256
11084TIP3    H154667   7.051   5.130  13.213 -0.4223  0.1073 -0.7214
11084TIP3    H254668   7.028   5.016  13.310  0.5200  0.1576 -0.4327
11085TIP3   OH254669   1.987   0.318   0.065  0.2143 -0.3853 -0.0455
11085TIP3    H154670   2.073   0.357   0.049  0.6965 -1.4927 -0.1468
11085TIP3    H254671   1.973   0.258  -0.007 -0.9784  0.3283 -0.4272
11086TIP3   OH254672   1.870   3.233  14.074 -0.2829 -0.0007 -0.3851
11086TIP3    H154673   1.788   3.199  14.039 -1.2102  1.9677 -0.2017
11086TIP3    H254674   1.922   3.255  13.997 -0.5661  0.2460 -0.5058
11087TIP3   OH254675   0.441   3.974   1.633 -0.7650 -0.2562  0.5626
11087TIP3    H154676   0.496   3.929   1.698 -1.0783  0.7315  1.5176
11087TIP3    H254677   0.352   3.945   1.654 -0.7195 -1.1342 -0.4059
11088TIP3   OH254678   0.374   4.738   0.110  0.2240 -0.5665 -0.5303
11088TIP3    H154679   0.346   4.782   0.029 -2.3658 -0.1307  0.5397
11088TIP3    H254680   0.385   4.647   0.084  0.5684 -0.2268 -1.6333
11089TIP3   OH254681   3.930   4.623   2.596  0.1599 -0.0470 -0.2944
11089TIP3    H154682   3.848   4.642   2.641 -0.2869 -2.3055 -0.0909
11089TIP3    H254683   3.998   4.649   2.659 -0.3710  2.0878 -0.5767
11090TIP3   OH254684   5.171   4.693   3.423 -0.1692 -0.0283 -0.2794
11090TIP3    H154685   5.189   4.729   3.510 -1.2265 -3.3647  1.3881
11090TIP3    H254686   5.093   4.740   3.393 -0.0937  0.7924  0.7843
11091TIP3   OH254687   5.369   2.492  11.398  0.1923  0.0164  0.7457
11091TIP3    H154688   5.459   2.462  11.409  1.2378  1.9803 -1.9004
11091TIP3    H254689   5.329   2.429  11.338  0.8964  1.0806 -0.8726
11092TIP3   OH254690   5.846   4.758  12.364 -0.5890 -0.8185  0.1556
11092TIP3    H154691   5.871   4.701  12.291 -0.6008 -1.0946  0.3624
11092TIP3    H254692   5.846   4.846  12.327  2.3558 -0.6102  0.5891
11093TIP3   OH254693   0.830   0.242   1.000  0.4020  0.1164 -0.0783
11093TIP3    H154694   0.860   0.154   0.975  0.6478  0.3832 -0.7445
11093TIP3    H254695   0.735   0.239   0.987  0.3555 -0.1898  0.3328
11094TIP3   OH254696   0.032   4.159   1.680  0.6632 -0.1144 -0.4076
11094TIP3    H154697  -0.037   4.215   1.645 -0.7536 -1.2686  0.5106
11094TIP3    H254698  -0.011   4.104   1.745  2.3873 -1.0489 -0.0118
11095TIP3   OH254699   5.112   4.357   0.710 -0.1554  0.7870  0.1845
11095TIP3    H154700   5.092   4.367   0.803 -1.0269 -1.0210  0.1891
11095TIP3    H254701   5.027   4.351   0.667  0.2726 -0.0402 -0.5504
11096TIP3   OH254702   3.350   7.001  13.813  0.2527  0.1732 -0.0525
11096TIP3    H154703   3.341   7.088  13.774 -0.6027  0.5454  0.9276
11096TIP3    H254704   3.261   6.965  13.812  0.2254  0.1525  1.4007
11097TIP3   OH254705   4.124   3.150  13.292 -0.4843 -0.5833 -0.4460
11097TIP3    H154706   4.108   3.073  13.237 -1.6149 -0.5045 -0.2300
11097TIP3    H254707   4.196   3.123  13.349  1.2808 -0.3852 -2.4898
11098TIP3   OH254708   1.705   3.836  15.175 -0.0719 -0.1025  0.0459
11098TIP3    H154709   1.754   3.919  15.174 -0.2504  0.0081  0.4264
11098TIP3    H254710   1.625   3.857  15.223 -0.0037 -0.5663  0.3545
11099TIP3   OH254711   6.948   4.531  12.649  0.2614  0.1482  0.0832
11099TIP3    H154712   7.025   4.561  12.602  0.5303  1.1020  1.1372
11099TIP3    H254713   6.884   4.601  12.638 -0.1611 -0.2481 -0.0240
11100TIP3   OH254714   0.459   4.258   4.616 -0.5346  0.0656  0.5120
11100TIP3    H154715   0.493   4.286   4.700  1.5118  0.6542 -0.4824
11100TIP3    H254716   0.535   4.221   4.570 -1.8160 -1.1508 -0.6872
11101TIP3   OH254717   5.241   2.870   1.856  0.0706  0.3897 -0.1062
11101TIP3    H154718   5.258   2.924   1.778  0.6339  0.4622  0.0636
11101TIP3    H254719   5.280   2.920   1.928  0.2335 -0.0543  0.1110
11102TIP3   OH254720   1.289   5.603  14.311 -0.1719 -0.1520 -0.1745
11102TIP3    H154721   1.290   5.563  14.224 -2.0050 -2.0830  0.6430
11102TIP3    H254722   1.375   5.580  14.348 -1.6019 -4.6145  0.7405
11103TIP3   OH254723   4.355   3.094   0.477 -0.2086 -0.3673  0.0655
11103TIP3    H154724   4.330   3.167   0.533  1.1963  0.2378 -0.0952
11103TIP3    H254725   4.277   3.077   0.423 -0.6427  0.7814  0.3326
11104TIP3   OH254726   5.956   0.700   4.845 -0.6115  0.1741 -0.1447
11104TIP3    H154727   6.035   0.650   4.866 -0.0286  1.0115 -0.3332
11104TIP3    H254728   5.972   0.787   4.882 -0.6023  0.9313 -1.8804
11105TIP3   OH254729   6.524   2.173   1.437 -0.3959  0.1753 -0.2791
11105TIP3    H154730   6.585   2.247   1.440 -0.6359  0.3749 -0.2846
11105TIP3    H254731   6.469   2.184   1.515 -0.2565 -0.1475 -0.1367
11106TIP3   OH254732   3.690   6.504  13.120  0.5423 -0.2013  0.0404
11106TIP3    H154733   3.684   6.420  13.165  0.2093 -0.8588 -1.2084
11106TIP3    H254734   3.607   6.512  13.073  1.2231  0.0754 -1.1360
11107TIP3   OH254735   6.175   5.644   2.077 -0.8813  0.0262 -1.1086
11107TIP3    H154736   6.224   5.698   2.139 -0.7891 -0.9294 -0.3497
11107TIP3    H254737   6.190   5.686   1.992  0.1423  0.5271 -0.6868
11108TIP3   OH254738   1.745   1.308   3.027 -0.2423  0.4221 -0.5845
11108TIP3    H154739   1.726   1.291   2.935 -0.9674 -0.0834 -0.3430
11108TIP3    H254740   1.804   1.238   3.053 -1.8784 -0.7746 -0.0473
11109TIP3   OH254741   1.905   4.838  15.525  0.5073  0.7906 -0.1561
11109TIP3    H154742   1.842   4.890  15.475  1.7226  1.9093 -0.5717
11109TIP3    H254743   1.931   4.768  15.466 -0.0354  0.5712 -0.1341
11110TIP3   OH254744   2.831   6.304  14.489  0.0262  0.0403  0.0924
11110TIP3    H154745   2.763   6.239  14.503  0.1192 -0.2317 -0.6613
11110TIP3    H254746   2.913   6.258  14.505  0.0256  0.4461  1.2843
11111TIP3   OH254747   1.769   2.148   3.042 -0.0209  0.3027 -0.6446
11111TIP3    H154748   1.702   2.087   3.073 -0.5032  0.1327 -2.0012
11111TIP3    H254749   1.726   2.197   2.972 -0.1199  3.2388  1.3734
11112TIP3   OH254750   2.068   5.624   0.271  1.1882 -0.0383  0.0385
11112TIP3    H154751   2.022   5.645   0.190  0.7517 -0.1354  0.2585
11112TIP3    H254752   2.156   5.660   0.259  1.2235 -0.3208 -0.6038
11113TIP3   OH254753   0.298   5.515  15.346 -0.4808 -0.4474  0.2642
11113TIP3    H154754   0.388   5.539  15.368 -0.6796  1.0276 -0.4697
11113TIP3    H254755   0.248   5.596  15.358 -1.6086 -1.1029  0.0608
11114TIP3   OH254756   2.595   2.063  14.195  0.2462  0.0065  0.0060
11114TIP3    H154757   2.581   2.132  14.131 -1.0917 -0.4958 -0.2572
11114TIP3    H254758   2.578   2.105  14.280  1.0362  0.4131 -0.0338
11115TIP3   OH254759   3.365   5.249   2.195  0.2996  0.2864  0.3482
11115TIP3    H154760   3.383   5.201   2.275  1.7256 -0.7537 -0.5664
11115TIP3    H254761   3.283   5.212   2.162  1.1272 -1.2109 -0.0891
11116TIP3   OH254762   3.862   2.841   0.519  0.2112  0.3782  0.3851
11116TIP3    H154763   3.789   2.802   0.470  0.4376 -1.0053  1.1483
11116TIP3    H254764   3.848   2.935   0.510 -1.7125  0.1353  0.5665
11117TIP3   OH254765   1.813   4.861   1.055 -0.3347  0.1368  0.3975
11117TIP3    H154766   1.871   4.917   1.105  1.7004 -1.6418  0.0960
11117TIP3    H254767   1.858   4.849   0.971 -0.9474 -1.5855  0.3020
11118TIP3   OH254768   0.153   3.275   0.136 -0.7759 -0.3885  0.1097
11118TIP3    H154769   0.157   3.275   0.232 -1.5235 -0.0427  0.1397
11118TIP3    H254770   0.164   3.182   0.112 -0.9211 -0.5186  0.5440
11119TIP3   OH254771   1.921   3.801  14.774  1.0563  0.2629  0.3122
11119TIP3    H154772   1.830   3.823  14.791  0.9065 -1.6953  2.1031
11119TIP3    H254773   1.957   3.881  14.734 -1.4597  0.9829 -0.6348
11120TIP3   OH254774   0.114   6.871  15.193  0.2835 -0.0778 -0.5613
11120TIP3    H154775   0.025   6.885  15.163  0.1607 -0.2692 -0.2917
11120TIP3    H254776   0.161   6.950  15.169 -0.5832  1.1595  1.6776
11121TIP3   OH254777   4.538   5.550  15.307 -0.0315  0.1649  0.1796
11121TIP3    H154778   4.476   5.518  15.241  0.0398  3.3584 -1.5585
11121TIP3    H254779   4.483   5.594  15.372  0.1597  0.1637  0.3426
11122TIP3   OH254780   4.573   3.976   3.375  0.8480 -0.1870  0.9691
11122TIP3    H154781   4.587   3.956   3.467 -1.0572 -1.9345  0.9137
11122TIP3    H254782   4.486   4.015   3.371  0.8491 -0.2779 -0.1061
11123TIP3   OH254783   2.887   1.686   0.223 -0.3059 -0.8511 -0.2319
11123TIP3    H154784   2.825   1.730   0.282  0.8246 -0.1344  0.4488
11123TIP3    H254785   2.877   1.732   0.140  1.1475  1.0337  0.5768
11124TIP3   OH254786   0.295   4.221  15.097  0.2670 -0.3619 -0.3864
11124TIP3    H154787   0.342   4.206  15.179  3.0682 -3.3039 -2.3780
11124TIP3    H254788   0.218   4.271  15.122  2.0068  0.4582  3.7466
11125TIP3   OH254789   3.746   5.588  15.556  0.1760 -0.0603 -0.5272
11125TIP3    H154790   3.776   5.644  15.484  1.4186 -0.9123 -0.7011
11125TIP3    H254791   3.723   5.649  15.626 -1.0939  0.7857 -1.6529
11126TIP3   OH254792   6.416   3.818   2.498  0.1574  0.1195 -0.9172
11126TIP3    H154793   6.436   3.833   2.590 -0.4469  0.6642 -0.8754
11126TIP3    H254794   6.501   3.808   2.456  0.4512  0.4881 -0.4054
11127TIP3   OH254795   4.067   0.392   0.981 -0.4150 -0.3880 -0.7232
11127TIP3    H154796   4.055   0.461   0.916  0.7441  0.1592 -0.3773
11127TIP3    H254797   4.108   0.437   1.055 -1.5764 -1.0399  0.3194
11128TIP3   OH254798   6.146   2.838   2.080  0.1470 -0.0524  0.2951
11128TIP3    H154799   6.203   2.772   2.121  0.0111  1.6698  3.4534
11128TIP3    H254800   6.058   2.815   2.109  0.0875  1.4013  1.3617
11129TIP3   OH254801   6.015   1.861  14.578 -0.0731 -0.5956  0.6726
11129TIP3    H154802   6.092   1.820  14.540 -2.1120 -3.1839 -0.9228
11129TIP3    H254803   5.997   1.811  14.657 -0.6102 -0.5770  0.5670
11130TIP3   OH254804   0.736   3.277  14.708  0.0855 -0.0101  0.0617
11130TIP3    H154805   0.725   3.208  14.773 -1.9318  0.9616  0.7805
11130TIP3    H254806   0.667   3.261  14.644 -0.3941  1.3310  0.2277
11131TIP3   OH254807   6.515   6.323   3.561 -0.2167 -0.0169  0.0053
11131TIP3    H154808   6.555   6.288   3.482 -0.4144 -0.9498  0.3081
11131TIP3    H254809   6.438   6.268   3.576  0.0624 -0.1360  1.0825
11132TIP3   OH254810   0.713   2.173   1.127  0.1075 -0.5780  0.5834
11132TIP3    H154811   0.660   2.141   1.200 -0.2464 -1.4850 -0.0591
11132TIP3    H254812   0.801   2.182   1.164 -0.6013  1.5412  1.8159
11133TIP3   OH254813   3.878   2.952   1.228 -0.2068  0.4034  0.7595
11133TIP3    H154814   3.797   2.920   1.189  0.0621  0.9135 -0.2394
11133TIP3    H254815   3.850   3.006   1.302 -0.7516  0.1167  0.7620
11134TIP3   OH254816   3.195   5.372  15.371  0.1851  0.1826  1.0395
11134TIP3    H154817   3.211   5.466  15.384 -1.1862  0.6924 -0.6951
11134TIP3    H254818   3.116   5.369  15.317  1.9031 -1.8767 -1.4732
11135TIP3   OH254819   3.225   2.028   3.258  0.2677  0.1064  0.4251
11135TIP3    H154820   3.281   2.100   3.286  0.9656 -0.4657  0.5209
11135TIP3    H254821   3.284   1.954   3.249 -0.1621 -0.0807 -1.1886
11136TIP3   OH254822   3.292   5.744   0.147  0.3625 -0.3363 -0.2748
11136TIP3    H154823   3.210   5.793   0.135  0.2985 -0.6338 -1.0757
11136TIP3    H254824   3.352   5.783   0.083  1.6114  1.5356  1.9690
11137TIP3   OH254825   5.616   1.607   1.107  0.0558  0.4468 -0.1136
11137TIP3    H154826   5.636   1.543   1.039 -1.4152  0.5327 -0.6352
11137TIP3    H254827   5.572   1.678   1.062 -0.8578  0.5430  0.9132
11138TIP3   OH254828   2.000   1.978   3.169 -0.5994 -0.6469 -0.3950
11138TIP3    H154829   2.062   1.950   3.102 -1.1765  0.3611 -1.3935
11138TIP3    H254830   1.933   2.027   3.120 -0.5140  0.9633  1.0441
11139TIP3   OH254831   0.076   4.090   1.336  0.3100 -0.0583 -0.1324
11139TIP3    H154832   0.152   4.116   1.389 -0.4345  2.0734 -0.0642
11139TIP3    H254833   0.077   4.149   1.261  0.0527 -1.5743 -1.3546
11140TIP3   OH254834   2.418   2.507   0.035 -0.1507  0.2732  0.3555
11140TIP3    H154835   2.425   2.601   0.047 -0.9872  0.4882 -0.7289
11140TIP3    H254836   2.324   2.489   0.039 -0.0372 -0.4293 -0.0010
11141TIP3   OH254837   4.193   3.748  14.158  0.0583 -0.6702  0.2489
11141TIP3    H154838   4.267   3.729  14.215  0.0111  3.0369  1.6604
11141TIP3    H254839   4.226   3.812  14.096 -1.6686  0.1768  0.1766
11142TIP3   OH254840   4.956   6.176   2.507  0.6721 -0.2903  0.8221
11142TIP3    H154841   5.033   6.185   2.562  1.3981 -1.7580  0.0690
11142TIP3    H254842   4.973   6.232   2.431  1.7105 -1.7995 -0.0909
11143TIP3   OH254843   6.521   0.287   0.111 -0.3662 -0.1779 -0.5105
11143TIP3    H154844   6.580   0.359   0.088  0.5360 -0.4071  1.0565
11143TIP3    H254845   6.440   0.331   0.137 -0.5537  0.1732 -1.6340
11144TIP3   OH254846   0.863   0.059   1.346 -1.2260  0.5965 -0.1135
11144TIP3    H154847   0.803  -0.004   1.306 -0.2954 -0.8955  0.8151
11144TIP3    H254848   0.876   0.028   1.435  2.3381 -0.2006 -0.8019
11145TIP3   OH254849   1.500   2.609   3.359  0.2070  0.0139  0.2145
11145TIP3    H154850   1.424   2.651   3.400  0.2810 -0.1958  0.5698
11145TIP3    H254851   1.554   2.579   3.433  0.6863  0.2554 -0.0314
11146TIP3   OH254852   5.576   3.642   0.964 -0.4265 -0.5769 -0.3130
11146TIP3    H154853   5.502   3.673   0.912  1.5148  1.7997 -1.7404
11146TIP3    H254854   5.559   3.674   1.052 -1.9732 -1.6224 -0.2080
11147TIP3   OH254855   3.342   4.306   1.250 -0.0234  0.3838 -0.1895
11147TIP3    H154856   3.380   4.393   1.245  2.0030 -0.2738  2.2923
11147TIP3    H254857   3.301   4.303   1.337 -0.1485 -1.1078 -0.2881
11148TIP3   OH254858   3.999   2.266  14.204  0.0718 -0.4743 -0.7767
11148TIP3    H154859   4.077   2.307  14.239  0.6071 -1.4485 -0.8081
11148TIP3    H254860   3.975   2.320  14.128  1.1071 -0.5633 -1.1720
11149TIP3   OH254861   3.621   1.056   2.677  0.4745 -0.1485  0.2814
11149TIP3    H154862   3.557   0.991   2.649  0.6707 -0.6065  0.8973
11149TIP3    H254863   3.599   1.134   2.626  0.0602 -0.6073 -0.2460
11150TIP3   OH254864   6.719   2.295  14.075 -0.8450 -0.3235  0.4834
11150TIP3    H154865   6.670   2.215  14.094 -0.4958 -1.4599 -3.0774
11150TIP3    H254866   6.685   2.325  13.991  1.1238  1.6417  0.3397
11151TIP3   OH254867   2.748   3.149  14.210  0.1522 -0.1636  0.8425
11151TIP3    H154868   2.691   3.078  14.179  0.2393 -0.2582  0.9001
11151TIP3    H254869   2.690   3.206  14.261 -0.1820  0.4611 -0.2239
11152TIP3   OH254870   0.459   2.878   0.629  0.7644  0.1823  0.5296
11152TIP3    H154871   0.459   2.932   0.550 -0.1976  2.1216  1.8064
11152TIP3    H254872   0.367   2.862   0.647  1.0600 -2.6244 -0.2737
11153TIP3   OH254873   2.544   1.361   1.587 -0.4594  0.2529  0.5807
11153TIP3    H154874   2.608   1.424   1.554 -0.1140 -0.2418  0.2869
11153TIP3    H254875   2.535   1.382   1.680 -0.0473  0.4780  0.5709
11154TIP3   OH254876   1.298   2.465  13.220 -0.0609 -0.4225  0.2210
11154TIP3    H154877   1.245   2.526  13.169 -0.4128  0.4021  1.5604
11154TIP3    H254878   1.235   2.414  13.270  0.3432 -0.1913  0.9795
11155TIP3   OH254879   2.971   3.631  14.782 -0.0105  0.0102  0.1651
11155TIP3    H154880   2.981   3.712  14.732  1.1019 -0.3367 -0.2024
11155TIP3    H254881   3.045   3.632  14.844 -0.2116 -0.5319  0.4186
11156TIP3   OH254882   2.308   0.807  14.978 -0.0237 -0.2137 -0.0065
11156TIP3    H154883   2.308   0.720  15.016 -0.3350  0.2029  0.9449
11156TIP3    H254884   2.221   0.818  14.941 -0.5126  0.3020  1.2771
11157TIP3   OH254885   1.643   1.598  15.457  0.4633 -0.4279 -0.1540
11157TIP3    H154886   1.582   1.672  15.455 -1.0363 -1.6054  0.7102
11157TIP3    H254887   1.726   1.636  15.485  0.2070  1.2574 -1.6035
11158TIP3   OH254888   5.136   4.756   1.858 -0.2832 -0.9444 -1.0061
11158TIP3    H154889   5.102   4.778   1.770 -0.4417 -1.4532 -1.0699
11158TIP3    H254890   5.099   4.671   1.878 -0.6883 -0.5838 -0.2057
11159TIP3   OH254891   0.525   6.689   4.167  0.2588  0.1691  0.0847
11159TIP3    H154892   0.568   6.760   4.120 -1.9530  0.9530 -0.8476
11159TIP3    H254893   0.575   6.611   4.144 -1.1959  0.3875 -4.3537
11160TIP3   OH254894   1.805   4.407  13.834 -0.5746 -0.2313  0.2707
11160TIP3    H154895   1.767   4.412  13.922 -0.4932  0.1047  0.2860
11160TIP3    H254896   1.729   4.409  13.775 -0.6503 -0.8674  0.3472
11161TIP3   OH254897   0.693   1.521   2.423  0.6055 -0.6922  0.3722
11161TIP3    H154898   0.734   1.588   2.477 -0.9403  1.1438 -0.6913
11161TIP3    H254899   0.600   1.543   2.424  0.4584 -1.1056 -2.3913
11162TIP3   OH254900   6.440   3.728  15.076 -0.6215 -0.0963  0.3784
11162TIP3    H154901   6.501   3.769  15.015  0.4419  1.3720  2.3891
11162TIP3    H254902   6.482   3.645  15.099 -1.1196 -0.7518 -0.9834
11163TIP3   OH254903   0.114   1.019  12.740 -0.0693 -0.3186 -0.4923
11163TIP3    H154904   0.068   0.935  12.746 -1.7904  0.7194  2.2018
11163TIP3    H254905   0.149   1.033  12.829 -0.0746  1.9392 -0.8218
11164TIP3   OH254906   1.362   3.037  14.906 -0.0060 -0.0076  0.4719
11164TIP3    H154907   1.282   3.067  14.863 -0.2010 -2.5224 -1.0670
11164TIP3    H254908   1.330   2.979  14.976  0.4364 -1.1015 -0.2171
11165TIP3   OH254909   7.142   2.738   1.668 -0.1232 -0.3937 -0.2914
11165TIP3    H154910   7.222   2.701   1.706 -0.4758 -1.4235 -0.5259
11165TIP3    H254911   7.128   2.820   1.715 -0.2120 -1.3417  1.3639
11166TIP3   OH254912   4.431   4.614  15.087 -0.1974  0.4477  0.3721
11166TIP3    H154913   4.493   4.557  15.042 -0.5208  0.5845 -0.2550
11166TIP3    H254914   4.345   4.589  15.052 -0.3709  1.1075  0.3094
11167TIP3   OH254915   6.986   4.525  14.678 -0.2050  0.7279 -0.1114
11167TIP3    H154916   7.012   4.434  14.693  0.8557  0.8506 -1.1109
11167TIP3    H254917   7.008   4.541  14.586 -1.0272  1.7900 -0.1306
11168TIP3   OH254918   1.194   3.084   2.024 -0.2966 -0.0219  0.2103
11168TIP3    H154919   1.132   3.156   2.011 -0.9591 -0.5910  0.2129
11168TIP3    H254920   1.242   3.108   2.103 -1.3991 -0.1992  0.9430
11169TIP3   OH254921   5.231   6.234   1.792 -0.1780 -0.2122 -0.2642
11169TIP3    H154922   5.256   6.311   1.844  1.9023  0.7194 -2.5296
11169TIP3    H254923   5.314   6.196   1.764 -1.2281 -2.0860 -0.9166
11170TIP3   OH254924   1.496   5.168  14.094 -0.1301  0.5529 -0.4422
11170TIP3    H154925   1.536   5.250  14.122  0.6404  0.4062 -1.1021
11170TIP3    H254926   1.522   5.159  14.002  0.7482 -1.0000 -0.0519
11171TIP3   OH254927   0.842   1.597  15.158  0.2784 -0.4517 -0.1767
11171TIP3    H154928   0.831   1.516  15.208 -0.4500 -0.2912 -0.0669
11171TIP3    H254929   0.774   1.593  15.091  0.5764 -0.1719 -0.4939
11172TIP3   OH254930   1.430   2.332  14.405  0.0100 -0.4145  0.3706
11172TIP3    H154931   1.505   2.393  14.405 -0.6110  0.3729 -0.9271
11172TIP3    H254932   1.419   2.309  14.497  0.1700  1.5744  0.9256
11173TIP3   OH254933   0.761   5.532   1.268 -0.9795 -0.2371  0.0457
11173TIP3    H154934   0.738   5.450   1.310 -2.8825  0.8765  1.2720
11173TIP3    H254935   0.677   5.577   1.257  0.0819  1.7420 -0.1510
11174TIP3   OH254936   0.402   7.119  14.569  0.4341  0.6586  0.4893
11174TIP3    H154937   0.402   7.164  14.653 -0.4144  0.3169  0.6733
11174TIP3    H254938   0.326   7.062  14.571  1.4646 -0.7746  0.2444
11175TIP3   OH254939   4.847   2.894   2.134 -0.4945 -0.2051  0.4174
11175TIP3    H154940   4.856   2.803   2.162  3.0475  0.3997  1.4599
11175TIP3    H254941   4.841   2.944   2.216  0.8267  0.7580 -0.0520
11176TIP3   OH254942   4.275   2.682  14.595  0.2669 -0.2196 -0.3037
11176TIP3    H154943   4.335   2.625  14.548  1.6111  0.5497  0.4665
11176TIP3    H254944   4.198   2.626  14.612  0.5679 -1.0736 -1.6520
11177TIP3   OH254945   4.302   0.049   2.764  0.5557 -0.1129 -0.5090
11177TIP3    H154946   4.243  -0.025   2.747  0.2709  0.2462 -1.1040
11177TIP3    H254947   4.268   0.089   2.844  1.5046 -1.4129  0.5595
11178TIP3   OH254948   0.496   4.002   2.172  0.2120  0.2964 -0.1246
11178TIP3    H154949   0.511   4.036   2.084 -0.9556  2.0574  0.3401
11178TIP3    H254950   0.583   4.001   2.212  0.5319  0.8794 -0.8060
11179TIP3   OH254951   6.988   7.069  13.825  0.0592  0.1462 -0.2370
11179TIP3    H154952   7.030   7.115  13.752  0.4882 -0.1556 -0.1831
11179TIP3    H254953   6.992   7.131  13.898  0.3936  0.1306 -0.2390
11180TIP3   OH254954   0.861   2.035   1.427 -0.2256 -0.8002  0.3312
11180TIP3    H154955   0.876   1.952   1.383 -1.5867 -0.3558 -1.0014
11180TIP3    H254956   0.948   2.074   1.436  0.5292 -2.7399  1.7507
11181TIP3   OH254957   6.029   4.041  15.094  0.4780  0.3608  0.0002
11181TIP3    H154958   5.951   4.087  15.062  0.1754  1.4386  2.1924
11181TIP3    H254959   6.103   4.096  15.066  0.2772  0.7829  0.2913
11182TIP3   OH254960   5.193   4.472   1.837  0.1176  0.1238 -0.3476
11182TIP3    H154961   5.237   4.388   1.852  2.7028  1.4973  0.0456
11182TIP3    H254962   5.190   4.480   1.742  1.2211  0.2253 -0.3895
11183TIP3   OH254963   6.407   4.899   1.210  0.4371  0.2300  0.4182
11183TIP3    H154964   6.502   4.905   1.218  0.5833 -0.9006 -0.2100
11183TIP3    H254965   6.373   4.946   1.285  1.4978  0.8072  0.5453
11184TIP3   OH254966   6.410   0.760   4.674  1.0343 -0.3808 -0.2260
11184TIP3    H154967   6.373   0.709   4.746  0.9039 -1.4930 -1.0447
11184TIP3    H254968   6.388   0.851   4.694  0.1622 -0.7745  0.6426
11185TIP3   OH254969   0.274   1.177  13.236  0.3293 -0.4621 -0.3561
11185TIP3    H154970   0.289   1.262  13.276 -0.7941 -0.9751  1.1977
11185TIP3    H254971   0.292   1.113  13.305 -1.3913 -1.3670 -0.6927
11186TIP3   OH254972   5.212   4.507  12.984  0.1969  0.1387  0.0644
11186TIP3    H154973   5.125   4.530  12.951 -0.3544 -2.9084 -0.7542
11186TIP3    H254974   5.263   4.488  12.905  1.3807  1.0078  0.5897
11187TIP3   OH254975   5.319   0.023   0.875 -0.1908  0.2367 -0.1257
11187TIP3    H154976   5.370  -0.004   0.952 -0.7420  1.1284  0.5588
11187TIP3    H254977   5.279   0.106   0.901 -2.6037 -0.8100 -0.3939
11188TIP3   OH254978   2.177   2.855  15.459 -0.4210 -0.1391 -0.1033
11188TIP3    H154979   2.106   2.853  15.395 -0.0472  1.0133 -0.5785
11188TIP3    H254980   2.142   2.810  15.536 -0.9818 -1.2554 -1.0072
11189TIP3   OH254981   3.969   5.030   1.984 -0.1250  0.3533  0.4657
11189TIP3    H154982   3.881   5.039   2.021 -0.3255  2.0587 -0.4127
11189TIP3    H254983   3.983   5.110   1.934  0.8767 -1.0874 -1.6325
11190TIP3   OH254984   4.875   2.724   0.414  0.3023 -0.0740 -0.3540
11190TIP3    H154985   4.941   2.766   0.360  1.7354 -0.5140  1.0294
11190TIP3    H254986   4.884   2.764   0.501 -1.2293 -0.1512 -0.1395
11191TIP3   OH254987   2.341   2.618  12.280 -0.2243  0.8150 -0.3442
11191TIP3    H154988   2.386   2.551  12.228 -0.8909 -0.6430  0.8885
11191TIP3    H254989   2.376   2.608  12.368 -3.2151 -0.7256  0.7761
11192TIP3   OH254990   4.687   3.750  14.704  0.6287 -0.0548 -0.3938
11192TIP3    H154991   4.641   3.833  14.697 -0.5398 -0.7527 -1.2058
11192TIP3    H254992   4.689   3.732  14.799 -3.0987 -1.2219 -0.4251
11193TIP3   OH254993   6.290   1.316   0.648 -0.5803  0.0298  0.5572
11193TIP3    H154994   6.309   1.335   0.556 -0.1495 -3.3745 -0.1463
11193TIP3    H254995   6.376   1.297   0.686 -0.8198  0.8753  1.5334
11194TIP3   OH254996   0.695   4.979   0.381 -0.5675 -0.1239  0.1182
11194TIP3    H154997   0.612   4.999   0.336 -0.7005 -2.2098 -0.6054
11194TIP3    H254998   0.753   5.052   0.357 -1.9189  0.9066 -0.0800
11195TIP3   OH254999   5.398   2.136   0.640  0.5101  0.1217  0.0842
11195TIP3    H155000   5.446   2.131   0.723 -1.8152 -1.1373  1.4403
11195TIP3    H255001   5.379   2.229   0.629  1.8137  0.4224  0.3924
11196TIP3   OH255002   4.861   0.318  14.436 -0.0259 -0.1698  0.5336
11196TIP3    H155003   4.946   0.354  14.461  0.4622 -0.1665 -1.0808
11196TIP3    H255004   4.835   0.264  14.510  2.2314 -1.6535  0.2867
11197TIP3   OH255005   3.541   4.513  14.809 -0.6147 -0.1557  1.1471
11197TIP3    H155006   3.559   4.601  14.776  1.0518 -0.7276  0.4595
11197TIP3    H255007   3.600   4.502  14.884  0.0286 -1.0999  0.5176
11198TIP3   OH255008   3.239   2.445  15.148 -0.4733  0.1052 -0.0469
11198TIP3    H155009   3.272   2.492  15.071  0.6017  0.1165  0.4168
11198TIP3    H255010   3.256   2.504  15.221  1.4726 -1.2564  0.6331
11199TIP3   OH255011   7.118   1.469   0.139 -0.0666  0.2298 -0.0568
11199TIP3    H155012   7.121   1.400   0.205 -3.1384 -0.7025 -0.8251
11199TIP3    H255013   7.157   1.545   0.183  0.5361 -1.1339  1.8422
11200TIP3   OH255014   0.608   3.091   3.490 -0.3500  0.6653 -0.1126
11200TIP3    H155015   0.534   3.087   3.550 -0.9725 -1.2639 -0.9808
11200TIP3    H255016   0.571   3.120   3.407  0.2596  1.8870  0.0354
11201TIP3   OH255017   1.714   1.913   2.811  0.1188 -0.6936  0.3731
11201TIP3    H155018   1.630   1.958   2.811  0.4965  0.0302 -0.7281
11201TIP3    H255019   1.779   1.983   2.801  0.9198 -1.1372  2.2666
11202TIP3   OH255020   6.254   2.282   2.201 -0.7832  0.4301 -0.3290
11202TIP3    H155021   6.207   2.301   2.282 -0.0504 -0.4374  0.3075
11202TIP3    H255022   6.185   2.277   2.134 -1.5045 -0.0004  0.4358
11203TIP3   OH255023   5.393   1.719  13.863  0.3068 -0.6616  0.2513
11203TIP3    H155024   5.304   1.693  13.843 -0.0468 -1.4649  2.6411
11203TIP3    H255025   5.447   1.674  13.798 -0.8278 -2.3432  0.4473
11204TIP3   OH255026   1.637   1.293   0.847  0.3919  0.0600 -0.1751
11204TIP3    H155027   1.687   1.326   0.921  2.0189 -1.2406 -0.6598
11204TIP3    H255028   1.612   1.204   0.872  0.2604 -0.1025 -0.8748
11205TIP3   OH255029   6.950   4.469   2.110  0.0743 -0.2197  0.1199
11205TIP3    H155030   6.977   4.400   2.049 -1.7388  1.5761 -2.8459
11205TIP3    H255031   7.023   4.477   2.171  2.2999 -1.5742 -2.2641
11206TIP3   OH255032   1.119   7.016   3.652  0.8862 -0.0161  0.1478
11206TIP3    H155033   1.107   7.085   3.718 -0.0170 -0.9230  0.9647
11206TIP3    H255034   1.143   6.938   3.703 -1.9130 -1.2674 -0.3519
11207TIP3   OH255035   0.934   5.262  15.553 -0.0133  0.4809  0.2776
11207TIP3    H155036   0.880   5.258  15.474 -0.3954 -1.4045  0.6104
11207TIP3    H255037   0.918   5.350  15.588 -0.1985  1.1664 -1.4759
11208TIP3   OH255038   1.594   4.818   1.207  0.4761 -0.0660 -0.0437
11208TIP3    H155039   1.542   4.745   1.175  1.7887 -1.7114  1.4478
11208TIP3    H255040   1.661   4.831   1.140  0.0056  0.0010 -0.4951
11209TIP3   OH255041   0.096   6.779  14.391 -0.6668 -0.2760  0.2196
11209TIP3    H155042   0.186   6.761  14.365 -0.4580  0.6707  0.2625
11209TIP3    H255043   0.071   6.704  14.446 -0.7800 -1.7950 -1.8325
11210TIP3   OH255044   0.565   0.826  14.171 -0.5961  0.1611  0.2505
11210TIP3    H155045   0.659   0.840  14.163 -0.7317  1.7040  1.2788
11210TIP3    H255046   0.526   0.894  14.117 -1.1122 -1.3165 -1.2711
11211TIP3   OH255047   0.066   4.974   0.809 -0.3651  0.3378 -0.0746
11211TIP3    H155048   0.107   4.889   0.798 -0.1164  0.5851 -1.0905
11211TIP3    H255049   0.057   4.984   0.903 -0.1577 -0.6984  0.0622
11212TIP3   OH255050   0.242   1.660  13.275  0.1946  0.0184  0.1068
11212TIP3    H155051   0.289   1.736  13.241  0.8253 -0.0997  0.6991
11212TIP3    H255052   0.151   1.687  13.277  0.2288  0.2624 -1.0408
11213TIP3   OH255053   6.352   5.797   0.759 -0.3690  0.1911 -0.6063
11213TIP3    H155054   6.341   5.716   0.709  0.6005  0.1917 -0.8275
11213TIP3    H255055   6.285   5.855   0.724 -1.7650 -0.8660  0.2823
11214TIP3   OH255056   5.907   1.712   1.040 -0.2548  0.0542 -0.1397
11214TIP3    H155057   5.856   1.639   1.076 -1.0077 -0.3644 -1.9811
11214TIP3    H255058   5.861   1.790   1.070 -1.5528 -0.3090 -1.1368
11215TIP3   OH255059   3.694   6.370   1.220  0.2795  0.1402 -0.3200
11215TIP3    H155060   3.650   6.299   1.267 -0.9487  0.5431 -0.8160
11215TIP3    H255061   3.710   6.335   1.133 -3.2300  1.4619 -1.6099
11216TIP3   OH255062   0.168   6.098   3.993  0.3902  0.0294 -0.2657
11216TIP3    H155063   0.153   6.076   3.901 -2.5880  0.8458 -0.0227
11216TIP3    H255064   0.124   6.181   4.006  1.3938  0.2904  1.7596
11217TIP3   OH255065   4.789   1.894   5.087  0.7055 -0.3405 -0.9024
11217TIP3    H155066   4.813   1.969   5.142  0.1759  0.4046 -1.6737
11217TIP3    H255067   4.828   1.914   5.002  0.4074 -0.8594 -1.1621
11218TIP3   OH255068   2.483   4.518  13.041  0.2723 -0.4887 -0.4544
11218TIP3    H155069   2.465   4.592  12.983 -0.4603 -1.0472 -0.9434
11218TIP3    H255070   2.467   4.553  13.129 -1.8234 -0.5442 -0.7850
11219TIP3   OH255071   3.176   4.402   0.409 -0.1120  0.3834 -0.0106
11219TIP3    H155072   3.172   4.497   0.403  0.3826  0.3020 -1.9654
11219TIP3    H255073   3.263   4.384   0.446 -0.2268  0.6851  0.4112
11220TIP3   OH255074   4.023   5.345   1.604  0.3819 -0.3131  0.3596
11220TIP3    H155075   4.045   5.438   1.599 -2.8455  0.4554 -0.3688
11220TIP3    H255076   4.072   5.313   1.681  1.7419  1.8816  0.4414
11221TIP3   OH255077   6.548   6.768   2.386  0.4393 -0.3943  0.0917
11221TIP3    H155078   6.519   6.843   2.334 -2.1026 -1.2197  0.2399
11221TIP3    H255079   6.591   6.806   2.462 -1.2944  0.9617  0.4353
11222TIP3   OH255080   4.850   4.664  14.001 -0.3936  0.4916 -0.0873
11222TIP3    H155081   4.935   4.708  14.009 -0.6035  0.7304  0.9577
11222TIP3    H255082   4.869   4.581  13.958  0.4196  0.4047  0.4365
11223TIP3   OH255083   2.271   6.977  14.313  0.0376 -0.0752 -0.6611
11223TIP3    H155084   2.359   6.999  14.345 -0.4509  0.1940  0.5325
11223TIP3    H255085   2.286   6.915  14.242  1.1771 -0.3982 -0.1469
11224TIP3   OH255086   3.932   0.770   4.858  0.1434  0.3429 -0.2821
11224TIP3    H155087   3.972   0.804   4.938 -1.4055  0.8840  0.2961
11224TIP3    H255088   3.846   0.812   4.855 -1.4976 -2.8432 -0.0012
11225TIP3   OH255089   0.369   4.855  13.281 -0.6032  0.4985 -0.4472
11225TIP3    H155090   0.355   4.766  13.312  0.2221  0.6045  0.2596
11225TIP3    H255091   0.401   4.845  13.192 -0.3537  0.0785 -0.3101
11226TIP3   OH255092   6.287   5.555  15.194  0.2228 -0.2853  0.9573
11226TIP3    H155093   6.341   5.609  15.138 -0.5174 -0.7215 -0.1932
11226TIP3    H255094   6.328   5.561  15.281  2.5898 -1.2767 -0.0494
11227TIP3   OH255095   0.081   5.128   2.162  0.0186  0.2921 -0.0487
11227TIP3    H155096   0.048   5.048   2.203 -0.7446  0.8708  0.4728
11227TIP3    H255097   0.174   5.129   2.185 -0.1504  0.0027  0.6750
11228TIP3   OH255098   5.458   0.023   3.985 -0.3248  0.3220  0.4970
11228TIP3    H155099   5.449   0.099   4.044 -2.0420  0.0018  0.6746
11228TIP3    H255100   5.372  -0.018   3.986  0.0106 -0.4450 -1.2392
11229TIP3   OH255101   0.022   4.573   1.208  0.0316  0.0390  0.4195
11229TIP3    H155102  -0.056   4.532   1.245  0.3557 -0.0675  0.9873
11229TIP3    H255103   0.095   4.520   1.240  0.2329 -0.9888 -1.5983
11230TIP3   OH255104   6.601   1.025   2.761  0.2931  0.4725 -0.4514
11230TIP3    H155105   6.653   1.021   2.842  1.0662  3.2953 -0.7290
11230TIP3    H255106   6.661   0.998   2.692 -0.2420 -1.5272 -0.1563
11231TIP3   OH255107   3.083   1.259   1.458  0.1233 -0.0655 -0.8334
11231TIP3    H155108   3.142   1.312   1.404  0.4853 -1.5745 -1.9879
11231TIP3    H255109   3.024   1.322   1.499  0.4275  1.1949 -2.2856
11232TIP3   OH255110   0.641   5.914  14.889  0.0509 -0.1774 -0.4138
11232TIP3    H155111   0.611   5.971  14.960 -0.5968 -0.0571 -0.7735
11232TIP3    H255112   0.735   5.904  14.904 -0.1731 -0.5826  0.7531
11233TIP3   OH255113   0.776   0.152   2.634 -0.0617 -0.0370  0.4999
11233TIP3    H155114   0.721   0.099   2.692 -0.7461 -0.7517 -0.7678
11233TIP3    H255115   0.714   0.190   2.571  1.1185 -2.5591 -2.2594
11234TIP3   OH255116   4.579   6.908   2.532 -0.0646  0.0022 -0.8573
11234TIP3    H155117   4.576   6.897   2.627  0.9398 -1.0276 -0.9310
11234TIP3    H255118   4.618   6.994   2.519 -1.6189  0.8016 -0.3253
11235TIP3   OH255119   2.064   2.453  15.161  0.4679 -0.6548  0.2421
11235TIP3    H155120   2.086   2.365  15.130 -2.6921 -0.6750 -2.2266
11235TIP3    H255121   1.971   2.448  15.181  0.3743  2.0238  0.5881
11236TIP3   OH255122   5.220   1.146  14.249 -0.1603 -0.3324 -0.6644
11236TIP3    H155123   5.135   1.109  14.274 -1.3255  2.4819 -0.2561
11236TIP3    H255124   5.221   1.138  14.154 -1.3085  0.4600 -0.7577
11237TIP3   OH255125   4.453   0.083   0.570 -0.1231 -0.0178  0.2885
11237TIP3    H155126   4.541   0.077   0.533 -0.4583 -0.3496 -0.4723
11237TIP3    H255127   4.406   0.142   0.511 -0.7255 -0.7220  0.0560
11238TIP3   OH255128   0.158   1.423   5.139 -0.1672 -0.5488 -0.5945
11238TIP3    H155129   0.244   1.384   5.124 -0.4945 -1.6395  0.2312
11238TIP3    H255130   0.098   1.348   5.138 -0.7560 -0.1486  1.5582
11239TIP3   OH255131   1.899   6.838  13.643 -0.2823  0.5163 -0.1731
11239TIP3    H155132   1.862   6.925  13.657 -0.4249  0.2458  1.2753
11239TIP3    H255133   1.855   6.805  13.565 -0.7409  1.4730 -0.3254
11240TIP3   OH255134   2.697   6.708  12.479 -0.5156  0.0169  0.2373
11240TIP3    H155135   2.761   6.637  12.480 -0.9276 -0.3414  1.0158
11240TIP3    H255136   2.680   6.727  12.571 -0.1119  1.3985  0.0379
11241TIP3   OH255137   4.505   6.118   2.399 -0.3119 -0.4537 -0.0551
11241TIP3    H155138   4.578   6.177   2.382 -0.3846  0.0616  1.3421
11241TIP3    H255139   4.514   6.048   2.334  0.0875  0.8087 -1.3528
11242TIP3   OH255140   0.013   5.038   4.206  0.2196  0.3394  0.4897
11242TIP3    H155141  -0.039   4.972   4.251 -1.5032  1.6480  0.4547
11242TIP3    H255142  -0.050   5.087   4.153  2.0735 -0.9356 -3.1564
11243TIP3   OH255143   1.930   3.205   1.217  0.2808  0.1155  0.3183
11243TIP3    H155144   1.987   3.278   1.241  0.1654  0.1780  0.4011
11243TIP3    H255145   1.907   3.165   1.301  0.7779 -0.3418  0.2399
11244TIP3   OH255146   2.727   1.941   0.395  0.1998  0.3533 -0.3635
11244TIP3    H155147   2.708   2.025   0.354  0.5707  0.9145  0.5798
11244TIP3    H255148   2.790   1.963   0.464  1.5799 -0.9365 -1.1840
11245TIP3   OH255149   0.639   3.175   3.978 -0.5361 -0.2741 -0.0479
11245TIP3    H155150   0.697   3.133   3.913  0.8671  0.4125  0.7330
11245TIP3    H255151   0.604   3.102   4.029  0.3593 -0.6464  0.0455
11246TIP3   OH255152   2.643   2.922  15.045  0.3903 -1.1984  0.1580
11246TIP3    H155153   2.706   2.905  14.975 -1.8432  0.8180 -2.4983
11246TIP3    H255154   2.680   2.996  15.093  1.0505 -1.4113 -0.0135
11247TIP3   OH255155   3.595   2.197  12.262  0.5456  0.1195  0.8287
11247TIP3    H155156   3.684   2.197  12.227  0.3549  0.9305  0.3456
11247TIP3    H255157   3.540   2.176  12.187  0.4398 -1.8089  1.4249
11248TIP3   OH255158   1.779   4.229   3.326  0.2077 -0.2983  0.0575
11248TIP3    H155159   1.727   4.150   3.340 -0.5867 -0.2720 -2.4847
11248TIP3    H255160   1.727   4.281   3.264  1.6936  1.2784  0.0911
11249TIP3   OH255161   3.598   3.942  14.590  0.5592 -0.1992 -0.2119
11249TIP3    H155162   3.684   3.901  14.585  0.6436 -0.2583  1.4451
11249TIP3    H255163   3.608   4.010  14.656 -0.8909 -0.7472  0.5772
11250TIP3   OH255164   6.362   4.545  14.621 -0.4810 -0.1724  0.2286
11250TIP3    H155165   6.440   4.574  14.574  1.3358 -1.4232  2.3785
11250TIP3    H255166   6.289   4.587  14.574  1.4824  1.4312 -1.5111
11251TIP3   OH255167   0.739   4.567   2.248 -0.5914  0.1845 -0.6035
11251TIP3    H155168   0.663   4.561   2.190 -1.4813  0.5816  0.5125
11251TIP3    H255169   0.764   4.475   2.262  1.2628  0.1509 -3.6932
11252TIP3   OH255170   4.569   0.793   2.006 -0.6511  0.2840 -0.1001
11252TIP3    H155171   4.656   0.810   1.969 -0.1931 -2.5867 -0.5086
11252TIP3    H255172   4.512   0.857   1.965  0.9674  1.1051 -1.1314
11253TIP3   OH255173   4.179   3.845   2.681  0.2766 -0.1261  0.3314
11253TIP3    H155174   4.271   3.840   2.653 -0.0077  0.6659 -0.7796
11253TIP3    H255175   4.161   3.939   2.688 -1.0290 -0.2063 -1.4752
11254TIP3   OH255176   1.181   3.812  12.494  0.7726 -0.3167 -0.0818
11254TIP3    H155177   1.148   3.899  12.473 -0.6388 -0.6887  0.5669
11254TIP3    H255178   1.146   3.793  12.581  1.9303 -1.1104  0.2226
11255TIP3   OH255179   3.695   6.846  14.769  0.4088 -0.0875  0.0364
11255TIP3    H155180   3.688   6.869  14.676  0.0421 -1.8644 -0.3968
11255TIP3    H255181   3.704   6.930  14.814  1.9552  0.7381 -1.7230
11256TIP3   OH255182   0.724   3.934   0.630 -0.0858  0.3165 -0.2712
11256TIP3    H155183   0.750   3.990   0.703 -0.7053 -0.8647  0.8779
11256TIP3    H255184   0.628   3.928   0.638 -0.1860  0.3918 -1.3395
11257TIP3   OH255185   6.533   3.428   0.323  0.1072  0.3670  0.3051
11257TIP3    H155186   6.596   3.459   0.388  0.5933 -0.7432  0.3745
11257TIP3    H255187   6.556   3.336   0.310  0.3773  0.7173 -1.8434
11258TIP3   OH255188   4.745   2.731   5.376 -0.4143 -0.4400 -0.0456
11258TIP3    H155189   4.654   2.760   5.385 -0.5667 -0.9023 -0.0909
11258TIP3    H255190   4.796   2.813   5.372 -0.6462 -0.1803  1.7711
11259TIP3   OH255191   6.067   6.115   3.609 -0.4429  0.3540 -0.4099
11259TIP3    H155192   6.069   6.091   3.517 -0.2842 -2.2264  0.2143
11259TIP3    H255193   6.015   6.046   3.650  0.9440  0.5123  1.6870
11260TIP3   OH255194   6.453   3.724  14.737  0.4464  0.4775  0.5135
11260TIP3    H155195   6.451   3.679  14.653 -1.0280  1.1613  0.1738
11260TIP3    H255196   6.514   3.797  14.723 -0.3761  1.0309 -0.1900
11261TIP3   OH255197   6.133   4.897   2.177 -0.1798 -0.5018 -0.4155
11261TIP3    H155198   6.170   4.834   2.238  0.7545 -1.6322 -2.0908
11261TIP3    H255199   6.196   4.900   2.105 -0.5875  1.7905 -0.7203
11262TIP3   OH255200   2.339   4.813   4.023  0.0815  0.3947 -0.0093
11262TIP3    H155201   2.275   4.870   4.065 -0.0218  0.5397 -0.3609
11262TIP3    H255202   2.420   4.864   4.022  0.3736 -0.0417  1.0307
11263TIP3   OH255203   1.009   2.861   2.263  0.5182  0.3215 -0.1509
11263TIP3    H155204   0.959   2.903   2.194  0.2017 -0.3571 -0.3386
11263TIP3    H255205   0.943   2.833   2.327  0.6879 -0.2826 -0.2404
11264TIP3   OH255206   2.573   5.263   1.414 -0.1049 -0.0591 -0.9801
11264TIP3    H155207   2.540   5.351   1.433  2.5823  0.6156  0.9429
11264TIP3    H255208   2.649   5.277   1.358  1.8498 -0.9302  1.3693
11265TIP3   OH255209   2.202   3.043   2.527 -0.0637 -0.8889 -0.0390
11265TIP3    H155210   2.192   3.056   2.433  3.0168 -0.3705 -0.3477
11265TIP3    H255211   2.179   2.951   2.541 -0.5294 -0.9773 -1.2972
11266TIP3   OH255212   4.584   1.133   3.662 -0.2272 -0.1058  0.0027
11266TIP3    H155213   4.568   1.227   3.652 -2.2601 -0.2967  1.1999
11266TIP3    H255214   4.527   1.092   3.597 -0.4263 -0.5704  0.4671
11267TIP3   OH255215   4.031   5.508   3.030  0.1872 -0.0437  0.0464
11267TIP3    H155216   3.950   5.529   2.985  0.9259 -0.1823 -1.3643
11267TIP3    H255217   4.018   5.540   3.119 -0.5244  2.1079 -0.7970
11268TIP3   OH255218   4.157   2.526   4.974 -0.2593  0.5905  0.2512
11268TIP3    H155219   4.085   2.574   5.014  0.7576  1.3326  1.2358
11268TIP3    H255220   4.171   2.570   4.890 -2.7323 -1.2900 -1.2059
11269TIP3   OH255221   2.562   3.025   2.737 -0.1336 -0.4054  0.4659
11269TIP3    H155222   2.635   3.087   2.739 -0.2105 -0.3230  0.7185
11269TIP3    H255223   2.488   3.077   2.705 -0.5380 -0.0104  2.0313
11270TIP3   OH255224   2.644   5.141  14.167 -0.4946 -0.3785 -0.0077
11270TIP3    H155225   2.710   5.190  14.216 -0.0165 -2.8049  1.8991
11270TIP3    H255226   2.569   5.200  14.161  0.6654  1.2006  0.7314
11271TIP3   OH255227   2.959   3.128   0.988  0.5792  0.5008  0.1379
11271TIP3    H155228   2.864   3.113   0.991  0.3687  1.9017  1.0966
11271TIP3    H255229   2.973   3.170   0.903  0.4366 -0.2750 -0.2747
11272TIP3   OH255230   6.138   6.124   1.030 -0.1523  0.0539 -0.0193
11272TIP3    H155231   6.121   6.181   1.105  0.3879 -0.2724  0.3483
11272TIP3    H255232   6.221   6.155   0.994  0.3365 -0.7426  0.4101
11273TIP3   OH255233   4.417   2.471  13.375  0.2043 -0.2174  0.0286
11273TIP3    H155234   4.384   2.384  13.396 -1.6078  0.6742  1.0414
11273TIP3    H255235   4.490   2.485  13.434  1.2152 -1.4619 -0.8959
11274TIP3   OH255236   2.738   2.109  15.287  0.1556  0.2510  0.2862
11274TIP3    H155237   2.781   2.024  15.297  1.1473  0.5685 -1.1042
11274TIP3    H255238   2.663   2.106  15.346  0.7005 -1.2530  0.9072
11275TIP3   OH255239   3.433   5.016   2.392 -0.1462 -0.3406 -0.6253
11275TIP3    H155240   3.470   4.954   2.455 -1.3811  0.6824  1.1582
11275TIP3    H255241   3.486   5.095   2.401 -0.6167 -0.0314 -0.5334
11276TIP3   OH255242   2.401   3.485   3.171 -0.2593 -0.0937 -0.3222
11276TIP3    H155243   2.315   3.494   3.211 -0.7675 -0.7691 -1.2469
11276TIP3    H255244   2.414   3.391   3.162  0.4978  0.0103 -0.3485
11277TIP3   OH255245   4.508   1.976   5.313  0.1095 -0.1220  0.4463
11277TIP3    H155246   4.477   2.054   5.268  1.0364  0.5407  0.9363
11277TIP3    H255247   4.586   2.005   5.360  0.1910 -1.2309  1.0117
11278TIP3   OH255248   2.255   2.027   2.668  0.3746 -0.0191  0.0577
11278TIP3    H155249   2.291   2.085   2.734  0.5356  1.0354 -0.9404
11278TIP3    H255250   2.317   1.953   2.664  1.7777  1.1751 -0.7604
11279TIP3   OH255251   5.450   7.019   1.970 -0.2638  0.0676  0.1816
11279TIP3    H155252   5.473   6.998   1.879  0.4322  1.9231 -0.1102
11279TIP3    H255253   5.504   6.961   2.023  0.1696 -0.2449 -0.5956
11280TIP3   OH255254   6.003   5.789   0.688 -0.0627 -0.3967 -0.1842
11280TIP3    H155255   5.999   5.808   0.782  2.1681 -0.2767 -0.0843
11280TIP3    H255256   6.086   5.827   0.660 -0.4116 -1.0070 -2.0874
11281TIP3   OH255257   5.235   0.522  14.345  0.1044  0.3896  0.2999
11281TIP3    H155258   5.197   0.573  14.274  1.0100  1.0972  0.3112
11281TIP3    H255259   5.327   0.549  14.347  0.2164 -0.0486  1.3610
11282TIP3   OH255260   0.029   1.492   3.857  0.1894  0.7610  0.4430
11282TIP3    H155261   0.080   1.495   3.938  0.0556 -1.8642  0.6599
11282TIP3    H255262   0.086   1.531   3.791  1.6852 -0.2936  1.1005
11283TIP3   OH255263   6.641   4.012   0.513 -0.0826 -0.4531 -0.2119
11283TIP3    H155264   6.556   4.019   0.554 -1.0925 -0.0223 -2.2973
11283TIP3    H255265   6.699   4.067   0.567 -1.4949  0.6071  0.2431
11284TIP3   OH255266   2.366   3.075   4.475  0.1676  0.1749 -0.4379
11284TIP3    H155267   2.278   3.059   4.440  0.9020 -1.8198 -1.4340
11284TIP3    H255268   2.355   3.076   4.570 -1.1159  1.1363 -0.5855
11285TIP3   OH255269   4.113   5.625  15.505 -0.5895  0.0078 -0.1091
11285TIP3    H155270   4.051   5.642  15.435 -2.5919  1.0066  1.8374
11285TIP3    H255271   4.065   5.648  15.585  1.5330 -1.3344  1.5928
11286TIP3   OH255272   5.802   1.323   0.814  0.6302 -0.0977  0.3458
11286TIP3    H155273   5.856   1.286   0.883  3.0134 -0.0077 -1.4197
11286TIP3    H255274   5.714   1.329   0.852  1.8829 -0.0922  3.3104
11287TIP3   OH255275   4.653   5.863   2.460 -0.2523  0.5501 -0.3097
11287TIP3    H155276   4.671   5.769   2.462 -1.5432  0.2805 -0.8560
11287TIP3    H255277   4.726   5.901   2.411 -0.0168 -0.2330 -0.5721
11288TIP3   OH255278   2.634   5.295  11.754  0.3961 -0.2126 -0.2848
11288TIP3    H155279   2.622   5.217  11.700  0.5600  0.9053 -1.9666
11288TIP3    H255280   2.580   5.362  11.712 -0.5852  0.3213  1.7378
11289TIP3   OH255281   2.083   3.476  12.632  0.3596  0.0956 -0.2817
11289TIP3    H155282   2.110   3.566  12.612  1.1249 -0.3050 -1.0816
11289TIP3    H255283   2.004   3.463  12.580  0.3050  0.2776 -0.2447
11290TIP3   OH255284   0.794   3.577  10.730 -0.1176  0.1103 -0.2086
11290TIP3    H155285   0.742   3.497  10.736 -0.7413  0.6306  1.6068
11290TIP3    H255286   0.779   3.609  10.640 -1.9027 -0.4279 -0.1209
11291TIP3   OH255287   4.958   0.628  12.155 -0.3062 -0.2159  0.1864
11291TIP3    H155288   4.925   0.683  12.084  1.4122  0.3160 -0.2295
11291TIP3    H255289   4.880   0.606  12.206 -1.4374  0.1630 -1.3212
11292TIP3   OH255290   0.861   3.905  12.365 -0.3254 -0.3267 -0.1194
11292TIP3    H155291   0.902   3.977  12.315 -0.0388  0.1643  0.8158
11292TIP3    H255292   0.843   3.943  12.451  0.1265 -1.4796  0.4913
11293TIP3   OH255293   0.604   3.055  13.687 -0.4631  0.1619  1.1593
11293TIP3    H155294   0.679   3.069  13.630 -1.2813  0.9478  0.2397
11293TIP3    H255295   0.617   3.115  13.760  1.1602 -1.6512  2.4004
11294TIP3   OH255296   2.981   2.685   2.526  0.0598 -0.3551  0.3294
11294TIP3    H155297   2.983   2.775   2.494 -2.2813 -1.0435 -1.8914
11294TIP3    H255298   3.051   2.641   2.477 -1.4222 -0.6563 -1.5524
11295TIP3   OH255299   1.699   1.321  15.507  0.2113 -0.1765 -0.4431
11295TIP3    H155300   1.690   1.392  15.443 -1.2429  0.0880  0.0323
11295TIP3    H255301   1.704   1.241  15.454  1.6534  0.2414 -0.9734
11296TIP3   OH255302   0.045   5.496   2.232 -0.1217 -0.3604  0.4820
11296TIP3    H155303   0.118   5.541   2.190  0.9887 -1.2858  1.3668
11296TIP3    H255304  -0.029   5.508   2.173  0.1803  2.4896  0.6558
11297TIP3   OH255305   0.496   4.248   1.629  0.4525  0.1865 -0.3390
11297TIP3    H155306   0.539   4.162   1.627 -1.2116 -0.7701  2.4921
11297TIP3    H255307   0.509   4.280   1.718 -2.7525  0.8481 -0.0420
11298TIP3   OH255308   4.665   5.266   4.381 -0.7189 -0.2797 -0.2416
11298TIP3    H155309   4.744   5.290   4.333 -0.3211 -2.7765 -0.9084
11298TIP3    H255310   4.695   5.209   4.452 -1.9412 -1.6682 -0.8084
11299TIP3   OH255311   3.673   0.672  14.487  0.2371 -0.0561  0.2126
11299TIP3    H155312   3.767   0.671  14.469  0.2753 -0.6345  0.4497
11299TIP3    H255313   3.650   0.765  14.488  0.7208  0.0729 -0.2824
11300TIP3   OH255314   3.255   0.800  15.473  0.1125  0.0740  0.1887
11300TIP3    H155315   3.292   0.880  15.435 -1.4165 -0.1987 -1.9690
11300TIP3    H255316   3.208   0.759  15.400 -0.4368 -1.9849  1.6807
11301TIP3   OH255317   3.981   3.527  14.571 -0.3761  0.2135  0.3256
11301TIP3    H155318   4.019   3.442  14.591  0.0353  0.3825  0.2636
11301TIP3    H255319   4.048   3.590  14.597  0.2805  0.4328 -1.8530
11302TIP3   OH255320   0.808   6.880  14.760  0.0368 -0.7873 -0.2758
11302TIP3    H155321   0.744   6.811  14.746  0.3419 -1.0351 -0.4500
11302TIP3    H255322   0.756   6.958  14.777 -0.3634 -0.5760 -2.2791
11303TIP3   OH255323   2.516   1.379   1.861 -0.9125 -0.3723  0.2973
11303TIP3    H155324   2.532   1.318   1.933 -1.4670 -0.5231  0.2969
11303TIP3    H255325   2.496   1.462   1.905  0.9775  0.1117  0.2850
11304TIP3   OH255326   0.802   3.761  13.402  0.6527  0.7585 -0.1702
11304TIP3    H155327   0.793   3.832  13.466 -2.2025 -1.2746  1.8183
11304TIP3    H255328   0.893   3.766  13.373  1.6320  2.6841  2.9671
11305TIP3   OH255329   5.020   3.638   0.630  0.1087 -0.6400 -0.5223
11305TIP3    H155330   5.115   3.635   0.618  0.5942  0.4609  2.5084
11305TIP3    H255331   5.008   3.637   0.725 -3.0197 -2.6894 -0.8483
11306TIP3   OH255332   2.253   2.088   3.301  0.7651 -0.1474 -0.2099
11306TIP3    H155333   2.266   2.069   3.208 -0.7913 -0.4665 -0.3813
11306TIP3    H255334   2.158   2.082   3.313  0.9219  0.2937  1.3151
11307TIP3   OH255335   2.067   6.845   0.398  0.2285 -0.1813 -0.1473
11307TIP3    H155336   2.098   6.935   0.399 -2.4193  0.7832  0.5080
11307TIP3    H255337   2.146   6.792   0.408  1.7029  2.1027  0.7217
11308TIP3   OH255338   2.750   3.751   0.347 -0.6268  0.5963 -0.2590
11308TIP3    H155339   2.778   3.801   0.270 -2.8261  1.0837 -0.7821
11308TIP3    H255340   2.820   3.687   0.360  0.8306  1.9131 -1.3357
11309TIP3   OH255341   3.078   1.677   1.415  0.9434  0.2399 -0.1466
11309TIP3    H155342   3.018   1.656   1.344  0.5691  0.2416  0.1663
11309TIP3    H255343   3.033   1.747   1.464  0.2720 -1.1845  1.2971
11310TIP3   OH255344   7.002   6.819  13.958  0.1090  0.7416  0.0125
11310TIP3    H155345   6.994   6.903  13.913  0.4015 -0.6517 -2.7314
11310TIP3    H255346   7.085   6.825  14.006 -1.0685  2.9072  1.8838
11311TIP3   OH255347   6.243   2.408  12.624 -0.0098  0.4006  0.2249
11311TIP3    H155348   6.208   2.337  12.679  1.4417 -0.6764 -0.2090
11311TIP3    H255349   6.204   2.392  12.538  3.9142 -2.7726 -1.1440
11312TIP3   OH255350   6.406   4.678   0.133  0.1641  0.0540  0.0131
11312TIP3    H155351   6.394   4.773   0.128  1.1811  0.1727 -0.4002
11312TIP3    H255352   6.409   4.649   0.042  0.3982 -0.3013  0.1335
11313TIP3   OH255353   2.937   3.440  14.115 -0.2986 -0.5650  0.2043
11313TIP3    H155354   2.906   3.392  14.038 -0.6854  0.7501 -0.4906
11313TIP3    H255355   2.877   3.514  14.122  0.7696  0.2667  0.7438
11314TIP3   OH255356   7.001   0.540   2.518 -0.4895  0.3846  0.4724
11314TIP3    H155357   7.006   0.517   2.425  2.7380  0.6539  0.5121
11314TIP3    H255358   7.041   0.465   2.563 -1.1322  0.6979  1.5975
11315TIP3   OH255359   7.150   3.091  15.212  0.2260  0.2782 -0.1653
11315TIP3    H155360   7.222   3.029  15.216  1.3100  1.5232 -0.0200
11315TIP3    H255361   7.180   3.166  15.263 -2.8267 -0.8478  3.4580
11316TIP3   OH255362   6.047   4.069   0.984  0.3742  0.2989 -0.5312
11316TIP3    H155363   6.095   4.106   1.057 -0.0749  0.9654 -0.5737
11316TIP3    H255364   6.026   4.144   0.928  0.0060 -0.0962 -0.9290
11317TIP3   OH255365   2.428   0.191  15.362 -0.0647  0.6367  0.1999
11317TIP3    H155366   2.511   0.194  15.316 -0.7883  0.8891 -1.1200
11317TIP3    H255367   2.438   0.122  15.427  0.3099 -1.1165 -1.6767
11318TIP3   OH255368   4.851   2.332   1.628  0.0766  0.3110 -1.3711
11318TIP3    H155369   4.858   2.407   1.569 -1.7798  0.3751 -1.5487
11318TIP3    H255370   4.757   2.325   1.645  0.4487 -0.6781  0.3190
11319TIP3   OH255371   2.760   2.521  13.368  0.4106 -0.0111 -0.3413
11319TIP3    H155372   2.740   2.440  13.415  0.5611  0.6988  0.9569
11319TIP3    H255373   2.845   2.505  13.327  0.7611 -0.2528  0.4805
11320TIP3   OH255374   2.140   2.585  11.921 -0.0428  0.2514  0.3413
11320TIP3    H155375   2.181   2.651  11.864  2.1360 -0.9778  0.4587
11320TIP3    H255376   2.189   2.505  11.904  0.4800 -0.2069  3.7605
11321TIP3   OH255377   2.564   4.651  14.541  0.6243  0.1542  0.0598
11321TIP3    H155378   2.473   4.649  14.510 -0.0957 -0.8546  2.1521
11321TIP3    H255379   2.616   4.651  14.461 -1.2237  1.5668 -1.1871
11322TIP3   OH255380   4.342   3.648   4.384 -0.0885 -0.0184 -0.3358
11322TIP3    H155381   4.411   3.625   4.322 -1.7636  0.6188 -2.4778
11322TIP3    H255382   4.294   3.566   4.399  0.3940 -0.2001  0.2372
11323TIP3   OH255383   6.601   6.892   2.880  0.8477  0.0582  0.4460
11323TIP3    H155384   6.648   6.907   2.962  2.1817 -1.3651 -0.0316
11323TIP3    H255385   6.510   6.881   2.906  0.7924  2.4713  1.4303
11324TIP3   OH255386   0.386   2.538  11.857  0.3579 -0.3466  0.0470
11324TIP3    H155387   0.381   2.459  11.909  1.4237 -1.4986 -1.5293
11324TIP3    H255388   0.391   2.609  11.921 -0.6758 -1.5404  1.4707
11325TIP3   OH255389   1.065   6.555   0.787  0.6671  0.1829  0.6366
11325TIP3    H155390   1.009   6.486   0.751  0.9484 -0.5842  1.6338
11325TIP3    H255391   1.008   6.631   0.794  0.1083 -0.2070  0.3536
11326TIP3   OH255392   0.724   2.738   5.561  0.3971  0.3023 -0.0042
11326TIP3    H155393   0.795   2.678   5.587  1.2515 -0.0997 -3.1041
11326TIP3    H255394   0.768   2.822   5.546  0.2632  0.0517 -1.9364
11327TIP3   OH255395   2.962   5.145  15.426 -0.2169 -0.3483  0.1327
11327TIP3    H155396   2.892   5.117  15.485 -0.0591 -0.6809  0.1634
11327TIP3    H255397   2.918   5.161  15.342 -0.8546  2.5526  0.9787
11328TIP3   OH255398   3.910   4.335   0.685 -0.3499 -0.5426  0.3895
11328TIP3    H155399   3.958   4.280   0.624  3.1747  0.3829  2.2260
11328TIP3    H255400   3.942   4.310   0.771 -2.3493  0.9249  1.6205
11329TIP3   OH255401   3.247   5.984  12.649 -0.5292 -0.2765  0.3407
11329TIP3    H155402   3.316   6.033  12.605  0.3669 -0.1993  1.7803
11329TIP3    H255403   3.252   5.896  12.611 -2.9352  1.0054 -3.1126
11330TIP3   OH255404   5.126   3.727   2.025 -0.4059 -0.3253  0.0559
11330TIP3    H155405   5.214   3.714   2.061  0.0598 -0.3402 -1.0802
11330TIP3    H255406   5.108   3.820   2.039 -1.1639 -0.7737  2.3875
11331TIP3   OH255407   2.563   5.060   3.305  0.2561  0.4503  0.5197
11331TIP3    H155408   2.511   5.002   3.361 -0.2402  1.3404  0.9894
11331TIP3    H255409   2.645   5.071   3.353  0.3591  0.1183  0.4210
11332TIP3   OH255410   3.462   5.850  13.501 -0.3771 -0.2716  0.7463
11332TIP3    H155411   3.525   5.782  13.477 -0.8949 -0.8311  0.9341
11332TIP3    H255412   3.487   5.876  13.589 -0.2292 -0.2803  0.7078
11333TIP3   OH255413   1.466   4.677   0.726 -0.1022 -0.2475 -0.1354
11333TIP3    H155414   1.407   4.752   0.725  1.1720  0.7854  0.7543
11333TIP3    H255415   1.465   4.644   0.636 -2.1666 -0.3555 -0.0898
11334TIP3   OH255416   3.527   2.410   0.802  0.0296  0.7765  0.2098
11334TIP3    H155417   3.512   2.488   0.749 -1.8086  1.1282  1.2323
11334TIP3    H255418   3.446   2.360   0.795  1.1248 -0.9682 -0.2937
11335TIP3   OH255419   6.530   2.733  14.099 -0.0889  0.2742  0.3322
11335TIP3    H155420   6.562   2.821  14.079 -0.8930  0.5050  0.0602
11335TIP3    H255421   6.580   2.707  14.177  1.1285  0.4293 -0.3743
11336TIP3   OH255422   3.693   4.664   2.738  0.0977  0.2211  0.2256
11336TIP3    H155423   3.677   4.576   2.773  2.0870 -0.9503 -1.6378
11336TIP3    H255424   3.618   4.680   2.680  0.2694 -0.7324 -0.2797
11337TIP3   OH255425   5.367   4.823   2.302 -0.1312  0.5842 -0.2717
11337TIP3    H155426   5.455   4.834   2.265 -0.7015  0.2907 -1.7503
11337TIP3    H255427   5.308   4.860   2.236 -1.1173  0.8669  0.7506
11338TIP3   OH255428   1.943   5.019   2.009 -0.1579  0.4210 -0.4422
11338TIP3    H155429   2.002   4.999   2.081  1.3780 -0.6924 -1.9619
11338TIP3    H255430   1.866   4.964   2.025  0.5271 -0.4474 -0.0711
11339TIP3   OH255431   3.074   3.056   3.126  0.2144  0.3800 -0.2191
11339TIP3    H155432   2.981   3.073   3.112  0.1217 -0.5516 -0.7513
11339TIP3    H255433   3.077   2.979   3.182  0.6563 -0.9541 -2.0078
11340TIP3   OH255434   6.244   2.704   1.057 -0.5404  0.2601  0.0473
11340TIP3    H155435   6.200   2.788   1.066 -1.3010  0.2275 -2.9397
11340TIP3    H255436   6.184   2.641   1.098 -0.1433  1.0667  1.9363
11341TIP3   OH255437   7.107   0.934  10.228  0.1809 -0.2112 -0.0860
11341TIP3    H155438   7.012   0.931  10.244  0.4230 -0.1015  1.3983
11341TIP3    H255439   7.137   1.012  10.274  0.9869 -0.1759 -0.6581
11342TIP3   OH255440   2.436   4.805   0.970  0.6976  0.2658  0.0142
11342TIP3    H155441   2.508   4.829   0.912 -0.5837  1.1956 -1.2227
11342TIP3    H255442   2.453   4.713   0.992  2.2639  0.4815 -0.2242
11343TIP3   OH255443   4.630   2.030   1.733  0.4725 -0.0892  0.4313
11343TIP3    H155444   4.578   2.107   1.711  3.0881  1.5751 -0.1373
11343TIP3    H255445   4.606   1.965   1.667 -0.5863  0.7829 -0.0598
11344TIP3   OH255446   1.702   6.411   2.985 -0.0430 -0.6180 -0.1342
11344TIP3    H155447   1.744   6.326   2.995 -0.9275 -1.0997 -0.4586
11344TIP3    H255448   1.645   6.419   3.062 -1.3651 -1.1396 -1.0524
11345TIP3   OH255449   6.508   5.339   0.429 -0.1755  0.0881  0.0422
11345TIP3    H155450   6.535   5.418   0.384  1.2498  1.3827  2.9995
11345TIP3    H255451   6.587   5.309   0.475 -1.7227 -0.6159  2.3699
11346TIP3   OH255452   0.392   4.768   4.344  0.5244  0.7263 -0.0673
11346TIP3    H155453   0.329   4.710   4.300  0.9057 -0.3167  0.7408
11346TIP3    H255454   0.340   4.816   4.408  0.4891  0.1087  0.3692
11347TIP3   OH255455   4.822   4.016  14.409 -0.1553  0.6659  0.4563
11347TIP3    H155456   4.739   4.063  14.401 -1.6897 -2.2975 -1.8929
11347TIP3    H255457   4.797   3.926  14.431  2.4195 -0.3183 -0.4757
11348TIP3   OH255458   1.905   0.749  14.943 -0.4703  0.2770 -0.4254
11348TIP3    H155459   1.844   0.725  14.874 -1.7083 -1.4698  1.2379
11348TIP3    H255460   1.925   0.667  14.988  1.8097  1.0758  0.1156
11349TIP3   OH255461   2.852   1.536   3.711  0.5760  0.3388 -0.1611
11349TIP3    H155462   2.917   1.605   3.714  1.0513 -0.0775 -0.6549
11349TIP3    H255463   2.827   1.531   3.618  1.2604 -0.8037 -0.2878
11350TIP3   OH255464   1.220   4.684  15.452 -0.6850  0.0089 -0.0308
11350TIP3    H155465   1.295   4.638  15.490 -0.0715  1.8115  1.0359
11350TIP3    H255466   1.156   4.616  15.434  1.1448 -1.5571 -0.8313
11351TIP3   OH255467   2.776   3.187   0.087 -0.1384  0.2972 -0.2074
11351TIP3    H155468   2.749   3.105   0.045 -0.8464  0.7888 -0.7138
11351TIP3    H255469   2.704   3.247   0.072 -0.7645  0.2631  2.3883
11352TIP3   OH255470   4.828   3.688   2.878 -0.6520  0.2190  0.0314
11352TIP3    H155471   4.873   3.618   2.831 -1.5533 -0.2568 -0.1212
11352TIP3    H255472   4.891   3.717   2.943 -0.5386 -1.2421  0.5961
11353TIP3   OH255473   2.599   4.247   0.977 -0.0456  0.1215 -0.0343
11353TIP3    H155474   2.674   4.291   1.016 -0.8253 -0.9652  2.8238
11353TIP3    H255475   2.523   4.296   1.009 -0.6810 -0.1513 -1.0888
11354TIP3   OH255476   1.039   2.227  12.684 -0.7829  0.4530 -0.5427
11354TIP3    H155477   0.977   2.290  12.648  0.2449  1.1101 -1.1627
11354TIP3    H255478   1.068   2.266  12.767  1.3161  1.7322 -1.8454
11355TIP3   OH255479   4.332   2.815   3.237  0.2903  0.0680 -0.0713
11355TIP3    H155480   4.277   2.747   3.197 -1.0701  1.4084 -0.4979
11355TIP3    H255481   4.334   2.792   3.330  0.2805 -0.8587 -0.2897
11356TIP3   OH255482   2.544   0.191  14.765  0.6659 -0.3844 -0.4616
11356TIP3    H155483   2.503   0.140  14.695  0.6117  0.6899 -1.2261
11356TIP3    H255484   2.539   0.281  14.735 -0.6294  0.2551  1.5518
11357TIP3   OH255485   5.183   3.347   1.377  0.0127 -0.2760 -0.9329
11357TIP3    H155486   5.157   3.398   1.300  1.8877 -0.6526 -1.8376
11357TIP3    H255487   5.258   3.295   1.347  0.8186 -0.3707  1.1850
11358TIP3   OH255488   4.294   1.576   1.535 -0.1874 -0.0105  0.1066
11358TIP3    H155489   4.361   1.628   1.580  0.4827 -0.0289 -0.8492
11358TIP3    H255490   4.321   1.485   1.549 -0.3623 -0.0405  0.2519
11359TIP3   OH255491   4.171   4.350   2.140  0.1422 -0.2372 -0.3701
11359TIP3    H155492   4.254   4.395   2.154 -0.2558  0.3584  0.0867
11359TIP3    H255493   4.195   4.258   2.126  0.9653  0.1090 -1.3370
11360TIP3   OH255494   3.057   6.774   1.990  0.2062  0.4047 -0.3767
11360TIP3    H155495   2.977   6.728   1.965  1.1356 -1.1291 -0.5770
11360TIP3    H255496   3.051   6.858   1.944 -1.1505  0.1885 -0.6131
11361TIP3   OH255497   4.862   1.487   2.008 -0.4734 -0.6760  0.0886
11361TIP3    H155498   4.845   1.465   1.917 -0.0943  0.3929 -0.2484
11361TIP3    H255499   4.943   1.537   2.006 -1.1020  0.4106  0.8598
11362TIP3   OH255500   3.568   1.168  15.329  0.2581 -0.8813  0.6165
11362TIP3    H155501   3.550   1.262  15.336 -0.5586 -1.0102  0.2907
11362TIP3    H255502   3.661   1.160  15.350  1.0036  0.3216 -2.0022
11363TIP3   OH255503   3.802   2.007   0.500  0.1657 -0.4831 -0.3555
11363TIP3    H155504   3.785   1.984   0.408 -2.3322 -1.3090  0.2897
11363TIP3    H255505   3.896   2.025   0.502 -0.0325  1.4283 -3.4749
11364TIP3   OH255506   6.752   5.520  10.556 -0.0693  0.1884 -0.0102
11364TIP3    H155507   6.692   5.557  10.621 -0.5569  0.1916 -0.4544
11364TIP3    H255508   6.812   5.466  10.606 -1.5500 -1.2604  0.2647
11365TIP3   OH255509   0.320   5.715   2.725 -0.0806  0.1088 -0.3265
11365TIP3    H155510   0.299   5.776   2.796  0.3232  0.4534 -0.4954
11365TIP3    H255511   0.412   5.733   2.705  0.6039 -1.8731  0.8954
11366TIP3   OH255512   1.988   5.676  14.449 -0.1525 -0.5487 -0.2229
11366TIP3    H155513   2.052   5.735  14.409 -0.7079  0.0268 -0.2636
11366TIP3    H255514   2.019   5.588  14.426  0.1469 -0.2513 -0.9784
11367TIP3   OH255515   6.065   7.054   4.276 -0.0868 -0.0829  0.2898
11367TIP3    H155516   6.054   6.968   4.237 -0.8321  0.2146 -0.1599
11367TIP3    H255517   5.977   7.081   4.303  0.0755  0.7018  0.0667
11368TIP3   OH255518   2.666   5.934   0.537  0.5877  0.4017  0.0331
11368TIP3    H155519   2.714   6.015   0.552 -2.0344  2.2251 -1.0777
11368TIP3    H255520   2.677   5.916   0.444 -0.1827  0.3671 -0.0531
11369TIP3   OH255521   1.312   4.339   3.390 -0.6065 -0.4884 -0.2734
11369TIP3    H155522   1.388   4.380   3.348 -1.3542  0.7238 -0.4618
11369TIP3    H255523   1.250   4.324   3.318 -1.4362  0.5552  0.2252
11370TIP3   OH255524   0.760   4.735   2.846  1.0608  0.1084 -0.4016
11370TIP3    H155525   0.745   4.802   2.912  2.6570  0.2371 -0.1360
11370TIP3    H255526   0.681   4.736   2.792  1.6583  3.3217 -1.3583
11371TIP3   OH255527   3.183   4.635   1.457  0.4239  0.2057  0.2772
11371TIP3    H155528   3.168   4.673   1.371  1.6984  0.8172  0.3135
11371TIP3    H255529   3.108   4.576   1.471 -0.1635  0.6571 -0.9223
11372TIP3   OH255530   2.449   2.034   0.342  0.1013  0.0851 -0.3700
11372TIP3    H155531   2.481   2.015   0.254 -1.3505 -1.1718 -0.6543
11372TIP3    H255532   2.523   2.014   0.400  0.4669 -0.9040 -1.1615
11373TIP3   OH255533   2.961   5.052   4.621  0.1685 -0.4944  0.1789
11373TIP3    H155534   3.039   5.095   4.657  0.0360 -0.1719  0.0788
11373TIP3    H255535   2.958   4.967   4.665 -0.3048  0.1164  1.3396
11374TIP3   OH255536   1.457   0.873  15.453  0.3202 -0.4323 -0.0464
11374TIP3    H155537   1.509   0.796  15.476  1.3905  0.1570 -0.4608
11374TIP3    H255538   1.374   0.861  15.500  0.5694 -1.7088  0.0942
11375TIP3   OH255539   1.004   1.773   0.746  0.0465  0.5207  0.1142
11375TIP3    H155540   1.024   1.844   0.808  0.6111  0.4538  0.0110
11375TIP3    H255541   0.997   1.695   0.801  1.0482  0.3715  0.0425
11376TIP3   OH255542   3.033   4.111  10.928  0.2203  0.5857  0.3366
11376TIP3    H155543   2.972   4.168  10.881 -3.0823 -0.9275  2.5925
11376TIP3    H255544   3.042   4.152  11.014  2.6231  0.9082 -0.0461
11377TIP3   OH255545   0.534   2.057  14.475  0.0025 -0.3657  0.6254
11377TIP3    H155546   0.479   1.979  14.474 -0.6829  0.0749  1.8506
11377TIP3    H255547   0.473   2.129  14.460 -0.2950  0.3865  4.6655
11378TIP3   OH255548   5.551   4.987   3.635  0.0217 -0.5124  0.2193
11378TIP3    H155549   5.568   4.952   3.547  0.2461 -1.4313  0.6230
11378TIP3    H255550   5.630   4.967   3.684 -0.7709 -1.5204  1.1003
11379TIP3   OH255551   0.262   5.337  11.700 -0.0251 -0.2364 -0.3043
11379TIP3    H155552   0.222   5.364  11.617 -2.2951 -0.7825  0.5688
11379TIP3    H255553   0.270   5.419  11.750  0.0855 -0.0987 -0.5459
11380TIP3   OH255554   5.105   6.151   0.200 -0.7115  0.2022  0.3174
11380TIP3    H155555   5.045   6.083   0.169 -0.4506  0.3933 -0.6364
11380TIP3    H255556   5.163   6.105   0.260  0.3902 -0.7768 -1.4267
11381TIP3   OH255557   0.872   1.320  15.283 -0.4258 -0.3870  0.5124
11381TIP3    H155558   0.836   1.306  15.371  0.1088 -2.9826  0.3817
11381TIP3    H255559   0.948   1.262  15.279 -0.9479 -0.9603 -1.9503
11382TIP3   OH255560   3.902   6.945  15.410 -0.6699 -0.1736 -0.4403
11382TIP3    H155561   3.891   7.026  15.461  0.2110 -1.0463  1.1821
11382TIP3    H255562   3.977   6.962  15.353  0.1326 -0.1708  0.5994
11383TIP3   OH255563   2.649   2.457   2.803  0.3060  0.2415 -0.2154
11383TIP3    H155564   2.659   2.495   2.716  1.4346 -0.6911 -0.5049
11383TIP3    H255565   2.576   2.505   2.842 -1.0462 -0.1905 -2.1303
11384TIP3   OH255566   3.722   4.827   1.887  0.0437  0.0833  0.1091
11384TIP3    H155567   3.792   4.770   1.919 -1.9524 -2.4658  0.0145
11384TIP3    H255568   3.726   4.904   1.945  0.0316 -2.0286  3.0577
11385TIP3   OH255569   3.836   0.443   4.800  0.3534  0.0395  0.1771
11385TIP3    H155570   3.870   0.417   4.886 -0.5672 -0.8614  0.2840
11385TIP3    H255571   3.747   0.473   4.818 -0.2132 -1.1102 -0.5775
11386TIP3   OH255572   2.773   5.541   1.651  0.3256 -0.2745  0.1384
11386TIP3    H155573   2.819   5.526   1.569  1.3305 -1.4608  0.8939
11386TIP3    H255574   2.767   5.636   1.659  0.7583 -0.1463 -1.0026
11387TIP3   OH255575   2.155   2.446   0.102 -0.4823  0.1310  0.2899
11387TIP3    H155576   2.166   2.354   0.128 -0.4166 -0.1421 -0.6839
11387TIP3    H255577   2.064   2.452   0.073 -0.3199  0.2221 -0.2148
11388TIP3   OH255578   3.440   3.565  14.386  0.2105 -0.6847 -0.5053
11388TIP3    H155579   3.414   3.561  14.294  0.8962  1.7048 -0.8286
11388TIP3    H255580   3.395   3.642  14.420  1.5299 -0.4137  0.6578
11389TIP3   OH255581   0.456   3.820   1.055  0.1453  0.0795 -0.0933
11389TIP3    H155582   0.420   3.832   1.143 -0.5633  1.3348 -0.5558
11389TIP3    H255583   0.540   3.775   1.070 -0.2990 -0.3475  1.1657
11390TIP3   OH255584   2.744   7.088   3.809 -0.2257 -0.4173 -0.4405
11390TIP3    H155585   2.663   7.036   3.801  0.5139 -1.7422  0.4022
11390TIP3    H255586   2.742   7.121   3.899 -0.5804  0.8430 -0.9054
11391TIP3   OH255587   1.927   4.507   3.129  0.4331  0.4029 -0.3822
11391TIP3    H155588   1.960   4.590   3.163 -0.3492  0.7307 -0.4221
11391TIP3    H255589   1.960   4.441   3.190 -1.2215  1.0114  1.2082
11392TIP3   OH255590   5.530   4.915   5.139  0.4403 -0.3091  0.7261
11392TIP3    H155591   5.613   4.958   5.115  0.7688  0.2950  2.8058
11392TIP3    H255592   5.517   4.849   5.072  1.7401  0.7340 -0.5918
11393TIP3   OH255593   1.714   0.347   0.687  0.4523 -0.2076  0.1609
11393TIP3    H155594   1.751   0.410   0.749  0.7739  0.1687 -0.4101
11393TIP3    H255595   1.755   0.263   0.710  1.1171  0.0681  0.0007
11394TIP3   OH255596   4.507   1.164   0.225 -0.0124 -0.0249  0.4024
11394TIP3    H155597   4.443   1.106   0.184 -1.5513  1.4006  0.7232
11394TIP3    H255598   4.543   1.215   0.152  0.7046 -0.7550  0.2358
11395TIP3   OH255599   2.338   5.894   3.117  0.2914  0.0827 -0.2384
11395TIP3    H155600   2.409   5.830   3.114 -0.2087 -0.5878  1.6043
11395TIP3    H255601   2.273   5.855   3.176  0.8038  3.0655  2.4279
11396TIP3   OH255602   1.956   1.701   3.078 -0.7808 -0.1839  0.0044
11396TIP3    H155603   1.889   1.769   3.076 -1.3384 -0.7692 -1.1229
11396TIP3    H255604   1.967   1.675   2.987  1.9940  0.8988 -0.0264
11397TIP3   OH255605   3.661   5.912   1.037 -0.1823 -0.1841  0.1602
11397TIP3    H155606   3.673   6.005   1.057 -2.3423  0.3490 -0.8343
11397TIP3    H255607   3.693   5.903   0.948 -1.0566 -0.1316 -0.1638
11398TIP3   OH255608   4.635   0.398   0.885 -0.2830 -0.1838  0.8118
11398TIP3    H155609   4.593   0.452   0.818  2.1163  0.3441 -0.3319
11398TIP3    H255610   4.622   0.308   0.855  1.0895  0.0632 -0.5882
11399TIP3   OH255611   1.725   4.458   4.096  0.2759 -0.6519 -0.7917
11399TIP3    H155612   1.635   4.487   4.106 -0.1189 -2.5037  1.3949
11399TIP3    H255613   1.764   4.469   4.183  1.7619 -1.1735 -1.3626
11400TIP3   OH255614   4.933   2.207   1.408 -0.2254 -0.1716  0.1004
11400TIP3    H155615   5.028   2.221   1.403 -0.7497  3.2321 -2.6388
11400TIP3    H255616   4.906   2.255   1.486  0.4576 -2.5853  1.8765
11401TIP3   OH255617   1.024   3.599   0.062 -0.1208  0.2501 -0.0433
11401TIP3    H155618   1.076   3.519   0.069  0.4687  0.5524 -0.8490
11401TIP3    H255619   1.022   3.634   0.151 -0.6619 -0.8281  0.3760
11402TIP3   OH255620   1.313   7.072   2.569  0.4074  0.2398  0.0939
11402TIP3    H155621   1.389   7.018   2.591  0.4696 -0.7353 -2.3501
11402TIP3    H255622   1.238   7.014   2.585  0.2631  0.6291  0.8540
11403TIP3   OH255623   4.110   5.646  14.813  0.0905 -0.3259 -0.4902
11403TIP3    H155624   4.015   5.633  14.823  0.0189  1.5401  1.7415
11403TIP3    H255625   4.148   5.607  14.892  1.1023 -0.2588 -0.9386
11404TIP3   OH255626   1.125   0.439   5.739  0.6959 -0.5118  0.3426
11404TIP3    H155627   1.136   0.455   5.833  0.2370 -1.9721  0.6662
11404TIP3    H255628   1.125   0.343   5.731  3.8759 -0.4443 -1.5230
11405TIP3   OH255629   5.664   6.239   1.895 -0.0975 -0.2457 -0.3238
11405TIP3    H155630   5.605   6.199   1.830  1.0476  0.7649 -2.0263
11405TIP3    H255631   5.740   6.180   1.897  0.4962  0.4793 -0.9903
11406TIP3   OH255632   2.573   4.814   2.203 -0.0115 -0.0039  0.2829
11406TIP3    H155633   2.526   4.778   2.278 -2.0137  2.3918  0.2385
11406TIP3    H255634   2.660   4.835   2.238  0.3994 -2.5561  0.8903
11407TIP3   OH255635   2.124   5.412  14.510 -0.3596  0.1869 -0.0636
11407TIP3    H155636   2.105   5.349  14.579 -2.2162 -0.1713 -0.8808
11407TIP3    H255637   2.160   5.360  14.439  0.9867  0.4791  0.3814
11408TIP3   OH255638   1.602   4.351   0.682 -0.1810  0.0831  0.0574
11408TIP3    H155639   1.608   4.326   0.590 -0.6815  2.0985 -0.5294
11408TIP3    H255640   1.508   4.356   0.700 -0.0850  0.1906  0.5336
11409TIP3   OH255641   2.480   1.923  14.457  0.7455  0.1071 -0.4324
11409TIP3    H155642   2.566   1.886  14.436 -0.2104 -1.1519 -2.2623
11409TIP3    H255643   2.422   1.847  14.464 -0.4512  1.0070 -0.3160
11410TIP3   OH255644   6.541   7.100  13.505 -0.0518  0.1853 -0.3102
11410TIP3    H155645   6.485   7.118  13.430  0.7458  0.4180 -0.8478
11410TIP3    H255646   6.530   7.006  13.521  1.4479 -0.3182 -2.0799
11411TIP3   OH255647   0.988   4.785  14.906 -0.3334 -0.2125  0.7220
11411TIP3    H155648   1.047   4.773  14.980 -0.4606 -0.0077  0.8546
11411TIP3    H255649   1.010   4.871  14.871  0.7099 -0.8946 -0.3452
11412TIP3   OH255650   7.114   7.104   0.536  0.0213 -0.1171  0.2930
11412TIP3    H155651   7.065   7.032   0.497  2.9741 -1.4188 -1.2027
11412TIP3    H255652   7.130   7.165   0.464 -1.2901  1.3948  1.2540
11413TIP3   OH255653   2.843   5.013   3.421 -0.3691  0.1425 -0.6935
11413TIP3    H155654   2.835   4.948   3.490 -0.5991 -0.2319 -1.0674
11413TIP3    H255655   2.934   5.040   3.423 -0.5420  0.6626  0.2297
11414TIP3   OH255656   1.455   1.882   1.656 -0.9004 -0.1418 -0.0558
11414TIP3    H155657   1.436   1.951   1.720 -0.8337 -0.4244  0.2692
11414TIP3    H255658   1.375   1.830   1.652  0.1995 -2.1696  2.3535
11415TIP3   OH255659   3.884   3.945   0.895  0.3735 -0.1611 -0.1475
11415TIP3    H155660   3.826   3.912   0.964 -0.6868  0.4802 -0.7254
11415TIP3    H255661   3.899   4.036   0.919  0.4308 -0.0858 -0.4767
11416TIP3   OH255662   1.457   2.612   5.153 -0.0720  0.1362 -0.0891
11416TIP3    H155663   1.362   2.601   5.155 -0.1770  0.8827 -0.4936
11416TIP3    H255664   1.481   2.630   5.243 -0.5763  1.8760 -0.2835
11417TIP3   OH255665   1.773   4.111  15.313 -0.6666 -0.5895 -0.1611
11417TIP3    H155666   1.841   4.124  15.379 -0.3235  1.2930 -0.8451
11417TIP3    H255667   1.710   4.052  15.355  0.2350 -0.5216  1.3271
11418TIP3   OH255668   6.365   2.363   4.161  0.0020 -0.2826  0.6543
11418TIP3    H155669   6.423   2.438   4.174 -0.2357 -0.2651  1.6422
11418TIP3    H255670   6.278   2.402   4.147  0.1939 -0.3139 -0.6897
11419TIP3   OH255671   5.446   1.860   3.961  0.6912 -0.1381  0.4341
11419TIP3    H155672   5.482   1.948   3.969 -0.8981  0.5513  0.1083
11419TIP3    H255673   5.351   1.872   3.964  0.4328 -1.7259 -0.6114
11420TIP3   OH255674   5.447   0.702   1.565  0.8280  0.0051  0.4875
11420TIP3    H155675   5.356   0.675   1.550  1.2676 -1.3098  0.1207
11420TIP3    H255676   5.461   0.773   1.502 -0.2699  0.9687  1.2964
11421TIP3   OH255677   7.087   6.800   3.338  0.6758  0.0350 -0.2456
11421TIP3    H155678   7.166   6.794   3.392  1.0430 -0.0525 -0.7906
11421TIP3    H255679   7.078   6.713   3.299 -0.9885 -0.6660  1.6117
11422TIP3   OH255680   1.815   1.735   0.220  0.1036  0.1829 -0.3717
11422TIP3    H155681   1.810   1.645   0.187 -3.5441 -0.2460  1.1304
11422TIP3    H255682   1.884   1.732   0.286  0.7852 -1.2419 -1.1218
11423TIP3   OH255683   0.813   3.910   1.895  0.0772  0.2216  0.7365
11423TIP3    H155684   0.858   3.836   1.936  3.2751  1.3744 -0.6200
11423TIP3    H255685   0.796   3.881   1.806  0.6678  0.8726  0.4164
11424TIP3   OH255686   3.062   3.212   2.296 -0.7360  0.6663 -0.4017
11424TIP3    H155687   2.999   3.281   2.278  1.0638  2.1717 -1.0887
11424TIP3    H255688   3.077   3.170   2.212 -2.1834 -0.9268  0.0973
11425TIP3   OH255689   2.371   5.150  13.614  0.4248  0.0415 -0.2945
11425TIP3    H155690   2.441   5.204  13.577  0.3533  0.4035  0.0945
11425TIP3    H255691   2.306   5.213  13.645  0.4331 -0.2644  0.3463
11426TIP3   OH255692   0.889   1.863   1.190  0.1619  0.3148 -0.2017
11426TIP3    H155693   0.953   1.793   1.176 -0.2148 -0.4806  1.8253
11426TIP3    H255694   0.806   1.817   1.202  0.0156  1.0277  1.7812
11427TIP3   OH255695   4.181   2.298   4.805 -0.0309 -0.2925 -0.2287
11427TIP3    H155696   4.202   2.372   4.863 -2.4101 -0.9342  1.4990
11427TIP3    H255697   4.246   2.232   4.826  1.1338  0.6866 -0.6604
11428TIP3   OH255698   6.756   0.926   2.559 -0.2705  0.3005  0.2341
11428TIP3    H155699   6.844   0.893   2.577 -0.1890  1.3206  1.8453
11428TIP3    H255700   6.769   0.992   2.491  0.6772  2.4998  2.4198
11429TIP3   OH255701   1.534   4.271  13.450 -0.1555 -0.3202  0.0136
11429TIP3    H155702   1.451   4.254  13.406 -0.0865 -0.1444 -0.1841
11429TIP3    H255703   1.510   4.313  13.532 -0.2273  0.3308 -0.3399
11430TIP3   OH255704   2.728   3.382  15.359  0.3701 -0.5151 -0.5667
11430TIP3    H155705   2.782   3.447  15.314  0.2761 -0.5991 -0.8036
11430TIP3    H255706   2.723   3.414  15.449 -0.5730  0.3883 -0.9279
11431TIP3   OH255707   0.080   4.029  15.007 -0.3467 -0.1473 -0.0976
11431TIP3    H155708   0.092   4.028  14.912 -0.8198  0.6248 -0.1728
11431TIP3    H255709   0.130   4.105  15.036 -1.3846  0.4609  0.1026
11432TIP3   OH255710   0.991   1.927   2.796 -0.3611 -0.1459 -0.2326
11432TIP3    H155711   0.942   1.904   2.717 -0.3802  0.3378 -0.3656
11432TIP3    H255712   1.023   1.843   2.830 -1.4001 -0.4713 -0.0674
11433TIP3   OH255713   4.688   1.973  12.334  0.6446 -0.1496 -0.1443
11433TIP3    H155714   4.735   2.038  12.281 -0.7353  1.0346  0.0281
11433TIP3    H255715   4.687   2.011  12.422  0.3533 -0.6872  0.0834
11434TIP3   OH255716   5.211   0.083  13.853  0.4035 -0.1498  0.4181
11434TIP3    H155717   5.164   0.161  13.826  0.1189 -0.1112  1.0213
11434TIP3    H255718   5.239   0.042  13.771 -0.5267 -0.0782  0.0528
11435TIP3   OH255719   0.628   3.723   2.696  0.2671  0.4747  0.1110
11435TIP3    H155720   0.575   3.734   2.775  0.4359 -0.0873  0.3047
11435TIP3    H255721   0.578   3.661   2.643  0.9743 -0.4536  0.5173
11436TIP3   OH255722   5.261   1.359   1.592 -0.0105 -0.1689 -0.0144
11436TIP3    H155723   5.208   1.332   1.517 -0.4533 -0.2671  0.3365
11436TIP3    H255724   5.340   1.396   1.553  0.7855 -2.3193 -0.5156
11437TIP3   OH255725   0.503   6.122   2.274 -0.4008  0.3778  0.6678
11437TIP3    H155726   0.480   6.160   2.189 -0.3965  0.1015  0.5431
11437TIP3    H255727   0.433   6.152   2.332 -0.5578  0.3338  0.5041
11438TIP3   OH255728   4.133   4.173  13.682  0.0318 -0.2198  0.4586
11438TIP3    H155729   4.065   4.111  13.657 -0.9972  1.6490 -1.4506
11438TIP3    H255730   4.205   4.156  13.621  0.3583 -0.5474  0.9248
11439TIP3   OH255731   0.127   4.974   2.857 -0.2367  0.4341  0.2210
11439TIP3    H155732   0.150   5.033   2.785 -1.6041  0.1972 -0.4418
11439TIP3    H255733   0.051   5.015   2.898 -0.0719  0.0595  0.9104
11440TIP3   OH255734   0.965   5.353   3.592 -0.2442 -0.3606  0.0416
11440TIP3    H155735   1.018   5.432   3.581 -0.8171  0.0343  0.1021
11440TIP3    H255736   0.875   5.381   3.572 -0.4422 -1.0047  0.0207
11441TIP3   OH255737   4.078   2.992   3.363  0.2458 -0.5083 -0.5571
11441TIP3    H155738   3.995   2.943   3.366  0.4803 -0.8267  2.3831
11441TIP3    H255739   4.141   2.934   3.404  1.6401  0.3094 -1.5120
11442TIP3   OH255740   0.242   3.865   4.635 -0.3130  0.3432 -0.1160
11442TIP3    H155741   0.316   3.861   4.696 -0.5947  0.1281  0.2176
11442TIP3    H255742   0.232   3.958   4.616 -1.7057  0.6574  2.0188
11443TIP3   OH255743   1.496   6.453   2.517  0.3439  0.1209  0.1313
11443TIP3    H155744   1.530   6.460   2.428 -1.7021 -2.7021 -0.9348
11443TIP3    H255745   1.529   6.368   2.548 -1.6404 -0.4155  0.8453
11444TIP3   OH255746   0.856   2.723   0.146 -0.3989  0.3970  0.1129
11444TIP3    H155747   0.862   2.756   0.056  1.8259 -1.1899 -0.3675
11444TIP3    H255748   0.810   2.640   0.137 -0.8367  0.5882  0.5606
11445TIP3   OH255749   5.613   4.312   1.285  0.8963 -0.4492  0.6516
11445TIP3    H155750   5.642   4.346   1.370 -0.2360 -0.7327  1.1545
11445TIP3    H255751   5.574   4.387   1.241 -0.3892 -0.7653  1.2240
11446TIP3   OH255752   1.027   2.134   0.458 -0.0794 -0.0021  0.2337
11446TIP3    H155753   1.055   2.195   0.526  0.3066 -0.2791  0.3260
11446TIP3    H255754   1.096   2.067   0.456 -0.0213  0.0757 -0.5184
11447TIP3   OH255755   3.098   5.915   5.307 -0.0702 -0.3251 -0.3523
11447TIP3    H155756   3.150   5.907   5.386  0.2113 -0.1402 -0.5178
11447TIP3    H255757   3.150   5.972   5.249 -0.5485  0.0348 -0.4358
11448TIP3   OH255758   4.144   0.674   0.510  0.6343  0.5735 -0.3596
11448TIP3    H155759   4.120   0.738   0.577  0.7110  0.3434 -0.1111
11448TIP3    H255760   4.211   0.620   0.551  0.1882 -0.0047 -0.3810
11449TIP3   OH255761   1.814   6.730   2.450  0.2692  0.0965 -0.0767
11449TIP3    H155762   1.836   6.659   2.510 -0.8534  0.3746  0.6962
11449TIP3    H255763   1.827   6.693   2.363  0.7266 -0.7100  0.3286
11450TIP3   OH255764   5.331   6.006  13.957  0.4698  0.0178 -0.2235
11450TIP3    H155765   5.251   6.044  13.993 -0.0081  0.4630 -1.6876
11450TIP3    H255766   5.302   5.923  13.919  0.4868  0.6415 -1.6377
11451TIP3   OH255767   1.219   3.416   0.377 -0.9676 -0.5586 -0.1258
11451TIP3    H155768   1.126   3.436   0.363 -1.6070 -2.0821  1.6996
11451TIP3    H255769   1.226   3.397   0.471  1.1702 -0.5853 -0.2605
11452TIP3   OH255770   1.318   3.661   1.282  0.4228 -0.7493 -0.0283
11452TIP3    H155771   1.364   3.730   1.331  0.6567 -0.7787 -0.2039
11452TIP3    H255772   1.370   3.651   1.202 -1.0317  0.6810 -1.2019
11453TIP3   OH255773   5.205   0.941  12.215 -0.5319 -0.6537  0.5723
11453TIP3    H155774   5.139   0.955  12.283 -0.6884  3.1953 -0.2440
11453TIP3    H255775   5.256   1.022  12.215 -0.5238 -0.5474 -3.8831
11454TIP3   OH255776   0.769   0.515   3.261 -0.4787  0.1513 -0.0981
11454TIP3    H155777   0.781   0.432   3.307 -2.3955 -0.4866 -0.7024
11454TIP3    H255778   0.712   0.566   3.318 -0.5667  0.4460 -0.4482
11455TIP3   OH255779   1.834   1.458   0.497  0.2816 -1.0038 -0.0212
11455TIP3    H155780   1.874   1.544   0.511 -1.9317  0.0685 -0.0572
11455TIP3    H255781   1.868   1.430   0.412  1.6730 -0.5687  0.3666
11456TIP3   OH255782   3.123   4.719   0.103  0.1039 -0.2452 -0.6716
11456TIP3    H155783   3.185   4.789   0.082 -0.0482  0.6206  1.5841
11456TIP3    H255784   3.065   4.714   0.027  0.8260  1.3069 -1.3364
11457TIP3   OH255785   3.817   1.128   3.489 -0.0038 -0.1860  0.1695
11457TIP3    H155786   3.888   1.136   3.425  0.3010 -1.6194  0.3114
11457TIP3    H255787   3.743   1.172   3.449  0.9881  1.4636  0.0745
11458TIP3   OH255788   0.766   6.622  14.344  0.0798 -0.2083  0.1325
11458TIP3    H155789   0.786   6.544  14.396 -0.1495  0.8034  1.7888
11458TIP3    H255790   0.839   6.629  14.283  1.1939 -0.5419  1.3914
11459TIP3   OH255791   0.065   5.802   0.518 -0.1250 -0.1545  0.0934
11459TIP3    H155792   0.062   5.755   0.601 -2.7773  0.4028  0.3461
11459TIP3    H255793   0.054   5.735   0.452 -0.6119 -0.2952  0.3144
11460TIP3   OH255794   0.556   0.221   2.477 -0.2692  0.4356  0.0469
11460TIP3    H155795   0.492   0.236   2.546 -0.7214 -0.3038 -0.2147
11460TIP3    H255796   0.576   0.309   2.443  0.6353  0.8961  1.7175
11461TIP3   OH255797   0.946   4.895   4.501 -0.5446 -0.0246  0.3163
11461TIP3    H155798   1.015   4.867   4.441 -1.8214 -1.7502 -0.3806
11461TIP3    H255799   0.904   4.968   4.456 -2.0693 -1.8772 -1.3428
11462TIP3   OH255800   2.379   0.200   3.228 -0.0044 -0.3247 -0.1552
11462TIP3    H155801   2.353   0.235   3.313  1.0798  2.2307 -0.8178
11462TIP3    H255802   2.296   0.179   3.185 -0.5809 -1.2265  1.3473
11463TIP3   OH255803   4.617   2.072   2.431 -0.3761 -0.2292 -0.3439
11463TIP3    H155804   4.703   2.089   2.470 -0.0753  0.3933 -1.2785
11463TIP3    H255805   4.576   2.010   2.491  0.1499  0.5916  0.8764
11464TIP3   OH255806   5.721   6.270   3.077 -0.3841 -0.0892 -0.1455
11464TIP3    H155807   5.718   6.232   2.989  0.6721 -0.2893 -0.0978
11464TIP3    H255808   5.729   6.195   3.135 -2.0092 -0.0183  0.1913
11465TIP3   OH255809   3.725   4.162   3.885 -0.3667  0.1394  0.0266
11465TIP3    H155810   3.678   4.126   3.960  0.1433 -0.2165  0.1727
11465TIP3    H255811   3.731   4.090   3.823 -0.8395  0.4485 -0.3898
11466TIP3   OH255812   3.002   5.803  13.852 -0.3008  0.7955  0.3331
11466TIP3    H155813   3.057   5.743  13.901 -2.0695 -0.3240  0.9828
11466TIP3    H255814   3.059   5.836  13.783  0.2191 -3.0582 -1.2144
11467TIP3   OH255815   2.489   0.151   2.911  0.5650  0.5144  0.0809
11467TIP3    H155816   2.534   0.111   2.986 -0.0516  1.2997  0.8841
11467TIP3    H255817   2.466   0.078   2.854 -1.0832 -0.3518  1.8131
11468TIP3   OH255818   5.306   1.275   4.242 -0.0573 -0.0079  0.2350
11468TIP3    H155819   5.341   1.364   4.249 -0.4152  0.0360  1.4490
11468TIP3    H255820   5.289   1.248   4.332 -0.7884 -0.9748 -0.1821
11469TIP3   OH255821   1.549   6.895   2.688  0.5150 -0.4164  0.1708
11469TIP3    H155822   1.570   6.942   2.769 -0.8136  0.1775  0.1968
11469TIP3    H255823   1.575   6.805   2.705  3.0322  0.2837  0.1604
11470TIP3   OH255824   5.543   0.309   1.175 -0.0638  0.0994  0.0848
11470TIP3    H155825   5.520   0.275   1.261 -1.4511 -0.5210 -0.5010
11470TIP3    H255826   5.543   0.404   1.185 -0.8765  0.0457  0.6203
11471TIP3   OH255827   4.529   0.321   1.735  0.5495  0.0345 -0.7647
11471TIP3    H155828   4.516   0.239   1.687  0.1513 -0.6546  0.5055
11471TIP3    H255829   4.605   0.304   1.790  0.1536  0.3507 -0.1242
11472TIP3   OH255830   5.511   4.656  13.287  0.4323 -0.7429  0.8311
11472TIP3    H155831   5.548   4.691  13.206 -0.3313 -1.0850  0.3261
11472TIP3    H255832   5.423   4.628  13.262 -0.6640  1.2340  2.2817
11473TIP3   OH255833   3.079   6.479  14.540 -0.1190 -0.1950  0.0088
11473TIP3    H155834   3.046   6.452  14.454  3.3395  1.2119 -1.8703
11473TIP3    H255835   3.141   6.411  14.564 -0.0549  0.1295  0.7741
11474TIP3   OH255836   0.397   1.970   4.448  0.0824 -0.2678 -0.3253
11474TIP3    H155837   0.397   2.017   4.532  0.5429 -0.5637 -0.1571
11474TIP3    H255838   0.471   2.006   4.400 -1.0080  0.9061 -1.1817
11475TIP3   OH255839   1.978   5.275   3.215 -0.3131  0.0851  0.5872
11475TIP3    H155840   1.953   5.278   3.123 -1.3454  0.4771  0.8768
11475TIP3    H255841   2.029   5.355   3.228  1.0252 -0.6608  0.0245
11476TIP3   OH255842   1.805   1.925   1.913 -0.1423  0.0611  0.0221
11476TIP3    H155843   1.879   1.881   1.955 -0.8292 -0.1240  1.0529
11476TIP3    H255844   1.777   1.991   1.976 -0.7557  0.2252 -0.4188
11477TIP3   OH255845   3.888   0.204   1.060  0.1812  0.5341 -0.3180
11477TIP3    H155846   3.936   0.164   1.132  0.0236 -0.2756 -0.6542
11477TIP3    H255847   3.942   0.278   1.033 -0.8844  2.2520  2.1243
11478TIP3   OH255848   4.444   4.842   0.846  0.0666 -0.4757 -0.0203
11478TIP3    H155849   4.396   4.925   0.857 -0.9365 -0.8251 -1.5206
11478TIP3    H255850   4.414   4.787   0.918  1.4378  0.7772  1.5283
11479TIP3   OH255851   2.320   3.927  15.412  0.1029  0.1987 -0.0140
11479TIP3    H155852   2.372   3.847  15.413  0.9908  0.7993  1.6742
11479TIP3    H255853   2.230   3.896  15.395  0.0818 -1.3569  2.7333
11480TIP3   OH255854   3.729   3.685  14.348 -0.1896  0.4200 -0.7660
11480TIP3    H155855   3.754   3.603  14.306 -1.0855 -0.2623  0.0063
11480TIP3    H255856   3.656   3.718  14.295  1.5590  1.8325 -2.3481
11481TIP3   OH255857   2.468   4.081   1.805  0.3453 -0.1187 -0.7479
11481TIP3    H155858   2.422   4.017   1.860  1.7224 -2.2045 -1.9131
11481TIP3    H255859   2.495   4.150   1.864 -1.4162 -0.4927  0.5223
11482TIP3   OH255860   4.434   3.858   2.593  0.2517 -0.8771 -0.0425
11482TIP3    H155861   4.455   3.802   2.668  0.0466 -0.1536  0.5574
11482TIP3    H255862   4.519   3.880   2.555  0.4599  0.0869  0.9542
11483TIP3   OH255863   0.229   4.124  13.055  0.0324 -0.2394 -0.4012
11483TIP3    H155864   0.195   4.132  12.966 -0.9997  0.1740  0.0295
11483TIP3    H255865   0.324   4.137  13.045 -0.0892 -0.1156 -1.4295
11484TIP3   OH255866   4.855   1.285   0.797  0.6552 -0.4287  0.1246
11484TIP3    H155867   4.935   1.247   0.832  2.5009  1.7118 -1.6105
11484TIP3    H255868   4.885   1.356   0.740 -2.4955  0.8232 -0.0884
11485TIP3   OH255869   3.071   4.953   0.586  0.1231 -0.4368  0.0866
11485TIP3    H155870   3.130   4.946   0.511 -0.4195 -0.5057 -0.3369
11485TIP3    H255871   3.112   4.899   0.653  0.4077 -0.7009 -0.2959
11486TIP3   OH255872   2.350   5.749   1.841 -0.9889  0.6903 -0.6613
11486TIP3    H155873   2.383   5.659   1.830  0.7691  1.5271 -2.5770
11486TIP3    H255874   2.302   5.747   1.924 -1.2383 -2.0931 -0.8102
11487TIP3   OH255875   1.566   4.018   1.542 -0.2040  0.5259 -0.0222
11487TIP3    H155876   1.545   4.063   1.624 -1.1848  0.6359 -0.3264
11487TIP3    H255877   1.660   4.031   1.532  0.1951 -0.7713  1.8378
11488TIP3   OH255878   3.895   1.598  14.393 -0.2130 -0.5197  0.0490
11488TIP3    H155879   3.927   1.509  14.407  1.2304 -0.1794 -0.8848
11488TIP3    H255880   3.905   1.641  14.478  0.5300 -0.8305  0.1258
11489TIP3   OH255881   2.718   2.817   2.057  0.4429  0.1206 -0.2763
11489TIP3    H155882   2.807   2.812   2.023  0.5465  0.5878 -0.0832
11489TIP3    H255883   2.726   2.869   2.137  0.1488 -0.6799  0.2766
11490TIP3   OH255884   4.510   2.609   0.765  0.1010 -0.0046  0.0512
11490TIP3    H155885   4.598   2.645   0.753  0.9443 -1.2969  2.1023
11490TIP3    H255886   4.458   2.648   0.694  2.0555  1.6161 -0.5346
11491TIP3   OH255887   0.515   2.163   3.102  0.0235  0.4965 -0.5082
11491TIP3    H155888   0.512   2.252   3.136  0.8494 -0.1259  1.2168
11491TIP3    H255889   0.605   2.135   3.116  0.1210 -0.1580 -2.2798
11492TIP3   OH255890   5.680   0.156   0.978  0.4295 -0.4958 -0.3487
11492TIP3    H155891   5.720   0.097   1.042 -0.8486  0.4978  1.4117
11492TIP3    H255892   5.619   0.209   1.029 -1.4734 -0.4447 -2.5891
11493TIP3   OH255893   2.043   5.198  15.028 -0.1202  0.0477 -0.2131
11493TIP3    H155894   2.082   5.158  15.105  0.5760  0.1310 -0.5161
11493TIP3    H255895   1.980   5.134  14.995 -0.0510 -0.1918  0.1310
11494TIP3   OH255896   2.231   5.685   4.991  0.0304 -0.4131  0.5081
11494TIP3    H155897   2.323   5.684   5.020  0.2844  0.4415 -0.2382
11494TIP3    H255898   2.227   5.617   4.924  0.5263  0.6894 -0.6508
11495TIP3   OH255899   2.732   4.846   3.844  0.1797  0.0603 -0.8303
11495TIP3    H155900   2.664   4.829   3.910  0.8057 -0.0900 -0.2214
11495TIP3    H255901   2.741   4.941   3.844 -1.0435  0.1970 -1.9440
11496TIP3   OH255902   7.086   3.613   0.409 -0.4089  0.9215 -0.2190
11496TIP3    H155903   7.110   3.557   0.482  1.1054  1.7578 -0.0557
11496TIP3    H255904   7.040   3.555   0.348  1.8387 -0.6960 -0.4344
11497TIP3   OH255905   3.504   2.547   0.009 -0.6793  0.6297 -0.4017
11497TIP3    H155906   3.520   2.572   0.101  0.3979 -1.3676 -0.0303
11497TIP3    H255907   3.513   2.629  -0.039  0.0391  1.4797  1.1318
11498TIP3   OH255908   0.785   6.910  14.417  0.1935  0.0204 -0.2867
11498TIP3    H155909   0.708   6.870  14.456  1.1437 -0.7142  0.9060
11498TIP3    H255910   0.843   6.836  14.396  0.2954  0.5139 -1.7938
11499TIP3   OH255911   2.836   6.515   2.668 -0.1146 -0.3090  0.2759
11499TIP3    H155912   2.786   6.518   2.587  0.5907  0.2494 -0.1495
11499TIP3    H255913   2.912   6.461   2.648  1.4638  2.0224 -0.2719
11500TIP3   OH255914   0.869   3.734   4.479  0.1614 -0.5314  0.4898
11500TIP3    H155915   0.957   3.764   4.456 -0.3757  2.5097  2.1522
11500TIP3    H255916   0.883   3.652   4.527  1.9977 -0.7114 -0.3286
11501TIP3   OH255917   4.820   0.836  15.162  0.0642 -0.2363  0.1954
11501TIP3    H155918   4.877   0.816  15.087 -1.0694  0.7999 -0.9628
11501TIP3    H255919   4.767   0.758  15.173 -0.9511  0.2360 -1.1902
11502TIP3   OH255920   3.539   6.917   4.359 -0.1366 -0.3790  0.3030
11502TIP3    H155921   3.578   6.945   4.442 -1.9092 -0.2329  1.1225
11502TIP3    H255922   3.493   6.836   4.381 -0.6509 -0.3162 -0.5259
11503TIP3   OH255923   1.113   5.273  14.294  0.4244  0.0807 -1.0548
11503TIP3    H155924   1.205   5.289  14.313  0.3858  0.3309 -1.0676
11503TIP3    H255925   1.110   5.187  14.253  0.5043 -0.4894  0.1245
11504TIP3   OH255926   4.235   4.224  14.264 -0.6629 -0.2094  0.4128
11504TIP3    H155927   4.195   4.310  14.272 -1.2658 -0.4264 -0.1672
11504TIP3    H255928   4.168   4.171  14.221 -0.9518 -1.4054  2.2831
11505TIP3   OH255929   4.942   5.853   4.218 -0.5714 -0.3523 -0.1166
11505TIP3    H155930   4.860   5.836   4.265 -0.6018  0.2224  0.0414
11505TIP3    H255931   4.967   5.942   4.245  0.5881 -0.8670  0.5439
11506TIP3   OH255932   5.444   4.962   0.868 -0.0619  0.9144 -0.8724
11506TIP3    H155933   5.520   4.904   0.874 -1.1453 -0.5081 -0.6836
11506TIP3    H255934   5.468   5.039   0.920  0.9465  0.1312 -0.1610
11507TIP3   OH255935   5.843   4.171   2.972  0.4017 -0.4057 -0.2114
11507TIP3    H155936   5.791   4.248   2.996  0.6100 -0.8599  1.7526
11507TIP3    H255937   5.779   4.100   2.965  0.6914 -0.9183  1.9962
11508TIP3   OH255938   3.730   1.239   4.334 -0.5005 -0.2268  0.0107
11508TIP3    H155939   3.659   1.300   4.357 -1.4236 -1.7560  1.3424
11508TIP3    H255940   3.694   1.186   4.264 -1.2776 -2.0209  1.7185
11509TIP3   OH255941   3.127   5.108   2.053 -0.1389  0.3970  0.1974
11509TIP3    H155942   3.101   5.018   2.068  0.9721  0.3534  2.0548
11509TIP3    H255943   3.089   5.157   2.126  0.5759  1.1715  0.0631
11510TIP3   OH255944   6.594   4.735  14.755  0.2729  0.5416 -0.2548
11510TIP3    H155945   6.572   4.697  14.670  0.3414  1.6390 -0.7736
11510TIP3    H255946   6.634   4.663  14.804  0.0217 -0.1597 -1.0598
11511TIP3   OH255947   0.329   0.950  14.236 -0.6085  0.1457  0.1142
11511TIP3    H155948   0.399   0.887  14.252 -0.2029 -0.1677 -2.6288
11511TIP3    H255949   0.266   0.903  14.182 -0.6546  1.8374 -1.3395
11512TIP3   OH255950   3.356   6.111   2.716 -0.0870  0.0786 -0.7058
11512TIP3    H155951   3.309   6.049   2.771 -1.1523  0.7626 -0.8488
11512TIP3    H255952   3.314   6.106   2.631  0.1027  0.6771 -0.8422
11513TIP3   OH255953   6.306   0.887   1.453 -0.2207  0.1631  0.3047
11513TIP3    H155954   6.362   0.817   1.487 -2.0357 -1.5022 -0.0077
11513TIP3    H255955   6.237   0.897   1.518 -0.5451  0.9533 -0.1525
11514TIP3   OH255956   4.987   3.581   1.535 -0.4219 -0.5637 -0.2608
11514TIP3    H155957   5.076   3.592   1.503 -1.3235  0.4400 -2.5242
11514TIP3    H255958   4.984   3.631   1.617  0.7094  0.5597 -0.8907
11515TIP3   OH255959   3.707   0.583  12.957 -0.5795 -0.0520 -0.2089
11515TIP3    H155960   3.650   0.538  12.894 -0.6628  0.8781 -0.8142
11515TIP3    H255961   3.649   0.610  13.028 -0.4587 -1.2474  0.3534
11516TIP3   OH255962   0.830   3.938   0.113 -0.3581  0.5048  0.7506
11516TIP3    H155963   0.880   3.926   0.194  0.9960  0.9398 -0.0202
11516TIP3    H255964   0.884   3.995   0.059 -1.4260  0.5167 -0.3226
11517TIP3   OH255965   3.890   1.780   0.812 -0.0426  0.0940  0.1425
11517TIP3    H155966   3.938   1.858   0.838  2.1263 -1.0057 -0.4901
11517TIP3    H255967   3.916   1.713   0.875  0.5734 -0.9664 -1.2213
11518TIP3   OH255968   5.257   1.412  10.573 -0.2451  0.2005  1.0139
11518TIP3    H155969   5.263   1.337  10.513 -0.8611  0.1529  1.0113
11518TIP3    H255970   5.346   1.448  10.574 -0.0606 -0.2290  0.6275
11519TIP3   OH255971   5.589   3.994  14.325  0.0300 -0.2436  0.3844
11519TIP3    H155972   5.512   3.954  14.284  0.4128  1.0090 -1.6211
11519TIP3    H255973   5.647   3.920  14.345 -0.6289 -0.9712 -0.3644
11520TIP3   OH255974   4.792   5.645  15.215 -0.5715  0.1561  0.1934
11520TIP3    H155975   4.713   5.605  15.249 -0.0448  0.3437  1.7018
11520TIP3    H255976   4.818   5.708  15.283 -0.2059  1.4996 -1.1551
11521TIP3   OH255977   2.464   2.364   1.697  0.1723 -0.4128 -0.2729
11521TIP3    H155978   2.484   2.305   1.625  0.3718  0.5713 -1.0358
11521TIP3    H255979   2.415   2.310   1.760 -0.9194 -1.0202 -1.6207
11522TIP3   OH255980   4.240   0.051   0.754 -0.2598  0.6522  0.0706
11522TIP3    H155981   4.204   0.134   0.784 -0.3780  0.7094 -0.2268
11522TIP3    H255982   4.286   0.073   0.673 -2.6179 -0.0193 -1.5282
11523TIP3   OH255983   5.242   0.587   4.445 -1.0634  0.2512 -0.3484
11523TIP3    H155984   5.153   0.622   4.442 -0.5939  1.4575 -0.2294
11523TIP3    H255985   5.285   0.625   4.368 -0.3515  0.4763  0.1648
11524TIP3   OH255986   6.377   3.984  10.364  0.3748  1.0605  0.0920
11524TIP3    H155987   6.307   3.944  10.312  1.1681  1.2489 -1.1505
11524TIP3    H255988   6.445   3.916  10.368  0.0189  0.7745  1.5286
11525TIP3   OH255989   1.903   6.791  15.366 -0.1236  0.1992 -0.2987
11525TIP3    H155990   1.823   6.812  15.414  1.2180 -0.6039  2.4203
11525TIP3    H255991   1.902   6.696  15.360  0.0374  0.2638 -1.3269
11526TIP3   OH255992   4.651   1.253   1.544  0.0140  0.4900  0.3994
11526TIP3    H155993   4.726   1.216   1.497 -1.5423 -1.4981 -0.6500
11526TIP3    H255994   4.643   1.199   1.622  0.4348  1.5174  1.1586
11527TIP3   OH255995   4.666   1.265   2.476  0.6728 -0.3697 -0.2995
11527TIP3    H155996   4.580   1.304   2.495  0.8290 -1.2982  2.5041
11527TIP3    H255997   4.706   1.325   2.413 -1.3672  0.9504 -0.3779
11528TIP3   OH255998   5.403   3.216  14.137  0.1923 -0.8112  0.0523
11528TIP3    H155999   5.382   3.184  14.225  1.1080  0.0205  0.5892
11528TIP3    H256000   5.434   3.139  14.090 -0.1489 -1.2317  0.5049
11529TIP3   OH256001   5.034   4.086  14.626  0.0539  0.0534 -0.1017
11529TIP3    H156002   5.125   4.092  14.654  0.4373 -0.5216 -1.2103
11529TIP3    H256003   4.996   4.018  14.683  0.2366  0.5069  0.5597
11530TIP3   OH256004   3.329   5.377  15.139  0.1143 -0.1884  0.0455
11530TIP3    H156005   3.381   5.297  15.145  2.9068  1.5510  0.0448
11530TIP3    H256006   3.274   5.376  15.217  0.4292 -1.8842  0.2656
11531TIP3   OH256007   5.861   0.192   3.671 -0.3491 -0.3569  0.1548
11531TIP3    H156008   5.792   0.255   3.648 -1.4599 -1.0488  1.4800
11531TIP3    H256009   5.826   0.146   3.748  0.9093 -1.8351 -0.1388
11532TIP3   OH256010   1.176   6.954  14.498 -0.3835  0.3731  0.5180
11532TIP3    H156011   1.139   6.866  14.493  2.3138 -0.8825  1.9094
11532TIP3    H256012   1.220   6.966  14.414  0.4874 -0.1757  0.8963
11533TIP3   OH256013   4.979   3.470   2.807 -0.1083 -0.0145  0.0780
11533TIP3    H156014   4.914   3.400   2.812  1.3587 -1.4303 -0.1542
11533TIP3    H256015   5.039   3.442   2.738  1.8077  0.3259  1.5648
11534TIP3   OH256016   0.066   5.360   0.146 -0.3814  0.0209 -0.2087
11534TIP3    H156017   0.072   5.411   0.065 -0.5860 -1.0856 -0.9390
11534TIP3    H256018   0.150   5.373   0.190  0.0243 -0.0002 -0.9798
11535TIP3   OH256019   6.866   5.692  12.726 -0.1660 -0.6137  0.3167
11535TIP3    H156020   6.949   5.649  12.747 -0.1346  0.7159  3.0836
11535TIP3    H256021   6.876   5.781  12.758 -2.0222  0.0972 -0.9638
11536TIP3   OH256022   0.191   3.899   0.873  0.3022 -0.3346  0.3524
11536TIP3    H156023   0.149   3.858   0.948 -1.2932 -1.3170 -1.0617
11536TIP3    H256024   0.145   3.865   0.796  0.5344  2.2211 -0.9934
11537TIP3   OH256025   2.391   3.863   1.471  0.3321  0.6775 -0.0600
11537TIP3    H156026   2.399   3.884   1.563  0.0164  3.1032 -0.5533
11537TIP3    H256027   2.305   3.898   1.445 -0.3513 -1.4670 -0.9135
11538TIP3   OH256028   2.960   2.633  14.753  0.9123  0.5582 -0.6522
11538TIP3    H156029   2.883   2.689  14.762  0.5542 -0.1364  0.7595
11538TIP3    H256030   3.014   2.653  14.829 -0.7454 -3.2533  1.6920
11539TIP3   OH256031   4.391   0.082  14.916 -0.4041  0.0961 -0.2902
11539TIP3    H156032   4.346   0.082  15.000  0.9654  2.4315  0.4740
11539TIP3    H256033   4.483   0.093  14.937 -0.0651  0.9527 -2.0913
11540TIP3   OH256034   4.598   3.355   1.630  0.4231  0.0817  0.3066
11540TIP3    H156035   4.669   3.351   1.694  1.5326  0.1971 -0.8963
11540TIP3    H256036   4.609   3.440   1.587 -0.4448  0.0967  0.1093
11541TIP3   OH256037   0.012   4.335  13.821  0.2537 -0.0687 -0.8288
11541TIP3    H156038   0.013   4.364  13.730  2.0937  1.0885 -0.4699
11541TIP3    H256039  -0.071   4.287  13.830 -1.5486  2.6060 -2.2286
11542TIP3   OH256040   4.563   0.678  15.511  0.8156 -0.0902 -0.3563
11542TIP3    H156041   4.595   0.768  15.516  0.4226  0.0701 -0.7158
11542TIP3    H256042   4.503   0.678  15.436  0.7789 -0.6375 -0.3259
11543TIP3   OH256043   2.768   5.806   1.622  0.1488  0.4847  0.2834
11543TIP3    H156044   2.839   5.863   1.652 -0.3926  0.3042  1.9417
11543TIP3    H256045   2.716   5.862   1.564 -0.5760  1.8050  2.1673
11544TIP3   OH256046   1.232   3.797   1.759 -0.0325 -0.2177 -0.1916
11544TIP3    H156047   1.235   3.848   1.679  0.9059 -1.9537 -1.2841
11544TIP3    H256048   1.173   3.846   1.817 -0.1205  1.4239 -1.6560
11545TIP3   OH256049   2.397   3.265   2.410 -0.0039  0.6615 -0.1688
11545TIP3    H156050   2.332   3.251   2.478  1.6566 -0.0159  1.3210
11545TIP3    H256051   2.475   3.219   2.441  1.7702  2.9501 -1.0246
11546TIP3   OH256052   2.460   2.975   2.241 -0.0839  0.0086  0.5756
11546TIP3    H156053   2.379   3.022   2.225 -0.3631 -0.7495 -0.3383
11546TIP3    H256054   2.473   2.923   2.162  0.7327 -0.6812  1.1503
11547TIP3   OH256055   1.353   3.567   3.318  0.4481 -0.0817 -0.1678
11547TIP3    H156056   1.320   3.514   3.246 -0.0385 -0.8253  0.5976
11547TIP3    H256057   1.427   3.517   3.354 -1.2924 -1.2534  1.8629
11548TIP3   OH256058   3.833   3.374   4.168  0.8088 -0.1934  0.2383
11548TIP3    H156059   3.817   3.455   4.120  1.5749  0.3217  0.8447
11548TIP3    H256060   3.875   3.402   4.249 -0.3758 -1.0658  1.1674
11549TIP3   OH256061   3.335   4.413   0.963  0.0817  0.0075 -0.3097
11549TIP3    H156062   3.332   4.358   0.885  1.3081  0.7383 -0.8768
11549TIP3    H256063   3.248   4.453   0.967  0.0889  0.1366 -1.4093
11550TIP3   OH256064   6.731   4.092   5.959  0.1455 -0.0669 -0.3943
11550TIP3    H156065   6.748   4.023   6.023  0.3190 -0.9250 -1.3478
11550TIP3    H256066   6.775   4.169   5.994 -0.2931 -0.3555  0.8270
11551TIP3   OH256067   6.588   1.997  15.451 -0.3050 -0.0991 -0.1274
11551TIP3    H156068   6.640   1.966  15.376 -1.3123 -0.9249 -0.5054
11551TIP3    H256069   6.644   2.061  15.494  1.4993 -1.7947  0.1479
11552TIP3   OH256070   3.790   1.402  14.245 -0.3866  0.3425  0.0006
11552TIP3    H156071   3.843   1.481  14.261  0.4482 -0.0822 -0.6276
11552TIP3    H256072   3.711   1.416  14.296  0.1576  1.1780  0.6351
11553TIP3   OH256073   5.875   5.675   1.008 -0.1813 -0.7202 -0.9132
11553TIP3    H156074   5.955   5.727   1.005 -0.0931 -0.7979 -0.1369
11553TIP3    H256075   5.804   5.740   1.003 -0.0693 -0.5727 -0.5980
11554TIP3   OH256076   4.584   5.467   1.858  0.0414 -0.1724  0.2061
11554TIP3    H156077   4.560   5.466   1.950  0.9163 -0.7691  0.4363
11554TIP3    H256078   4.597   5.375   1.835 -1.7699 -0.1629 -0.9522
11555TIP3   OH256079   2.004   2.040   0.582  0.0977 -0.5699  0.1231
11555TIP3    H156080   1.936   2.090   0.536  0.1973 -0.9748 -0.4683
11555TIP3    H256081   2.086   2.083   0.555  0.0473  0.2530  1.2518
11556TIP3   OH256082   5.581   4.508   0.766  0.3742  0.5066 -0.1788
11556TIP3    H156083   5.519   4.473   0.703  1.3846 -0.9053 -0.3986
11556TIP3    H256084   5.596   4.437   0.828  0.2305  1.5161  1.0311
11557TIP3   OH256085   5.817   3.462   4.513 -0.5714 -0.2806 -0.2206
11557TIP3    H156086   5.890   3.443   4.572  0.3195  0.8326 -0.9425
11557TIP3    H256087   5.783   3.547   4.542 -1.2698 -0.5688 -0.1871
11558TIP3   OH256088   6.338   3.887   3.403  0.2334  0.1329  0.0397
11558TIP3    H156089   6.363   3.872   3.495 -0.7872 -0.3211  0.2603
11558TIP3    H256090   6.308   3.801   3.373  0.3812  0.3273 -0.6692
11559TIP3   OH256091   6.626   3.365  11.775  0.4596 -0.5509 -0.0156
11559TIP3    H156092   6.663   3.429  11.714  0.1895 -2.1109 -1.8523
11559TIP3    H256093   6.681   3.288  11.766  0.8322 -0.6064  2.2550
11560TIP3   OH256094   4.319   2.126  12.757  0.4610  0.2450  0.4815
11560TIP3    H156095   4.241   2.071  12.755  0.6497 -0.0575  1.0824
11560TIP3    H256096   4.291   2.210  12.721  0.0333 -0.0763  0.0610
11561TIP3   OH256097   2.819   3.533   1.255 -0.5672  0.3497 -0.3802
11561TIP3    H156098   2.799   3.543   1.162 -2.0671 -0.7906 -0.1950
11561TIP3    H256099   2.735   3.511   1.296  0.3753 -0.7982  0.9936
11562TIP3   OH256100   6.907   2.114  13.580  0.2689 -0.1363  0.0905
11562TIP3    H156101   6.834   2.142  13.525 -0.6909  1.6788  2.2098
11562TIP3    H256102   6.865   2.070  13.654  1.1157  2.8931  2.4623
11563TIP3   OH256103   3.309   2.219   3.764 -0.1477 -0.1249  0.8127
11563TIP3    H156104   3.301   2.300   3.712  1.0038 -0.6328 -0.1743
11563TIP3    H256105   3.256   2.155   3.717  0.9343 -0.5993  0.2187
11564TIP3   OH256106   2.789   3.534   3.065  0.3116  0.6773  0.1406
11564TIP3    H156107   2.749   3.523   3.151  0.4530  0.8245  0.2260
11564TIP3    H256108   2.862   3.594   3.080  0.0640  1.0588 -0.1579
11565TIP3   OH256109   3.608   3.583  14.603 -0.6439 -0.7576 -0.3869
11565TIP3    H156110   3.565   3.575  14.518  0.0923 -0.0553 -0.8399
11565TIP3    H256111   3.639   3.674  14.605  0.8512 -1.2575 -0.0989
11566TIP3   OH256112   5.554   5.604  15.475  0.2650  0.0268 -0.2600
11566TIP3    H156113   5.607   5.683  15.468  0.3616 -0.0841 -0.8254
11566TIP3    H256114   5.478   5.631  15.527  0.0293  0.6342 -0.9077
11567TIP3   OH256115   0.612   4.774   3.887 -0.6401  0.0209 -0.2489
11567TIP3    H156116   0.663   4.814   3.816  0.9478  0.3932  1.0683
11567TIP3    H256117   0.536   4.832   3.898 -0.3428  0.5444 -0.9315
11568TIP3   OH256118   2.130   1.346   1.105 -0.2669 -0.8235 -0.2800
11568TIP3    H156119   2.092   1.327   1.020 -1.1654 -0.8970  0.1376
11568TIP3    H256120   2.090   1.429   1.131  0.1652 -0.6916 -0.0264
11569TIP3   OH256121   6.314   0.276  12.821  0.6317 -0.4592  0.2194
11569TIP3    H156122   6.247   0.210  12.839 -1.8348  1.7457 -0.5413
11569TIP3    H256123   6.314   0.284  12.725 -0.8868  2.3402  0.4017
11570TIP3   OH256124   2.570   1.529  15.376  0.0749 -0.2027  0.2607
11570TIP3    H156125   2.528   1.577  15.447  0.4850 -0.6764  0.8209
11570TIP3    H256126   2.513   1.453  15.362  0.5613 -0.6662  0.7932
11571TIP3   OH256127   5.861   3.072  14.608 -0.3157  0.1537  0.5584
11571TIP3    H156128   5.868   3.069  14.512  3.0260  0.7481  0.7063
11571TIP3    H256129   5.949   3.048  14.638 -1.3819 -0.2164  3.4981
11572TIP3   OH256130   1.222   4.860   2.760 -0.0843 -0.4345  0.0975
11572TIP3    H156131   1.204   4.818   2.676  0.4784  0.7333 -0.6229
11572TIP3    H256132   1.316   4.876   2.759 -0.1585  0.0698  0.7258
11573TIP3   OH256133   4.462   7.073   0.892  0.3767  0.3541  0.4838
11573TIP3    H156134   4.509   7.019   0.829 -0.0147  0.2721  0.2618
11573TIP3    H256135   4.380   7.096   0.848 -0.4414 -0.7245  1.4400
11574TIP3   OH256136   3.156   6.464   1.281 -0.5976  0.3386 -0.0331
11574TIP3    H156137   3.222   6.418   1.334 -0.9553 -0.0717  0.0583
11574TIP3    H256138   3.112   6.522   1.342 -2.1478 -1.3500  0.4986
11575TIP3   OH256139   6.130   1.613  14.283 -0.0947  0.0663 -0.1410
11575TIP3    H156140   6.120   1.576  14.371  1.7942 -0.8044 -0.2571
11575TIP3    H256141   6.201   1.561  14.244  0.6357  1.9462 -1.3582
11576TIP3   OH256142   4.953   1.999   0.805 -0.0778  0.0234  0.3586
11576TIP3    H156143   4.917   1.956   0.727  0.9533  1.5565 -0.9862
11576TIP3    H256144   4.955   1.930   0.871 -2.3706 -0.9409 -0.4976
11577TIP3   OH256145   0.804   2.517   2.285  0.4093  0.5872  0.3813
11577TIP3    H156146   0.862   2.545   2.356 -2.9382  0.3182  3.3724
11577TIP3    H256147   0.749   2.594   2.268 -1.3263 -0.5352  0.7674
11578TIP3   OH256148   2.539   4.209   3.135 -0.0197  0.1792  0.1852
11578TIP3    H156149   2.619   4.260   3.150 -0.8326  0.8603  2.3211
11578TIP3    H256150   2.472   4.275   3.119 -0.5261 -0.3258  0.2318
11579TIP3   OH256151   0.852   1.203   0.023 -0.7583 -0.2583  0.1420
11579TIP3    H156152   0.885   1.176   0.109 -0.8122  1.4076  0.6860
11579TIP3    H256153   0.759   1.183   0.026 -0.7331 -0.3385  0.4127
11580TIP3   OH256154   0.780   4.930  14.377  0.0541  0.2378 -0.7854
11580TIP3    H156155   0.786   5.013  14.330  0.9148  0.6854  0.0910
11580TIP3    H256156   0.698   4.890  14.347  0.6894  0.4260 -2.7750
11581TIP3   OH256157   4.349   3.124  13.471  0.4058 -0.3901  0.1454
11581TIP3    H156158   4.330   3.038  13.509  0.2642  0.1806  1.4064
11581TIP3    H256159   4.356   3.182  13.547 -1.5844  1.1206 -0.7740
11582TIP3   OH256160   3.518   6.257  12.729  0.1318  0.4114 -0.3866
11582TIP3    H156161   3.582   6.324  12.704  2.0198 -1.8402 -1.8198
11582TIP3    H256162   3.542   6.233  12.819 -0.1373  1.1533 -0.1090
11583TIP3   OH256163   0.423   1.802   2.201 -0.3873 -0.4821 -0.0444
11583TIP3    H156164   0.383   1.741   2.140  2.1427 -1.3834 -0.8560
11583TIP3    H256165   0.352   1.828   2.259 -2.0943 -2.1150 -1.3612
11584TIP3   OH256166   0.624   6.830   1.785 -0.1446 -0.0187  0.1982
11584TIP3    H156167   0.715   6.810   1.808  0.2348  1.5627  0.1138
11584TIP3    H256168   0.581   6.847   1.869  0.2133  1.5389  0.0808
11585TIP3   OH256169   3.652   4.382  13.548 -0.2536  0.2819 -1.0333
11585TIP3    H156170   3.592   4.325  13.596 -0.1188  2.2382  1.5368
11585TIP3    H256171   3.594   4.434  13.491 -0.7452  0.4009 -0.4285
11586TIP3   OH256172   3.730   4.108  15.279 -0.3136 -0.1147 -0.2908
11586TIP3    H156173   3.790   4.052  15.328 -0.8057 -0.3622  0.0383
11586TIP3    H256174   3.699   4.172  15.344 -0.9621 -0.4413 -0.2765
11587TIP3   OH256175   4.772   5.908  15.393  0.3060 -0.5052 -0.3288
11587TIP3    H156176   4.752   5.849  15.466  0.4392 -0.6163 -0.3803
11587TIP3    H256177   4.688   5.948  15.371  0.2191 -0.6556 -0.2733
11588TIP3   OH256178   3.648   0.928  13.069 -0.0389  0.0823 -0.1150
11588TIP3    H156179   3.709   0.928  13.143 -0.6886  0.2089  0.4245
11588TIP3    H256180   3.697   0.889  12.998  0.2995 -0.8520  0.6279
11589TIP3   OH256181   0.313   1.953  14.763 -0.2595 -0.4305  0.3613
11589TIP3    H156182   0.299   2.038  14.721 -1.5515 -0.8743 -0.1258
11589TIP3    H256183   0.276   1.963  14.851  0.9419 -0.0228  0.8227
11590TIP3   OH256184   2.291   1.508   2.903 -0.4583 -0.6871  0.2658
11590TIP3    H156185   2.371   1.456   2.912  0.7409  0.8766 -1.1081
11590TIP3    H256186   2.265   1.528   2.993  1.1344 -0.5434  0.7121
11591TIP3   OH256187   5.846   3.010  15.348  0.4396  0.3704  0.0733
11591TIP3    H156188   5.884   2.936  15.394 -2.0233 -1.6063 -0.9124
11591TIP3    H256189   5.752   2.990  15.345 -0.2869  3.5341 -0.2308
11592TIP3   OH256190   4.592   6.813  10.793 -0.3667 -0.4072  0.2216
11592TIP3    H156191   4.518   6.784  10.846 -0.3685  2.2420  1.7808
11592TIP3    H256192   4.669   6.798  10.849 -0.1927  0.7756  0.3208
11593TIP3   OH256193   5.688   5.475   1.989 -0.3035  0.0107 -0.2322
11593TIP3    H156194   5.595   5.457   1.981 -0.4435  1.1212 -1.2297
11593TIP3    H256195   5.728   5.431   1.913 -0.1692  0.5586 -0.4807
11594TIP3   OH256196   1.235   4.559   3.102  0.0803 -0.1406  0.3231
11594TIP3    H156197   1.160   4.583   3.046  1.0195 -0.8822 -1.2757
11594TIP3    H256198   1.298   4.630   3.089 -0.8823  1.2433  2.7982
11595TIP3   OH256199   6.159   1.781   1.143 -0.3546 -0.1466  0.4360
11595TIP3    H156200   6.087   1.718   1.136  0.6045 -1.2672  0.5061
11595TIP3    H256201   6.202   1.777   1.057 -0.3428  0.4956  0.4082
11596TIP3   OH256202   4.769   0.915   3.464  0.0086 -0.6689 -0.0871
11596TIP3    H156203   4.758   0.832   3.510  0.9177 -0.8985 -0.2712
11596TIP3    H256204   4.814   0.972   3.526 -2.5571  0.4137  0.8287
11597TIP3   OH256205   6.179   0.272  12.540  0.2538  0.4396  0.1787
11597TIP3    H156206   6.090   0.287  12.570  1.2612  0.4592  3.3721
11597TIP3    H256207   6.192   0.177  12.548  0.6797  0.5048  0.3208
11598TIP3   OH256208   3.509   3.354   1.153 -0.4231 -0.4502  0.2166
11598TIP3    H156209   3.449   3.359   1.228 -1.1351  0.9002 -0.4220
11598TIP3    H256210   3.596   3.368   1.192 -0.6882 -0.7326  0.9232
11599TIP3   OH256211   1.614   7.067   3.548 -0.4128  0.6910  1.1833
11599TIP3    H156212   1.521   7.088   3.538 -0.6593  0.2850  2.6125
11599TIP3    H256213   1.657   7.122   3.483 -1.4350  2.5694  2.0783
11600TIP3   OH256214   3.300   3.303   1.759 -0.2118 -0.1521  0.4087
11600TIP3    H156215   3.205   3.294   1.771 -0.1842 -0.0403  0.6972
11600TIP3    H256216   3.332   3.336   1.842 -0.0485  0.7659 -0.0120
11601TIP3   OH256217   0.342   3.141   6.176  0.3704  0.2752  0.0367
11601TIP3    H156218   0.306   3.072   6.232 -1.9053  1.5280  0.2138
11601TIP3    H256219   0.297   3.129   6.092  1.0639  0.6302 -0.3861
11602TIP3   OH256220   1.250   4.755  13.092  0.6595  0.0757  0.1113
11602TIP3    H156221   1.222   4.666  13.111 -0.5549  0.5851  0.8171
11602TIP3    H256222   1.320   4.773  13.154  0.2900 -0.0871  0.5801
11603TIP3   OH256223   4.607   2.996   2.693 -0.1323 -0.6812  0.0601
11603TIP3    H156224   4.553   2.958   2.623  0.1849 -0.2474 -0.4197
11603TIP3    H256225   4.572   3.084   2.706  1.7146  0.3429 -1.6377
11604TIP3   OH256226   5.913   5.028  13.727  0.2672 -0.2541  0.4709
11604TIP3    H156227   5.993   5.036  13.779  1.4857  2.0876 -1.6979
11604TIP3    H256228   5.939   4.975  13.651 -0.3632  0.1703 -0.0433
11605TIP3   OH256229   1.874   5.268   1.299 -0.5705 -0.5079  0.0262
11605TIP3    H156230   1.933   5.313   1.239 -1.8571  0.8978 -0.1944
11605TIP3    H256231   1.822   5.211   1.243  0.6008 -1.8023  0.2292
11606TIP3   OH256232   3.076   6.643   3.458  0.2893 -0.2716  0.3166
11606TIP3    H156233   3.117   6.560   3.433  1.7287  0.1571  1.2000
11606TIP3    H256234   2.987   6.618   3.484  1.7815 -2.1743  4.1083
11607TIP3   OH256235   3.366   5.082   1.821  0.3172 -0.0565  0.0423
11607TIP3    H156236   3.379   5.152   1.885  0.9926  0.0116 -0.1638
11607TIP3    H256237   3.275   5.090   1.794  0.9018  2.0002 -1.4363
11608TIP3   OH256238   1.178   1.108   3.872  0.1066 -0.6545  0.4698
11608TIP3    H156239   1.105   1.134   3.816  0.0234 -0.5900  0.6071
11608TIP3    H256240   1.251   1.163   3.843 -0.7441  1.6677  2.5095
11609TIP3   OH256241   3.574   1.586   0.663 -0.3270  0.0901 -0.2951
11609TIP3    H156242   3.594   1.582   0.570  0.6734 -0.6821 -0.0528
11609TIP3    H256243   3.599   1.675   0.689  2.2644 -0.6166 -0.1519
11610TIP3   OH256244   5.196   1.326   0.618  0.1428  0.1425 -0.5276
11610TIP3    H156245   5.164   1.349   0.705 -1.0289  0.9412 -1.1718
11610TIP3    H256246   5.291   1.321   0.629  0.1352  1.7349  0.4463
11611TIP3   OH256247   1.639   2.483   0.912 -0.6804 -0.2131 -0.1371
11611TIP3    H156248   1.728   2.449   0.905 -0.2194  1.0196 -0.2901
11611TIP3    H256249   1.616   2.508   0.822 -1.0100 -0.0646 -0.0129
11612TIP3   OH256250   3.292   0.128   5.284  0.0250  0.0160  0.2757
11612TIP3    H156251   3.342   0.185   5.343 -0.2749  0.8151 -0.2304
11612TIP3    H256252   3.320   0.155   5.196  2.3311 -2.8450  0.0549
11613TIP3   OH256253   3.488   6.542   1.005 -0.0854 -0.3672  0.1471
11613TIP3    H156254   3.563   6.506   1.053  0.0663 -0.2575 -0.0063
11613TIP3    H256255   3.527   6.593   0.934 -0.3098 -0.6026 -0.1470
11614TIP3   OH256256   0.945   1.387   3.644 -0.2063 -0.0787  0.2510
11614TIP3    H156257   0.865   1.382   3.591 -0.3629 -0.0377  0.4829
11614TIP3    H256258   0.962   1.481   3.652 -0.2767 -0.0803  0.4153
11615TIP3   OH256259   5.091   4.565   2.196  0.1693 -0.8082  0.6974
11615TIP3    H156260   5.118   4.609   2.276  0.0605 -0.0279  0.3081
11615TIP3    H256261   5.169   4.565   2.141  0.3920 -1.8148  1.0105
11616TIP3   OH256262   2.362   1.963   2.325 -0.4019  0.3644 -0.1660
11616TIP3    H156263   2.336   2.047   2.364  0.8350  0.9858 -0.6701
11616TIP3    H256264   2.279   1.917   2.313 -1.0395  1.2290  0.7634
11617TIP3   OH256265   2.605   2.974   4.380 -0.0472  0.4948  0.2912
11617TIP3    H156266   2.509   2.981   4.382  0.0714  2.4026 -0.4027
11617TIP3    H256267   2.630   2.965   4.472 -0.9134 -0.4619  0.4469
11618TIP3   OH256268   3.369   6.248  14.021 -0.3698  0.2806  0.4839
11618TIP3    H156269   3.434   6.290  13.965 -0.1793 -1.4158 -0.5854
11618TIP3    H256270   3.309   6.319  14.044  1.4810  1.7436  0.9778
11619TIP3   OH256271   5.137   1.973   0.363 -0.3880 -0.1315 -0.1784
11619TIP3    H156272   5.230   1.986   0.348 -0.6571  0.7339 -1.1957
11619TIP3    H256273   5.101   1.957   0.275 -1.4724  1.4685 -0.0540
11620TIP3   OH256274   2.050   4.309   3.334 -0.2508  0.0023 -0.3154
11620TIP3    H156275   1.962   4.277   3.349 -0.0160 -0.6426 -0.3018
11620TIP3    H256276   2.082   4.334   3.420  0.3368 -1.7328 -0.0127
11621TIP3   OH256277   5.110   4.967   1.103 -0.6588  0.2766 -0.6639
11621TIP3    H156278   5.126   4.904   1.032 -0.0697 -0.3360  0.0117
11621TIP3    H256279   5.169   4.940   1.173 -0.2955  1.6753 -0.4213
11622TIP3   OH256280   3.920   5.272  15.507  0.3688 -0.1330 -0.4147
11622TIP3    H156281   3.826   5.276  15.522  0.5237 -2.2747  1.3653
11622TIP3    H256282   3.929   5.228  15.422 -0.2306  1.6311 -1.4312
11623TIP3   OH256283   4.546   1.350  14.722 -0.2431 -0.7267 -0.2259
11623TIP3    H156284   4.597   1.388  14.794 -0.0140 -0.4716 -0.5235
11623TIP3    H256285   4.479   1.298  14.766  0.0871 -0.8216  0.1699
11624TIP3   OH256286   4.809   2.879   1.201  0.0568 -0.7993  0.2281
11624TIP3    H156287   4.878   2.814   1.184  0.5311 -0.2880  0.1941
11624TIP3    H256288   4.728   2.829   1.192  0.4246 -1.4972  0.6404
11625TIP3   OH256289   6.973   4.655   4.345  0.5123  0.4800 -0.0677
11625TIP3    H156290   7.050   4.599   4.356  0.7148  0.8953  0.6227
11625TIP3    H256291   6.902   4.594   4.323  1.0542  0.1084 -0.7976
11626TIP3   OH256292   1.609   2.464   3.575 -0.0803 -0.4881 -0.2792
11626TIP3    H156293   1.699   2.447   3.599 -1.0000 -2.5617  1.9025
11626TIP3    H256294   1.574   2.379   3.549 -1.8067  0.0145  0.2879
11627TIP3   OH256295   7.036   2.066  15.136 -0.1051 -0.1817 -0.7139
11627TIP3    H156296   7.007   2.108  15.055 -1.6925 -2.1562 -1.2102
11627TIP3    H256297   7.110   2.012  15.110 -0.9078 -1.1813 -0.9700
11628TIP3   OH256298   4.727   4.736  11.893 -0.4703  0.5022 -0.3950
11628TIP3    H156299   4.705   4.694  11.976  1.4368  0.2695  0.0110
11628TIP3    H256300   4.645   4.777  11.865 -1.6400 -1.1208  0.5839
11629TIP3   OH256301   2.069   1.242  14.620  0.2065  0.1158  0.0415
11629TIP3    H156302   2.130   1.192  14.675  1.5280  0.1067 -1.3791
11629TIP3    H256303   1.998   1.266  14.679  0.5401 -1.6991  1.2550
11630TIP3   OH256304   5.465   1.409   2.341 -0.3791  0.0071 -0.0051
11630TIP3    H156305   5.427   1.494   2.363  0.2680  1.1770 -3.1624
11630TIP3    H256306   5.393   1.347   2.349 -0.8747  0.8212  2.2658
11631TIP3   OH256307   2.648   1.467  14.033  0.6942 -0.4874  0.2359
11631TIP3    H156308   2.591   1.474  13.956  0.8498 -2.4176 -0.0803
11631TIP3    H256309   2.626   1.382  14.071  2.3433 -0.6024  0.9472
11632TIP3   OH256310   3.276   1.286   3.336  0.0227  0.3833  0.0835
11632TIP3    H156311   3.304   1.249   3.419  1.8201 -1.0120 -1.0975
11632TIP3    H256312   3.244   1.374   3.357 -2.5954 -1.1391  2.6904
11633TIP3   OH256313   4.376   1.224   0.914  0.4195  0.5763 -0.0747
11633TIP3    H156314   4.348   1.251   0.826 -0.2527  1.5393  0.4280
11633TIP3    H256315   4.416   1.303   0.951  1.2219  0.0072  0.2810
11634TIP3   OH256316   3.524   1.858   0.279  0.4465 -0.6321 -0.2353
11634TIP3    H156317   3.434   1.844   0.251  0.8395  0.6342 -2.2441
11634TIP3    H256318   3.521   1.937   0.333  0.2987 -0.8463  0.0729
11635TIP3   OH256319   6.682   0.396   1.529 -0.3238  0.4102  0.5729
11635TIP3    H156320   6.612   0.381   1.593 -2.4692  1.0282 -1.5620
11635TIP3    H256321   6.729   0.472   1.563 -0.5816 -0.1031  2.1190
11636TIP3   OH256322   5.780   3.587   1.136  0.5910 -0.9432  0.0689
11636TIP3    H156323   5.815   3.518   1.192 -0.1525  1.5671  3.8187
11636TIP3    H256324   5.690   3.559   1.117  1.2376 -2.3962 -0.9711
11637TIP3   OH256325   3.711   3.699   2.443 -0.3526  0.5819 -0.0043
11637TIP3    H156326   3.772   3.668   2.377 -1.1245  0.2947 -0.5974
11637TIP3    H256327   3.742   3.787   2.465  1.9799 -0.6475  1.8492
11638TIP3   OH256328   1.444   4.482   2.278  0.3662 -0.0746  0.2574
11638TIP3    H156329   1.349   4.494   2.277  0.4044  0.3089 -2.5466
11638TIP3    H256330   1.467   4.462   2.188  2.7846 -1.7408  1.1815
11639TIP3   OH256331   2.098   3.114   3.321  0.1583  0.3477  0.0839
11639TIP3    H156332   2.173   3.056   3.333 -0.9771 -3.0878 -6.7901
11639TIP3    H256333   2.132   3.187   3.268 -0.7303  0.2471 -0.6395
11640TIP3   OH256334   3.433   3.633   1.442  0.2735  0.3653 -0.4648
11640TIP3    H156335   3.360   3.686   1.472 -1.5074 -1.7368 -0.9425
11640TIP3    H256336   3.453   3.668   1.355 -2.8284 -1.5360 -2.0429
11641TIP3   OH256337   4.868   6.552  15.125 -0.3100  0.0715  0.0256
11641TIP3    H156338   4.818   6.499  15.063 -1.0262 -0.7655  1.3067
11641TIP3    H256339   4.934   6.492  15.160 -0.9162  0.1136  1.2436
11642TIP3   OH256340   4.338   0.476   1.886 -0.4493  0.1897 -0.2433
11642TIP3    H156341   4.327   0.417   1.961  0.1616  0.7720  0.3087
11642TIP3    H256342   4.388   0.424   1.822  1.4045  0.6083  0.8399
11643TIP3   OH256343   3.682   3.493   4.422  0.3569  0.2709 -0.0474
11643TIP3    H156344   3.674   3.584   4.391  1.4664 -0.0520 -1.3452
11643TIP3    H256345   3.775   3.484   4.442  0.5190 -0.9952 -1.2953
11644TIP3   OH256346   5.445   6.851   3.116  0.2552 -0.3616 -0.4972
11644TIP3    H156347   5.434   6.898   3.199  2.2467  0.5873 -0.7408
11644TIP3    H256348   5.473   6.764   3.142 -0.4554 -0.4883 -0.1369
11645TIP3   OH256349   5.922   6.942   2.239 -0.4066 -0.4982  0.2356
11645TIP3    H156350   5.911   6.863   2.293 -3.1534  0.2309  0.8083
11645TIP3    H256351   5.942   7.011   2.303  0.3419 -0.4090 -0.0965
11646TIP3   OH256352   6.770   1.399   2.827  0.2799 -0.3978  0.0290
11646TIP3    H156353   6.686   1.428   2.790  1.3182  2.6423 -0.0842
11646TIP3    H256354   6.821   1.369   2.752 -0.0166 -0.4562 -0.1486
11647TIP3   OH256355   2.172   4.340   2.133 -0.4428 -0.2637 -0.0883
11647TIP3    H156356   2.244   4.372   2.187 -0.3170  0.5747 -0.7439
11647TIP3    H256357   2.093   4.357   2.185 -0.3114  0.4308 -0.1115
11648TIP3   OH256358   5.687   2.920   3.917 -0.2878 -0.6932 -0.5851
11648TIP3    H156359   5.749   2.977   3.873 -2.4167  1.0247 -1.4706
11648TIP3    H256360   5.727   2.833   3.914  1.4352  0.1360 -2.3055
11649TIP3   OH256361   6.405   5.514   1.217 -0.3300 -0.2449  0.4407
11649TIP3    H156362   6.447   5.430   1.237 -1.1266 -0.5437  0.8484
11649TIP3    H256363   6.472   5.579   1.238  0.8653 -0.8444 -1.4085
11650TIP3   OH256364   5.783   6.314   0.485  0.3289 -0.3592 -0.1866
11650TIP3    H156365   5.759   6.395   0.440  0.5701  0.3140  0.8606
11650TIP3    H256366   5.700   6.276   0.512  0.1933 -0.6797 -1.0504
11651TIP3   OH256367   0.697   6.479  15.020  0.5263  0.5437 -0.1257
11651TIP3    H156368   0.790   6.488  15.044  0.6657  0.5778 -0.6657
11651TIP3    H256369   0.665   6.569  15.016  1.0317  0.6589 -2.0892
11652TIP3   OH256370   2.496   6.492   0.250 -0.6469  0.1288 -0.0318
11652TIP3    H156371   2.449   6.490   0.167 -2.4401  0.2547  0.9671
11652TIP3    H256372   2.468   6.413   0.295  0.1837  0.1545  0.5454
11653TIP3   OH256373   4.354   4.739   1.074 -1.0330 -0.4114  0.0402
11653TIP3    H156374   4.363   4.792   1.153 -1.1952 -2.3977  1.4428
11653TIP3    H256375   4.428   4.678   1.078 -0.6628 -0.1082 -1.7059
11654TIP3   OH256376   3.384   3.132   2.460 -0.1412  0.2346  0.2106
11654TIP3    H156377   3.395   3.135   2.555 -1.5944  1.2188  0.3539
11654TIP3    H256378   3.346   3.046   2.444  1.6451 -0.6110  0.3304
11655TIP3   OH256379   1.672   3.006  12.220 -0.2798  0.0437  0.1875
11655TIP3    H156380   1.615   2.942  12.262 -1.2869  0.8596  0.0632
11655TIP3    H256381   1.619   3.086  12.213 -0.0894  0.0047 -2.4072
11656TIP3   OH256382   1.235   3.552   2.397  0.1995  0.0082  0.3796
11656TIP3    H156383   1.194   3.478   2.442  0.7197  0.2570  1.2727
11656TIP3    H256384   1.161   3.607   2.369 -0.1530 -0.4419  0.4146
11657TIP3   OH256385   1.857   7.069  12.751 -0.2474 -0.5437  0.0724
11657TIP3    H156386   1.908   7.149  12.744 -1.4330  0.2720  0.6860
11657TIP3    H256387   1.817   7.059  12.664  0.8177 -1.1083 -0.3656
11658TIP3   OH256388   1.522   0.089  13.278  0.2391 -0.1004  0.0562
11658TIP3    H156389   1.595   0.030  13.300 -1.1326 -2.2107 -0.9180
11658TIP3    H256390   1.540   0.116  13.188  0.9086  1.0610  0.5292
11659TIP3   OH256391   2.305   0.431   4.204  0.4980 -0.0737  0.2469
11659TIP3    H156392   2.364   0.390   4.141  1.1369  0.8236  0.2481
11659TIP3    H256393   2.302   0.523   4.177 -1.2699 -0.2024 -0.0351
11660TIP3   OH256394   6.509   2.130  14.158 -0.0597  0.3114  0.1522
11660TIP3    H156395   6.525   2.038  14.136  0.5962  0.1219  1.3578
11660TIP3    H256396   6.459   2.127  14.240 -0.1626  1.0191  0.1196
11661TIP3   OH256397   5.895   2.727   2.519 -0.4600 -0.1305  0.4945
11661TIP3    H156398   5.843   2.802   2.491  0.4352  1.0429  1.8558
11661TIP3    H256399   5.832   2.656   2.531 -1.5967  0.9454  1.0345
11662TIP3   OH256400   6.611   2.342  13.313  0.5706 -0.0072  0.2293
11662TIP3    H156401   6.672   2.398  13.360  1.1851 -0.6736  0.2445
11662TIP3    H256402   6.619   2.257  13.357  0.1965 -0.2924 -0.2534
11663TIP3   OH256403   1.532   2.507   4.444 -0.4113  0.4643  0.8527
11663TIP3    H156404   1.606   2.537   4.390 -0.0962 -4.1291 -1.5810
11663TIP3    H256405   1.573   2.464   4.519 -0.6718  0.4882  1.0092
11664TIP3   OH256406   2.571   7.116  11.426  0.0153 -0.0493  0.3857
11664TIP3    H156407   2.523   7.090  11.504 -0.9926  0.4403 -0.0614
11664TIP3    H256408   2.663   7.097  11.446 -0.2439  0.0660  1.6797
11665TIP3   OH256409   3.182   2.848   1.217  0.5486  0.0285  0.0280
11665TIP3    H156410   3.247   2.916   1.234  0.7552 -0.2234  0.2616
11665TIP3    H256411   3.115   2.861   1.283  1.0710 -0.5979  0.6975
11666TIP3   OH256412   4.322   6.339   1.663 -0.4529  0.4318 -0.4907
11666TIP3    H156413   4.372   6.311   1.739 -1.2651  0.8190  0.2007
11666TIP3    H256414   4.297   6.258   1.619 -2.5226  0.0426  1.3178
11667TIP3   OH256415   6.602   3.283   0.007  0.3682 -0.0701 -0.2421
11667TIP3    H156416   6.606   3.374  -0.022  0.4983 -0.0346 -0.1123
11667TIP3    H256417   6.511   3.270   0.035  0.5508  0.2602  0.5172
11668TIP3   OH256418   6.447   0.455   1.289 -0.0028 -0.4187  0.1807
11668TIP3    H156419   6.460   0.474   1.196 -0.4754  0.9053  0.3641
11668TIP3    H256420   6.535   0.457   1.327  0.0322  0.7636  0.0533
11669TIP3   OH256421   2.960   2.539   0.045  0.0566  0.1621  0.0089
11669TIP3    H156422   3.038   2.588   0.021 -0.9351  1.6442 -0.2904
11669TIP3    H256423   2.923   2.512  -0.039 -0.1386  0.0968  0.1157
11670TIP3   OH256424   3.875   3.507   4.895  0.2287  0.2567  0.1699
11670TIP3    H156425   3.820   3.551   4.830  0.4997  2.1701  1.2041
11670TIP3    H256426   3.814   3.454   4.946 -0.1601 -0.2771 -0.8288
11671TIP3   OH256427   5.939   3.352   3.449 -0.3495  0.2370 -0.5928
11671TIP3    H156428   5.987   3.371   3.368 -0.0749  0.6690 -0.3308
11671TIP3    H256429   5.923   3.258   3.446  0.4186  0.1089 -0.7340
11672TIP3   OH256430   1.938   1.342  14.955 -0.0862  0.0317 -0.2328
11672TIP3    H156431   2.024   1.340  14.913 -0.3240 -0.2015 -0.7142
11672TIP3    H256432   1.954   1.386  15.039  0.4054  0.4504 -0.5373
11673TIP3   OH256433   4.813   4.674  10.235  0.1098 -0.0919 -0.0448
11673TIP3    H156434   4.814   4.705  10.145  0.7196 -0.5743 -0.2074
11673TIP3    H256435   4.865   4.738  10.283  2.0134 -1.2291 -0.5139
11674TIP3   OH256436   4.177   4.588   1.254 -0.4308 -0.1141 -0.9347
11674TIP3    H156437   4.114   4.657   1.276  1.1470  0.4419  2.0930
11674TIP3    H256438   4.233   4.627   1.187 -0.0561  1.3106  0.1720
11675TIP3   OH256439   4.500   1.396   3.637  0.2169 -0.0549  0.0318
11675TIP3    H156440   4.467   1.421   3.551 -0.9338  0.7580  0.6873
11675TIP3    H256441   4.555   1.470   3.664  2.0844 -1.1179 -0.7758
11676TIP3   OH256442   3.509   5.883   1.376 -0.6284 -0.1294  0.3145
11676TIP3    H156443   3.420   5.847   1.373  0.0030 -2.2259  3.3615
11676TIP3    H256444   3.550   5.853   1.295 -1.4564 -2.7934  0.8255
11677TIP3   OH256445   3.410   6.945  14.520 -0.2402  0.2161  0.3362
11677TIP3    H156446   3.386   6.920  14.609 -0.8940 -0.0895  0.0810
11677TIP3    H256447   3.350   7.016  14.497 -0.2794  0.0881  0.0322
11678TIP3   OH256448   0.814   2.321   1.736 -0.5378 -0.3609  0.0040
11678TIP3    H156449   0.780   2.397   1.688 -1.5921  0.2587  1.6739
11678TIP3    H256450   0.743   2.257   1.732 -0.7469 -0.1970  0.9572
11679TIP3   OH256451   5.742   0.059   1.415  0.9058  0.6415 -0.4592
11679TIP3    H156452   5.736   0.047   1.510 -0.4480  0.8808 -0.5132
11679TIP3    H256453   5.728   0.152   1.402 -1.2656  0.2476 -1.0775
11680TIP3   OH256454   0.843   3.921  11.810 -0.3626  0.4405  0.1966
11680TIP3    H156455   0.892   3.865  11.870  0.9065 -0.9837 -2.0851
11680TIP3    H256456   0.802   3.860  11.749 -2.5427  1.7902  0.2395
11681TIP3   OH256457   4.747   1.801  13.679  0.0887 -0.0767  0.2651
11681TIP3    H156458   4.833   1.834  13.704  0.6819 -0.4894 -1.2024
11681TIP3    H256459   4.710   1.766  13.761  1.5132 -0.3436  0.8040
11682TIP3   OH256460   1.736   5.722   2.050  0.0903 -0.3151  0.0991
11682TIP3    H156461   1.826   5.689   2.044  0.4171  0.7533 -0.9263
11682TIP3    H256462   1.691   5.656   2.103  1.4429 -0.9159  0.5407
11683TIP3   OH256463   6.342   4.577  14.979  0.4955  0.5311 -0.2599
11683TIP3    H156464   6.384   4.628  15.049  0.3062 -0.9255  0.9410
11683TIP3    H256465   6.319   4.642  14.912  0.7453  1.9446  1.0005
11684TIP3   OH256466   2.088   2.806   2.317  0.1898 -0.0616  0.3572
11684TIP3    H156467   2.115   2.723   2.356  0.7701  0.4676  1.0954
11684TIP3    H256468   1.998   2.818   2.346 -0.1922 -0.8529 -0.4680
11685TIP3   OH256469   3.692   0.330   2.443  0.7711  0.8737 -0.4702
11685TIP3    H156470   3.767   0.326   2.384  1.2199  1.1217  0.0836
11685TIP3    H256471   3.645   0.248   2.427 -0.1531  1.7884 -2.5306
11686TIP3   OH256472   1.855   5.121  14.642 -0.4719 -0.0013 -0.5070
11686TIP3    H156473   1.793   5.135  14.713  0.6294  0.6506  0.3507
11686TIP3    H256474   1.889   5.033  14.657 -1.3262 -0.4362 -1.0940
11687TIP3   OH256475   4.512   3.539   0.529 -0.3030 -0.6742 -0.0786
11687TIP3    H156476   4.546   3.508   0.445 -0.2664  0.3127 -0.4345
11687TIP3    H256477   4.483   3.460   0.574  0.8172 -1.3470 -0.5127
11688TIP3   OH256478   3.554   1.663   2.997  0.5324  0.5226 -0.2975
11688TIP3    H156479   3.536   1.626   2.911 -0.2254 -0.8616  0.4275
11688TIP3    H256480   3.476   1.641   3.049  1.6011  0.0398  1.1376
11689TIP3   OH256481   2.015   0.687   1.523 -0.3583  0.3166 -0.1674
11689TIP3    H156482   2.045   0.708   1.611 -0.3595  0.9746 -0.3235
11689TIP3    H256483   2.020   0.592   1.518 -1.6308  0.1790  1.0038
11690TIP3   OH256484   3.720   2.027   0.942  0.0847 -0.3997  0.1351
11690TIP3    H156485   3.708   1.958   0.877  0.7002  0.6433 -1.1117
11690TIP3    H256486   3.807   2.063   0.923 -0.3878  0.9847  0.4985
11691TIP3   OH256487   6.542   5.104   0.197 -0.6993  0.0766  0.2856
11691TIP3    H156488   6.538   5.120   0.291 -0.7784  1.3719  0.0688
11691TIP3    H256489   6.613   5.040   0.185 -0.2025  0.4755  1.1408
11692TIP3   OH256490   1.070   2.927   0.685  0.1366 -0.4862  0.2014
11692TIP3    H156491   1.032   2.921   0.773  1.1173  0.0122  0.6756
11692TIP3    H256492   0.997   2.911   0.626 -0.6632 -0.2408  1.1048
11693TIP3   OH256493   7.112   6.458   3.757  0.7285  0.1095 -0.1773
11693TIP3    H156494   7.041   6.522   3.747 -0.7963 -1.2107  1.7697
11693TIP3    H256495   7.161   6.488   3.833 -0.7664 -1.6835  1.5446
11694TIP3   OH256496   1.685   6.362   0.965  0.5165  0.0744  0.0001
11694TIP3    H156497   1.639   6.281   0.986  0.8236 -0.2272 -0.4923
11694TIP3    H256498   1.639   6.397   0.889  1.4614 -0.5348 -0.8643
11695TIP3   OH256499   5.176   0.306   3.010  0.0902  0.6671  0.3746
11695TIP3    H156500   5.113   0.244   3.046  1.8087 -1.5813 -0.3882
11695TIP3    H256501   5.193   0.274   2.922  3.2867  0.4607  1.0292
11696TIP3   OH256502   2.300   4.207   4.547 -0.5069  0.3934 -0.3895
11696TIP3    H156503   2.221   4.259   4.531 -1.0085 -0.0319  0.6429
11696TIP3    H256504   2.372   4.260   4.513 -1.0781  1.4725  0.0782
11697TIP3   OH256505   4.350   0.271   1.077  0.3761  0.2821  0.1080
11697TIP3    H156506   4.427   0.244   1.126  0.6274  0.9267  0.0700
11697TIP3    H256507   4.361   0.231   0.990  0.1597 -0.4698  0.4222
11698TIP3   OH256508   4.357   6.852   1.483 -0.3277 -0.0736 -0.3148
11698TIP3    H156509   4.414   6.887   1.551 -0.8914  0.7168 -0.2503
11698TIP3    H256510   4.309   6.781   1.526 -1.2422  0.9195  0.3387
11699TIP3   OH256511   6.378   1.912   2.796  0.3890  0.8169  0.0251
11699TIP3    H156512   6.428   1.833   2.817 -1.2503 -0.9678 -2.6191
11699TIP3    H256513   6.307   1.912   2.860  0.0194 -0.1987 -0.3831
11700TIP3   OH256514   4.780   0.995   0.278  0.4440  0.3202 -0.0942
11700TIP3    H156515   4.770   0.929   0.209 -1.7403  0.0605  0.4199
11700TIP3    H256516   4.690   1.018   0.302  1.1687  3.7913 -0.5220
11701TIP3   OH256517   1.654   2.955   2.591  0.0952 -0.1042 -0.3391
11701TIP3    H156518   1.747   2.959   2.610 -0.0159 -0.4584  0.3068
11701TIP3    H256519   1.618   2.900   2.661 -0.5307 -0.3040 -0.8139
11702TIP3   OH256520   0.239   5.100   2.632  0.5144  0.6505 -0.2075
11702TIP3    H156521   0.195   5.181   2.605  0.0415 -0.0965 -1.7427
11702TIP3    H256522   0.323   5.129   2.668  0.5342  1.7989 -1.1310
11703TIP3   OH256523   2.597   3.298   1.672 -0.4193 -0.0237 -0.3514
11703TIP3    H156524   2.523   3.358   1.669 -1.2802 -1.0510 -0.0743
11703TIP3    H256525   2.574   3.235   1.740  1.0354  0.0478  0.2210
11704TIP3   OH256526   0.560   1.648  14.442  0.1403  0.2533 -0.0628
11704TIP3    H156527   0.556   1.611  14.530 -1.3668 -0.0394 -0.2456
11704TIP3    H256528   0.507   1.728  14.447  0.1358  0.2929 -0.6650
11705TIP3   OH256529   5.719   1.408   4.113  0.6209 -0.2404 -0.2508
11705TIP3    H156530   5.687   1.421   4.024 -0.4429  0.8932  0.2988
11705TIP3    H256531   5.705   1.492   4.157  2.8669 -0.1968  0.4540
11706TIP3   OH256532   6.347   4.084   3.184 -0.4110  0.3931  0.4914
11706TIP3    H156533   6.435   4.092   3.145 -0.5759  0.7081  0.1751
11706TIP3    H256534   6.347   3.999   3.227  0.0303  0.3632  0.4339
11707TIP3   OH256535   4.083   6.331   0.526  0.3181 -0.8553 -0.1587
11707TIP3    H156536   4.173   6.321   0.559 -0.2378  0.2023  1.7937
11707TIP3    H256537   4.080   6.421   0.492 -0.5111 -0.2236  1.5334
11708TIP3   OH256538   2.975   1.251   0.461  0.4177  0.2170 -0.4024
11708TIP3    H156539   3.049   1.304   0.431  0.1708 -1.2811 -3.8674
11708TIP3    H256540   3.012   1.193   0.527  1.9373  0.6794 -0.8285
11709TIP3   OH256541   5.755   4.377  14.750  0.9132  0.7403  0.7766
11709TIP3    H156542   5.734   4.366  14.658 -0.0872  0.9912  0.9661
11709TIP3    H256543   5.679   4.423  14.787  1.5521  1.1598  1.6022
11710TIP3   OH256544   6.038   3.843  14.595 -0.7233  0.5349  0.7266
11710TIP3    H156545   6.028   3.926  14.642  0.3921  0.6595  0.7533
11710TIP3    H256546   6.118   3.854  14.544 -0.6505 -0.4744  0.6184
11711TIP3   OH256547   6.804   4.855  13.344 -0.1491 -0.6574  0.9017
11711TIP3    H156548   6.864   4.790  13.383 -0.9333 -3.2725 -2.0759
11711TIP3    H256549   6.818   4.846  13.250 -2.2603  1.6305  0.3473
11712TIP3   OH256550   0.319   6.613  13.667 -0.4350  0.0866 -0.5137
11712TIP3    H156551   0.396   6.559  13.650  0.2158  1.1904 -1.1507
11712TIP3    H256552   0.277   6.622  13.582  0.0880  1.5075 -0.6393
11713TIP3   OH256553   2.951   3.276   0.601 -0.0100 -0.3206 -0.4499
11713TIP3    H156554   2.982   3.281   0.691  1.3181  0.5981 -0.9448
11713TIP3    H256555   2.865   3.318   0.602 -0.7117 -1.7290  0.6818
11714TIP3   OH256556   0.193   3.821  13.605 -0.7503 -0.4579  0.0247
11714TIP3    H156557   0.121   3.884  13.603  0.0081  0.4327  0.3007
11714TIP3    H256558   0.157   3.742  13.563 -2.5821 -0.7940  2.1091
11715TIP3   OH256559   5.911   5.133  15.529  0.3418 -0.1399  0.0793
11715TIP3    H156560   5.929   5.221  15.496 -2.9162  1.2314  1.7719
11715TIP3    H256561   5.854   5.093  15.464  1.3387 -0.8327 -0.3913
11716TIP3   OH256562   4.760   7.160  15.173  0.7164  0.5135  0.4847
11716TIP3    H156563   4.806   7.086  15.213  1.0156  0.4121 -0.0398
11716TIP3    H256564   4.828   7.224  15.154  0.2907  1.4599  2.0914
11717TIP3   OH256565   6.011   5.742  14.249  0.1442 -0.8005  0.2688
11717TIP3    H156566   6.007   5.733  14.344 -0.5955  0.0373  0.3220
11717TIP3    H256567   6.083   5.685  14.223 -0.7343 -2.3621  1.1583
11718TIP3   OH256568   4.858   4.333   0.639  0.1361  0.4196  0.9278
11718TIP3    H156569   4.858   4.306   0.730 -2.4095 -1.0200  0.5473
11718TIP3    H256570   4.765   4.335   0.614  0.8624 -1.5585 -2.2753
11719TIP3   OH256571   5.771   1.400   1.266 -0.1634 -0.0742  0.4169
11719TIP3    H156572   5.708   1.449   1.213  0.3404  0.2325  0.0892
11719TIP3    H256573   5.761   1.309   1.238  0.2643  0.1199 -0.3728
11720TIP3   OH256574   1.298   7.070   2.898 -0.6535  0.0217 -0.8478
11720TIP3    H156575   1.374   7.092   2.843 -0.6510  0.6312 -0.5989
11720TIP3    H256576   1.330   7.001   2.956 -0.6705 -0.6638 -1.6464
11721TIP3   OH256577   6.644   2.439   0.859  0.9254  0.0928 -0.2064
11721TIP3    H156578   6.715   2.486   0.903  0.0496 -0.5807  1.9929
11721TIP3    H256579   6.598   2.506   0.809  1.4399  1.0483  0.5779
11722TIP3   OH256580   0.631   1.904   2.340  0.0016 -0.3691 -0.0086
11722TIP3    H156581   0.564   1.850   2.299 -0.1828 -1.4026  1.5913
11722TIP3    H256582   0.584   1.982   2.370 -0.0401 -0.0534 -0.8725
11723TIP3   OH256583   0.350   0.481   0.198  0.0181 -0.1788  0.4465
11723TIP3    H156584   0.348   0.521   0.285 -2.1358 -0.5749  0.6111
11723TIP3    H256585   0.396   0.545   0.143 -0.1174  0.8453  1.5115
11724TIP3   OH256586   6.496   6.015   2.391 -0.4592 -0.2687 -0.1820
11724TIP3    H156587   6.461   6.076   2.326 -1.1436  0.5483  0.9370
11724TIP3    H256588   6.589   6.007   2.369 -0.2167  1.7138  0.0530
11725TIP3   OH256589   0.763   4.242   1.785  0.2313  0.3293 -0.6736
11725TIP3    H156590   0.797   4.186   1.715 -0.5669  0.7527 -1.4198
11725TIP3    H256591   0.824   4.231   1.857  1.1713  0.0111 -1.5053
11726TIP3   OH256592   2.238   2.691   1.311 -0.2771  0.1497 -0.2041
11726TIP3    H156593   2.317   2.644   1.284 -1.3195 -2.6936  1.4785
11726TIP3    H256594   2.272   2.768   1.359  1.4471  1.2758 -3.1083
11727TIP3   OH256595   1.321   3.116  14.080 -0.4943 -0.2321  0.5753
11727TIP3    H156596   1.269   3.186  14.040 -0.9361 -1.0994 -0.4119
11727TIP3    H256597   1.257   3.050  14.105 -0.0717 -0.3163  1.4545
11728TIP3   OH256598   7.055   4.101  14.109 -0.1365 -0.3182 -0.0025
11728TIP3    H156599   6.973   4.052  14.103  0.0667 -1.0184  2.2870
11728TIP3    H256600   7.115   4.041  14.154  0.3888  1.6671  2.0592
11729TIP3   OH256601   0.054   0.738   1.439 -0.0091 -0.5080  0.0108
11729TIP3    H156602  -0.017   0.688   1.398  0.3387 -1.1736  0.2108
11729TIP3    H256603   0.130   0.719   1.385  0.9575 -3.1578  2.1946
11730TIP3   OH256604   4.696   6.578   1.280 -0.2603 -0.2103 -0.0245
11730TIP3    H156605   4.750   6.637   1.228 -0.8550  0.9898  0.6879
11730TIP3    H256606   4.750   6.501   1.293  0.4983  0.1401 -1.0571
11731TIP3   OH256607   6.329   5.546   3.237  0.3934  0.3211 -0.1151
11731TIP3    H156608   6.299   5.576   3.151  0.9639  2.0687  0.2890
11731TIP3    H256609   6.392   5.476   3.217 -0.6234 -0.3451 -1.0647
11732TIP3   OH256610   1.294   4.156   0.083  0.0339 -0.4958  0.2508
11732TIP3    H156611   1.351   4.113   0.019 -2.2868 -1.2390 -1.3455
11732TIP3    H256612   1.256   4.230   0.036  1.2219  1.2228  1.9236
11733TIP3   OH256613   3.818   2.392   0.769  0.1712 -0.2896 -0.2404
11733TIP3    H156614   3.819   2.350   0.682 -1.3875  1.9849 -1.4034
11733TIP3    H256615   3.726   2.397   0.792  0.4864  0.5884  0.8561
11734TIP3   OH256616   5.698   7.053   0.871  0.0507 -0.1347 -0.3501
11734TIP3    H156617   5.682   7.065   0.965  0.7210 -0.5314 -0.1768
11734TIP3    H256618   5.738   7.135   0.843  1.0676 -0.5020  0.0004
11735TIP3   OH256619   3.850   0.266  14.504  0.6743  0.4066  0.0031
11735TIP3    H156620   3.928   0.212  14.523 -0.4376 -0.7626  1.3472
11735TIP3    H256621   3.779   0.224  14.552 -0.5196  2.3059 -0.0327
11736TIP3   OH256622   4.790   6.207   0.088 -0.1770  0.3785 -0.1654
11736TIP3    H156623   4.705   6.165   0.103  0.0666 -0.8284 -2.0009
11736TIP3    H256624   4.830   6.211   0.175 -1.0589 -1.3654  0.3480
11737TIP3   OH256625   2.087   2.583   1.931  0.5559  0.0950  0.0444
11737TIP3    H156626   2.138   2.503   1.945 -1.2216 -1.2057 -0.8100
11737TIP3    H256627   2.132   2.649   1.984  3.3330 -0.9149 -0.9653
11738TIP3   OH256628   5.099   3.085   5.823 -0.5258 -0.1838 -0.2228
11738TIP3    H156629   5.042   3.041   5.760 -0.6733 -1.4603  0.7697
11738TIP3    H256630   5.186   3.052   5.804 -0.7017 -1.3115  0.8265
11739TIP3   OH256631   5.734   6.611   2.187 -0.2230  0.9203  0.6754
11739TIP3    H156632   5.756   6.675   2.255 -0.6672 -0.4428  2.1544
11739TIP3    H256633   5.791   6.632   2.114  1.4589  1.4085  2.0892
11740TIP3   OH256634   2.242   0.597  14.729 -0.1777 -0.2657 -0.3341
11740TIP3    H156635   2.191   0.515  14.723  0.4469 -0.7605  0.9755
11740TIP3    H256636   2.318   0.574  14.783  1.7691  0.3123 -2.7408
11741TIP3   OH256637   1.543   0.995   0.304 -0.1139  0.1878 -0.4586
11741TIP3    H156638   1.462   1.000   0.252  0.4724  2.4581 -1.1906
11741TIP3    H256639   1.560   0.901   0.311 -1.4028 -0.2528 -2.5629
11742TIP3   OH256640   2.656   5.110   1.793  0.4598 -0.2814 -0.3590
11742TIP3    H156641   2.642   5.205   1.796 -0.3447 -0.4327  0.8728
11742TIP3    H256642   2.617   5.083   1.710  1.0263  0.5136 -0.8980
11743TIP3   OH256643   6.256   2.228   0.801 -0.0103 -0.4564 -0.0462
11743TIP3    H156644   6.225   2.163   0.737 -3.3292 -0.0993  1.1102
11743TIP3    H256645   6.181   2.244   0.858  2.2681  0.6890  2.8010
11744TIP3   OH256646   4.710   0.091   0.448  0.1053  0.6103 -0.2924
11744TIP3    H156647   4.785   0.039   0.478 -0.2696  0.7968  0.9695
11744TIP3    H256648   4.740   0.181   0.453 -0.0627  0.6596 -0.1703
11745TIP3   OH256649   2.775   3.690   4.485  0.0456  0.5338 -0.0310
11745TIP3    H156650   2.758   3.781   4.511  0.1606  0.9742 -1.4467
11745TIP3    H256651   2.695   3.643   4.507  0.6322  0.5908  2.3877
11746TIP3   OH256652   5.078   6.333   0.819 -0.2469 -0.2132  0.0778
11746TIP3    H156653   5.076   6.422   0.784  1.2578  0.0134  0.5575
11746TIP3    H256654   5.170   6.314   0.833 -0.5200 -2.0376 -0.4606
11747TIP3   OH256655   0.630   4.990  15.108  0.2804 -0.3212  0.5410
11747TIP3    H156656   0.625   4.895  15.111 -0.0973 -0.2886  1.1755
11747TIP3    H256657   0.702   5.009  15.048 -0.4269 -0.9849 -0.5430
11748TIP3   OH256658   6.969   1.504  13.665  0.0512 -0.6738 -0.4600
11748TIP3    H156659   6.932   1.526  13.580  1.5729  0.4873 -0.8464
11748TIP3    H256660   6.894   1.498  13.723 -0.7047  2.5757 -1.0180
11749TIP3   OH256661   6.640   7.026   4.345 -0.3373 -0.4799 -0.4222
11749TIP3    H156662   6.730   7.040   4.315  0.2559  1.9723  2.2630
11749TIP3    H256663   6.590   7.014   4.264  2.2016 -0.7862 -2.0225
11750TIP3   OH256664   6.098   1.950  13.605 -0.3239  0.4338  0.0056
11750TIP3    H156665   6.036   2.000  13.657 -1.8020 -0.9989 -0.3114
11750TIP3    H256666   6.061   1.951  13.517 -0.0550 -0.6458 -0.1299
11751TIP3   OH256667   6.060   0.930  14.341 -0.2121  0.1967 -0.0090
11751TIP3    H156668   5.983   0.883  14.374 -0.4366  0.0951 -0.6800
11751TIP3    H256669   6.039   1.022  14.358 -0.1727  0.1216  0.4587
11752TIP3   OH256670   5.193   5.533   3.414 -0.0140 -0.0216 -0.8033
11752TIP3    H156671   5.218   5.445   3.387  2.6006  1.3598 -3.0424
11752TIP3    H256672   5.130   5.562   3.348 -0.2857  0.0922 -0.4993
11753TIP3   OH256673   6.625   5.086   1.365 -0.0490  0.2148 -0.6531
11753TIP3    H156674   6.574   5.045   1.435  0.2260 -0.9023 -1.0873
11753TIP3    H256675   6.711   5.044   1.370  0.7798  1.9340 -0.0620
11754TIP3   OH256676   7.151   1.943   0.195 -0.3087 -0.0677  0.1339
11754TIP3    H156677   7.134   1.857   0.232 -1.6188  0.3952  0.6170
11754TIP3    H256678   7.217   1.927   0.127  0.0731 -1.3178  0.7840
11755TIP3   OH256679   1.844   6.910   1.144  0.0057  0.0315 -0.1716
11755TIP3    H156680   1.762   6.878   1.106  0.0460 -1.3236  0.8457
11755TIP3    H256681   1.843   6.877   1.234  1.6276  0.0738 -0.1282
11756TIP3   OH256682   0.460   2.339   4.783 -0.3044 -0.1248  0.4456
11756TIP3    H156683   0.433   2.264   4.836 -0.3411  1.0464  2.0957
11756TIP3    H256684   0.555   2.329   4.774 -0.0670  0.5821  2.1421
11757TIP3   OH256685   5.601   0.879   0.349 -0.0880  0.4263 -0.4072
11757TIP3    H156686   5.509   0.890   0.326 -0.7151 -1.8006  0.9438
11757TIP3    H256687   5.602   0.875   0.445  1.3802 -0.0014 -0.4224
11758TIP3   OH256688   6.967   5.632   3.788 -0.0760  0.2861  0.4867
11758TIP3    H156689   6.988   5.699   3.853  2.0172 -2.1300  2.4311
11758TIP3    H256690   7.037   5.639   3.723 -0.2541  0.4460  0.3119
11759TIP3   OH256691   0.432   4.766  15.009 -0.5365 -0.2225  0.2891
11759TIP3    H156692   0.521   4.732  15.018 -1.0965 -1.6744  0.5428
11759TIP3    H256693   0.440   4.840  14.949  0.8518 -0.2921  0.3775
11760TIP3   OH256694   3.415   4.142   1.990  0.0655  0.2604  0.0543
11760TIP3    H156695   3.474   4.216   2.009  0.0132 -0.1082  1.7697
11760TIP3    H256696   3.434   4.079   2.059  1.0391 -1.9164 -2.1562
11761TIP3   OH256697   4.214   6.139  13.304  0.4490  0.0352 -0.0745
11761TIP3    H156698   4.188   6.143  13.396  2.1590 -2.8138  0.6007
11761TIP3    H256699   4.297   6.187  13.300  1.2198 -1.2326  0.2473
11762TIP3   OH256700   5.411   2.714   0.920 -0.2658  0.3466 -0.7292
11762TIP3    H156701   5.442   2.633   0.960 -0.4421  1.0020  0.7514
11762TIP3    H256702   5.475   2.732   0.851  1.9958  1.0254  1.4920
11763TIP3   OH256703   5.659   4.477   5.502 -0.2499  0.0887  0.1538
11763TIP3    H156704   5.684   4.385   5.506  0.5712  0.2690 -0.5828
11763TIP3    H256705   5.737   4.522   5.469 -0.2128  1.2258  1.7224
11764TIP3   OH256706   5.148   4.990   5.553  0.6000 -0.3971 -0.5777
11764TIP3    H156707   5.181   5.001   5.463  0.0985 -0.7287 -0.8075
11764TIP3    H256708   5.218   4.944   5.599  1.9856  2.1481 -0.0654
11765TIP3   OH256709   6.696   3.152   0.813 -0.4216 -0.0997 -0.2039
11765TIP3    H156710   6.749   3.103   0.876  0.6855 -0.7134 -1.5882
11765TIP3    H256711   6.733   3.241   0.815 -0.5062 -0.0690  0.1232
11766TIP3   OH256712   6.848   0.559   5.375 -0.7390 -0.0490  0.2320
11766TIP3    H156713   6.929   0.527   5.416 -1.5192 -0.4369  1.5058
11766TIP3    H256714   6.841   0.650   5.404 -1.2932 -0.3242  0.9637
11767TIP3   OH256715   1.972   3.243  14.352  0.0551  0.1264 -0.3091
11767TIP3    H156716   1.932   3.211  14.270  0.4524 -1.0820 -0.0509
11767TIP3    H256717   1.923   3.198  14.421  0.3684  0.3902  0.0804
11768TIP3   OH256718   6.974   4.037  15.048  0.5828 -0.1032 -0.4807
11768TIP3    H156719   6.965   4.078  15.135 -0.3807  0.5548 -0.8814
11768TIP3    H256720   7.068   4.025  15.037  0.9931  3.0293 -0.8050
11769TIP3   OH256721   2.838   3.934   2.451 -0.0196 -0.0770 -0.9212
11769TIP3    H156722   2.861   3.841   2.447  0.3917 -0.1754  2.3536
11769TIP3    H256723   2.911   3.979   2.408  1.0906 -1.1081 -0.1579
11770TIP3   OH256724   4.124   5.577   0.403  0.1359 -0.2694  0.0483
11770TIP3    H156725   4.029   5.565   0.397  0.0176  0.2124  0.8906
11770TIP3    H256726   4.159   5.488   0.401 -0.3041 -0.4349 -0.6290
11771TIP3   OH256727   0.391   3.073   0.059 -0.4124 -0.3397  0.3730
11771TIP3    H156728   0.420   3.050   0.148  0.5314  2.1967  0.7772
11771TIP3    H256729   0.442   3.015   0.002  2.3559  1.0373  1.3125
11772TIP3   OH256730   3.374   6.120   1.021 -0.1979  0.5708 -0.2708
11772TIP3    H156731   3.388   6.028   0.998  0.2803  0.6983 -0.5089
11772TIP3    H256732   3.463   6.155   1.032 -0.4037  0.7098  1.0031
11773TIP3   OH256733   5.001   3.146   1.035  0.5630 -0.0319  0.3097
11773TIP3    H156734   5.082   3.139   1.086  1.2289 -1.3193 -0.8835
11773TIP3    H256735   5.030   3.145   0.944 -0.7221  0.7099 -0.1216
11774TIP3   OH256736   5.936   6.503   0.155  0.3333 -0.2034  0.4617
11774TIP3    H156737   5.847   6.469   0.156 -1.0039  3.1244 -0.4610
11774TIP3    H256738   5.951   6.529   0.064  2.2328 -0.6622  0.6191
11775TIP3   OH256739   2.014   4.126   2.737  0.1564  0.0858  0.2168
11775TIP3    H156740   2.034   4.124   2.643  2.1207 -0.9389  0.6210
11775TIP3    H256741   2.094   4.161   2.777 -0.6805  0.5347  1.5161
11776TIP3   OH256742   3.098   3.828   4.933  0.5556  0.0054  0.4640
11776TIP3    H156743   3.152   3.774   4.875  0.6576 -1.1428  1.6260
11776TIP3    H256744   3.008   3.812   4.903  0.6410 -0.2139  0.3221
11777TIP3   OH256745   4.364   4.201   3.039  0.2546 -0.1701  0.1330
11777TIP3    H156746   4.371   4.267   3.107 -0.3678  0.5622 -0.4957
11777TIP3    H256747   4.271   4.201   3.015  0.5297 -0.1462 -0.9719
11778TIP3   OH256748   4.079   4.704  15.162 -0.0819  0.0897  0.1074
11778TIP3    H156749   4.135   4.770  15.121 -0.0947  0.9814  1.5089
11778TIP3    H256750   4.080   4.631  15.100 -0.4416  1.5632 -1.6876
11779TIP3   OH256751   1.700   4.574   2.247 -0.3062 -0.6822 -0.2002
11779TIP3    H156752   1.606   4.556   2.251 -0.5677  0.6679 -0.1740
11779TIP3    H256753   1.736   4.528   2.323 -1.0305 -0.6681  0.1566
11780TIP3   OH256754   4.423   1.063   2.481 -0.0381  0.3422  0.5197
11780TIP3    H156755   4.423   1.115   2.400 -1.8755  1.9876  1.5337
11780TIP3    H256756   4.401   0.974   2.452 -0.1279  0.7955 -0.8595
11781TIP3   OH256757   0.341   5.678  14.605  0.5332 -0.2622  0.0690
11781TIP3    H156758   0.346   5.741  14.677 -0.8769 -2.1330  1.8523
11781TIP3    H256759   0.404   5.610  14.628  0.8066 -0.3890 -0.9946
11782TIP3   OH256760   6.614   4.448  13.137 -0.6005  0.2476 -0.3247
11782TIP3    H156761   6.542   4.452  13.074 -2.8282  0.8484  2.1284
11782TIP3    H256762   6.582   4.390  13.206  1.1778  0.7163  0.9314
11783TIP3   OH256763   6.081   4.258   2.848  0.1656  0.5607  0.2027
11783TIP3    H156764   6.022   4.184   2.859  0.4987  0.3702  0.7345
11783TIP3    H256765   6.160   4.221   2.810 -0.4110  0.9738 -1.4382
11784TIP3   OH256766   5.560   4.172   2.311 -0.5364  0.2303  0.5344
11784TIP3    H156767   5.614   4.251   2.314  0.5954 -0.4210 -1.6574
11784TIP3    H256768   5.598   4.114   2.377 -0.3567  0.9147  1.0281
11785TIP3   OH256769   2.253   3.043  14.391  0.3336  0.4846  0.6013
11785TIP3    H156770   2.185   3.057  14.324  2.0233  1.3180 -0.9809
11785TIP3    H256771   2.214   3.078  14.472 -1.7436 -0.5508  0.0945
11786TIP3   OH256772   5.126   0.381   0.582 -0.2033 -0.2435  0.4597
11786TIP3    H156773   5.169   0.389   0.667 -0.4638  0.8930  0.4967
11786TIP3    H256774   5.122   0.471   0.549 -1.3062 -0.5071 -0.1531
11787TIP3   OH256775   6.667   5.485  15.473 -0.7164  0.1851 -0.1110
11787TIP3    H156776   6.748   5.461  15.428 -0.1794 -1.5163  1.7119
11787TIP3    H256777   6.602   5.424  15.439 -0.8676  0.4916 -0.3736
11788TIP3   OH256778   6.167   2.348   0.346  0.1087 -0.1192 -0.2065
11788TIP3    H156779   6.085   2.377   0.309  0.5424  1.3048 -0.0724
11788TIP3    H256780   6.206   2.293   0.279 -0.7142 -0.3974 -0.4618
11789TIP3   OH256781   3.767   0.522   2.632  0.6336  0.1582  0.3365
11789TIP3    H156782   3.733   0.494   2.717 -0.3572 -0.8510 -0.3862
11789TIP3    H256783   3.740   0.454   2.571  2.2698  0.3239 -0.6096
11790TIP3   OH256784   6.310   6.729   0.210  0.2588  0.1126  0.3327
11790TIP3    H156785   6.271   6.721   0.123 -0.3748 -0.8418  0.6986
11790TIP3    H256786   6.379   6.662   0.211 -0.3887 -0.5574  0.9052
11791TIP3   OH256787   4.981   0.196   2.371 -0.5147 -0.2486 -0.6714
11791TIP3    H156788   4.887   0.196   2.386 -0.3161  0.9459  0.6018
11791TIP3    H256789   5.008   0.287   2.384  1.2418 -1.0780  1.7736
11792TIP3   OH256790   0.650   1.523   0.511  0.4890 -0.2152 -0.1162
11792TIP3    H156791   0.689   1.609   0.528  2.5381 -0.8369 -1.4638
11792TIP3    H256792   0.586   1.511   0.581 -0.5704  2.8374 -0.4762
11793TIP3   OH256793   0.735   5.122  12.425  0.0582  0.0806  0.4278
11793TIP3    H156794   0.675   5.176  12.373  1.0180  1.4505  0.7095
11793TIP3    H256795   0.728   5.035  12.387 -0.8716  0.5893 -0.6085
11794TIP3   OH256796   2.071   4.816   2.996 -0.5786 -0.2550 -0.5115
11794TIP3    H156797   2.098   4.774   3.078 -0.6257  0.8889  0.1063
11794TIP3    H256798   2.150   4.817   2.942 -0.5197 -0.9122 -0.4343
11795TIP3   OH256799   5.998   1.007   1.912  0.6562 -0.1056 -0.0772
11795TIP3    H156800   6.057   1.081   1.894  0.5871 -0.1031 -0.2943
11795TIP3    H256801   5.910   1.045   1.906  0.6034 -0.3312 -0.7675
11796TIP3   OH256802   3.042   6.847  14.650 -0.4209  0.2392  0.5025
11796TIP3    H156803   2.960   6.826  14.696 -1.0104 -1.1924 -1.1494
11796TIP3    H256804   3.032   6.939  14.624 -0.0304  1.1120  3.2688
11797TIP3   OH256805   3.101   1.863   0.574 -0.0730 -0.5862 -0.6674
11797TIP3    H156806   3.168   1.848   0.640 -0.5962 -1.0395 -0.2331
11797TIP3    H256807   3.055   1.779   0.566 -2.1685  0.3839  0.8268
11798TIP3   OH256808   4.324   0.081   1.834  0.4079  0.3046 -0.7430
11798TIP3    H156809   4.233   0.074   1.863  0.2933  1.7798 -0.7272
11798TIP3    H256810   4.366   0.133   1.902  1.7137 -1.9108  0.2203
11799TIP3   OH256811   0.992   3.069   1.368  0.3568  0.3450 -0.7280
11799TIP3    H156812   1.029   2.989   1.405 -3.0007 -1.2700 -0.6028
11799TIP3    H256813   0.976   3.125   1.444  1.5261  0.6007 -0.6737
11800TIP3   OH256814   2.872   2.479   2.235  0.1741  0.2933 -0.2357
11800TIP3    H156815   2.939   2.532   2.193 -2.8944  3.7836 -1.0568
11800TIP3    H256816   2.827   2.434   2.163 -1.6473  2.0758 -0.2566
11801TIP3   OH256817   1.133   3.948   1.549  0.0227 -0.5224  0.8075
11801TIP3    H156818   1.083   4.020   1.585  0.1667  0.2843 -0.5621
11801TIP3    H256819   1.067   3.888   1.515 -0.0592 -0.2716  0.5222
11802TIP3   OH256820   0.089   0.137   3.079  0.7870  0.0380  0.6299
11802TIP3    H156821   0.088   0.074   3.151  0.6740 -0.6172  0.0599
11802TIP3    H256822   0.012   0.192   3.094  1.7943  1.1121  2.0540
11803TIP3   OH256823   5.025   1.544   2.649 -0.0988  0.0046  0.2640
11803TIP3    H156824   4.985   1.518   2.732 -0.6272 -0.7803 -0.2311
11803TIP3    H256825   4.952   1.574   2.595  0.0645 -0.6978 -0.3656
11804TIP3   OH256826   6.013   6.974   1.730 -0.0621  0.4071 -0.0181
11804TIP3    H156827   5.950   7.010   1.793 -0.4719 -1.4895  0.6809
11804TIP3    H256828   6.077   6.929   1.784  0.7955  0.5988 -0.8578
11805TIP3   OH256829   4.322   5.870   4.161  0.1301  0.8022 -0.5333
11805TIP3    H156830   4.228   5.880   4.175  0.3619  0.8344  1.1027
11805TIP3    H256831   4.355   5.834   4.243  1.6806  1.5578 -0.8055
11806TIP3   OH256832   6.161   1.791   3.312 -0.4990 -0.2014 -0.4780
11806TIP3    H156833   6.245   1.834   3.328  0.5522 -2.6159  0.9116
11806TIP3    H256834   6.117   1.793   3.397 -1.0711 -0.5016 -0.7660
11807TIP3   OH256835   4.184   6.749   2.033 -0.2807  0.3710  0.4288
11807TIP3    H156836   4.242   6.824   2.048  1.7786 -1.2815  0.9594
11807TIP3    H256837   4.243   6.677   2.013 -2.1012 -1.5797  1.8848
11808TIP3   OH256838   2.730   4.978   2.860 -0.6676 -0.1693  0.1977
11808TIP3    H156839   2.699   4.960   2.949 -2.4084  0.9326 -0.1584
11808TIP3    H256840   2.661   5.031   2.821 -0.1535 -1.0339 -1.9846
11809TIP3   OH256841   0.529   1.766   0.399 -0.1611  0.5648 -0.5417
11809TIP3    H156842   0.478   1.700   0.352  0.3846 -1.3668  1.5162
11809TIP3    H256843   0.615   1.727   0.411  0.3258  1.8507  0.2702
11810TIP3   OH256844   1.236   1.238   0.334 -0.0362 -0.0098  0.5213
11810TIP3    H156845   1.285   1.232   0.416  1.3502  1.2961 -0.1872
11810TIP3    H256846   1.295   1.202   0.267 -2.0500 -3.2392  0.4107
11811TIP3   OH256847   1.981   1.139   1.233  0.0488  0.0803 -0.2958
11811TIP3    H156848   2.040   1.206   1.198  1.1827  0.0689  1.5115
11811TIP3    H256849   1.905   1.188   1.264 -0.4889  0.1978 -1.7779
11812TIP3   OH256850   2.744   3.021   2.240 -0.5935 -0.1048  0.1555
11812TIP3    H156851   2.749   3.107   2.198 -0.5400 -1.6442 -3.1815
11812TIP3    H256852   2.651   3.009   2.258 -0.7927  0.0430 -0.7470
11813TIP3   OH256853   0.781   4.468   1.636 -0.0852 -0.1089  0.8043
11813TIP3    H156854   0.753   4.383   1.671 -1.0162  0.3927  1.2945
11813TIP3    H256855   0.706   4.526   1.651  0.8828  1.0267  1.3160
11814TIP3   OH256856   3.983   1.391  13.800 -0.1614  0.3116  0.4449
11814TIP3    H156857   4.070   1.373  13.837 -0.8960  0.3836  2.2568
11814TIP3    H256858   3.939   1.306  13.799 -0.5844  0.5214  0.9257
11815TIP3   OH256859   5.017   4.889   0.538  0.2383 -0.2782  0.1343
11815TIP3    H156860   5.012   4.822   0.471 -0.3642  0.2014 -0.3115
11815TIP3    H256861   5.105   4.880   0.575  0.4062 -0.8492 -0.3979
11816TIP3   OH256862   3.831   6.640  15.310 -0.6086 -0.2931  0.0994
11816TIP3    H156863   3.899   6.649  15.377 -1.7005 -1.2544  1.3934
11816TIP3    H256864   3.764   6.704  15.336  0.3092  1.4800 -1.8334
11817TIP3   OH256865   3.417   3.874   2.925 -0.3350 -0.3265  0.2568
11817TIP3    H156866   3.352   3.816   2.964 -0.2288 -0.7110 -0.1390
11817TIP3    H256867   3.460   3.821   2.858 -1.0272  0.5563 -0.9026
11818TIP3   OH256868   1.654   2.750   4.311  0.6140 -0.0268 -0.3365
11818TIP3    H156869   1.600   2.805   4.368  0.3563 -0.5520 -0.0760
11818TIP3    H256870   1.731   2.729   4.363  1.5509  1.5129 -1.0351
11819TIP3   OH256871   3.677   4.494   2.504 -0.0569 -0.0513  0.7822
11819TIP3    H156872   3.770   4.514   2.516  0.4394 -1.5888 -0.1879
11819TIP3    H256873   3.644   4.564   2.448  0.8350 -0.1257  0.1424
11820TIP3   OH256874   1.343   6.916   0.398 -0.0236 -0.2696 -0.3628
11820TIP3    H156875   1.437   6.930   0.405 -0.2275 -0.1698  3.5385
11820TIP3    H256876   1.305   6.992   0.442 -1.8664 -1.0722 -0.5304
11821TIP3   OH256877   0.826   3.680  14.629 -0.2669 -0.4743  0.5182
11821TIP3    H156878   0.855   3.657  14.717  1.3364  0.5841  0.2848
11821TIP3    H256879   0.880   3.627  14.570 -1.4423 -1.3007  0.1468
11822TIP3   OH256880   2.712   5.559   0.072 -0.0665 -0.4957 -0.1268
11822TIP3    H156881   2.798   5.518   0.077  0.4302  0.5567  0.0636
11822TIP3    H256882   2.703   5.588  -0.019 -0.7953 -1.8176 -0.4887
11823TIP3   OH256883   4.911   3.474   3.953 -0.1377 -0.1321  0.3707
11823TIP3    H156884   4.996   3.429   3.956 -0.3311 -0.5463 -0.2562
11823TIP3    H256885   4.876   3.466   4.041  0.1443 -0.6174  0.4412
11824TIP3   OH256886   1.493   3.993   2.744  0.1654  0.9188 -0.2590
11824TIP3    H156887   1.445   4.041   2.676 -0.7911 -0.3000 -0.4798
11824TIP3    H256888   1.550   3.933   2.696 -0.3998  0.1620 -0.0048
11825TIP3   OH256889   5.304   1.780   1.295  0.0351  0.7114 -0.6926
11825TIP3    H156890   5.369   1.807   1.230  0.3593  0.3023 -0.5428
11825TIP3    H256891   5.229   1.838   1.281  0.7354  1.7158 -0.3419
11826TIP3   OH256892   3.152   4.511   3.461 -0.6865  0.2204 -0.2197
11826TIP3    H156893   3.177   4.602   3.480  0.2346 -0.6240  3.1292
11826TIP3    H256894   3.091   4.488   3.532 -1.0029 -1.7316 -1.0936
11827TIP3   OH256895   1.716   1.705   4.709 -0.1744  0.3749  0.2756
11827TIP3    H156896   1.648   1.768   4.684 -1.5318 -0.9603  0.4797
11827TIP3    H256897   1.783   1.715   4.642 -1.4286  0.4335 -1.0034
11828TIP3   OH256898   6.896   3.441   3.419 -0.3881  0.6006 -0.0932
11828TIP3    H156899   6.844   3.402   3.348  1.0243 -1.7338  0.0897
11828TIP3    H256900   6.884   3.380   3.493  0.2403  1.6205  0.8658
11829TIP3   OH256901   0.430   6.271   0.769 -0.8830 -0.4968 -0.0822
11829TIP3    H156902   0.461   6.253   0.681  0.3302 -1.4102  0.5047
11829TIP3    H256903   0.344   6.228   0.774 -0.0449 -2.2016 -0.1741
11830TIP3   OH256904   3.272   4.255  15.302 -0.1704 -0.2097 -0.1752
11830TIP3    H156905   3.287   4.330  15.359 -0.3179 -0.1687 -0.1911
11830TIP3    H256906   3.320   4.183  15.344 -2.9508 -0.9916  1.7558
11831TIP3   OH256907   3.107   3.085   5.602 -0.0950 -0.0180  0.1306
11831TIP3    H156908   3.198   3.058   5.600 -0.1698 -0.2091 -0.8790
11831TIP3    H256909   3.104   3.164   5.548 -0.2436  0.8944  1.4421
11832TIP3   OH256910   6.074   5.827   1.574  0.4867  0.2954  0.3055
11832TIP3    H156911   6.018   5.880   1.517 -0.9830  0.5654  1.9739
11832TIP3    H256912   6.033   5.741   1.575 -0.6423  0.8288  2.5151
11833TIP3   OH256913   2.627   7.131   3.054  0.0206  0.0615  0.1992
11833TIP3    H156914   2.604   7.041   3.031 -1.1317  0.3019  0.3633
11833TIP3    H256915   2.675   7.164   2.978  0.6040 -0.7476  0.2124
11834TIP3   OH256916   3.489   5.679  13.910 -0.7903  0.0082  0.1189
11834TIP3    H156917   3.550   5.629  13.856 -0.2596 -0.4008  1.1042
11834TIP3    H256918   3.542   5.750  13.946 -0.9057 -0.3134  0.9265
11835TIP3   OH256919   4.275   4.977   5.184  0.3506 -0.5888  0.3277
11835TIP3    H156920   4.214   4.946   5.117  0.8527 -0.0580 -0.3735
11835TIP3    H256921   4.273   4.909   5.251 -0.8206 -0.6968  0.1876
11836TIP3   OH256922   3.086   5.102   1.772  0.0809 -0.5542 -0.5858
11836TIP3    H156923   3.007   5.144   1.737 -1.0997 -2.2089  0.0631
11836TIP3    H256924   3.088   5.126   1.864  0.4896 -0.3075 -0.6547
11837TIP3   OH256925   6.331   3.023   1.560  0.1629 -0.0326  0.1059
11837TIP3    H156926   6.249   3.033   1.512  0.1632 -0.6526 -0.0364
11837TIP3    H256927   6.397   3.008   1.492 -0.0640 -2.3742  0.3308
11838TIP3   OH256928   6.673   6.017   0.735  0.5009 -0.2162 -0.1784
11838TIP3    H156929   6.752   5.983   0.776  2.3249  1.9855 -1.7289
11838TIP3    H256930   6.686   6.112   0.732 -1.1370 -0.0169 -2.6120
11839TIP3   OH256931   5.277   1.693   0.966 -0.1407  0.0304  0.3566
11839TIP3    H156932   5.205   1.743   1.004 -0.7074 -0.6577  0.1931
11839TIP3    H256933   5.339   1.760   0.935 -1.1525  0.6531 -0.3736
11840TIP3   OH256934   5.190   6.700   2.121 -0.2976  0.2733 -0.7300
11840TIP3    H156935   5.101   6.703   2.087 -2.2652  1.5888  4.1253
11840TIP3    H256936   5.221   6.790   2.116  0.4308 -0.0107 -1.4993
11841TIP3   OH256937   7.044   0.136   0.059  0.1240 -0.1984 -0.2410
11841TIP3    H156938   7.055   0.222   0.019  0.7357  0.0993  0.5553
11841TIP3    H256939   6.961   0.103   0.023 -2.3699  2.5125  2.7057
11842TIP3   OH256940   6.049   7.048   3.353 -0.2124  0.2417 -0.2659
11842TIP3    H156941   6.109   7.031   3.425 -0.6304 -0.7013 -0.1432
11842TIP3    H256942   6.022   7.139   3.365  1.4210  0.7707 -0.4996
11843TIP3   OH256943   5.827   0.403  13.746 -0.0936  0.5286 -0.5215
11843TIP3    H156944   5.790   0.389  13.659 -0.9796  0.8107 -0.1987
11843TIP3    H256945   5.894   0.470  13.733  0.2461  0.0771 -1.1024
11844TIP3   OH256946   3.933   1.548   3.171  0.0056 -0.2236 -0.1888
11844TIP3    H156947   3.991   1.565   3.097  0.2038 -1.3931 -0.3023
11844TIP3    H256948   3.858   1.502   3.133 -2.2254  3.4148 -0.4822
11845TIP3   OH256949   4.899   3.474   5.348 -0.0479 -0.2774  0.7389
11845TIP3    H156950   4.914   3.427   5.430  0.2241  0.2173  0.9765
11845TIP3    H256951   4.985   3.477   5.306 -0.4046 -1.5827 -0.1441
11846TIP3   OH256952   2.982   5.947  14.409 -0.2731  0.0338  0.0370
11846TIP3    H156953   3.067   5.910  14.384 -0.0711 -0.4788  1.4189
11846TIP3    H256954   2.918   5.889  14.368  0.0451 -0.3830  0.1182
11847TIP3   OH256955   5.836   3.869   2.044  0.5241  0.5075 -0.0799
11847TIP3    H156956   5.805   3.791   2.091 -1.1398  0.6890 -0.8318
11847TIP3    H256957   5.927   3.848   2.020 -0.3042 -1.7356 -1.3692
11848TIP3   OH256958   6.021   1.911   1.571 -0.4892 -0.2614  0.2827
11848TIP3    H156959   6.031   2.006   1.564  1.0811 -0.3842  0.6627
11848TIP3    H256960   5.928   1.896   1.552 -0.8225  1.3664  0.4678
11849TIP3   OH256961   3.312   2.867   2.456  0.2331  0.2373  0.1381
11849TIP3    H156962   3.220   2.875   2.483  0.1464  1.4475 -0.4853
11849TIP3    H256963   3.356   2.830   2.533 -0.6948  0.0188  0.5780
11850TIP3   OH256964   6.933   6.573   3.405  0.1137  0.1932  0.0590
11850TIP3    H156965   6.908   6.583   3.497  0.6156  0.4077  0.1712
11850TIP3    H256966   6.855   6.535   3.364 -0.3074  0.5977  0.4643
11851TIP3   OH256967   0.309   2.240  14.385  0.3660  0.3272 -0.1955
11851TIP3    H156968   0.234   2.299  14.386  1.1031  1.2880  0.2207
11851TIP3    H256969   0.359   2.265  14.308 -0.2670 -1.0088 -1.0554
11852TIP3   OH256970   1.337   6.565  11.943  0.5341  0.2324 -0.5237
11852TIP3    H156971   1.317   6.472  11.939  1.6671 -0.1043  0.8583
11852TIP3    H256972   1.252   6.608  11.951  0.1320 -0.9237  2.0263
11853TIP3   OH256973   5.513   2.655   2.225 -0.4517 -0.2814  0.2271
11853TIP3    H156974   5.528   2.727   2.164 -0.4130  0.1816  0.7749
11853TIP3    H256975   5.433   2.612   2.193 -0.8354  0.3996  0.2693
11854TIP3   OH256976   4.421   0.208   2.563 -0.7598 -0.1490 -1.0901
11854TIP3    H156977   4.352   0.269   2.538 -0.3089  1.8758  2.3287
11854TIP3    H256978   4.382   0.156   2.633  0.3774 -0.7250 -0.8753
11855TIP3   OH256979   1.925   3.345   0.536 -0.1724  0.3475 -0.1726
11855TIP3    H156980   1.921   3.265   0.482  0.4042  0.9513 -1.1405
11855TIP3    H256981   1.934   3.313   0.625 -2.8327 -0.7010 -0.2366
11856TIP3   OH256982   6.863   3.006   1.594  0.5832 -0.2925  0.5045
11856TIP3    H156983   6.915   3.000   1.514 -3.6706 -1.5515 -2.3400
11856TIP3    H256984   6.886   2.926   1.643  1.5540 -0.6673 -0.5382
11857TIP3   OH256985   6.783   2.192   0.031 -0.1619 -0.1039 -0.0242
11857TIP3    H156986   6.865   2.236   0.052 -0.0107  0.3958 -1.6032
11857TIP3    H256987   6.800   2.100   0.051  0.0142  0.3008  1.8399
11858TIP3   OH256988   1.789   6.304   3.685  0.3449 -0.1225 -0.3877
11858TIP3    H156989   1.792   6.293   3.780 -0.0874 -2.3646 -0.6049
11858TIP3    H256990   1.868   6.353   3.664  1.1844 -0.8583  0.9974
11859TIP3   OH256991   6.818   3.278   1.584 -0.4582  0.3509 -0.0209
11859TIP3    H156992   6.886   3.294   1.650 -1.7145  0.9455  1.1665
11859TIP3    H256993   6.796   3.186   1.594  0.7045 -0.0348 -0.9365
11860TIP3   OH256994   7.049   3.033   2.594  0.4230 -0.6411  0.2377
11860TIP3    H156995   7.099   3.108   2.627  0.5923 -0.2108 -0.9932
11860TIP3    H256996   7.114   2.979   2.548 -0.0297 -0.6615 -0.3806
11861TIP3   OH256997   1.083   3.700   3.999  0.5068  0.3754  0.2840
11861TIP3    H156998   1.114   3.787   4.023  0.5390  0.0531  1.4323
11861TIP3    H256999   1.002   3.716   3.950  0.2791  1.0335  0.8608
11862TIP3   OH257000   7.127   3.860   3.072  0.1921  0.2663  0.4141
11862TIP3    H157001   7.047   3.910   3.085  0.3243  0.4462  0.5517
11862TIP3    H257002   7.175   3.909   3.004  0.1180  0.0788  0.2261
11863TIP3   OH257003   4.602   5.466   0.340 -0.4351 -0.1359  0.4590
11863TIP3    H157004   4.546   5.504   0.408  1.4284  1.1119  1.3238
11863TIP3    H257005   4.540   5.431   0.276 -2.2279 -0.1016  2.0984
11864TIP3   OH257006   6.765   7.054   0.723  0.3550  0.7276 -0.6297
11864TIP3    H157007   6.727   7.020   0.642  0.3582 -1.1065  0.1090
11864TIP3    H257008   6.809   6.979   0.762 -1.0712  1.1524  1.9171
11865TIP3   OH257009   5.459   6.964  12.811  0.0590  0.1521 -0.0915
11865TIP3    H157010   5.527   6.897  12.805 -0.4320 -0.3105 -0.5906
11865TIP3    H257011   5.457   7.003  12.723  1.1712  1.6459  0.5298
11866TIP3   OH257012   1.286   1.824   1.055  0.0345 -0.1316 -0.2550
11866TIP3    H157013   1.372   1.854   1.083 -0.1416 -0.9815  1.2736
11866TIP3    H257014   1.301   1.735   1.023 -0.3939 -0.6158  0.8485
11867TIP3   OH257015   5.774   5.190  13.947  0.8377  0.4071  0.2573
11867TIP3    H157016   5.793   5.129  13.875 -0.6627  0.3951 -0.1361
11867TIP3    H257017   5.755   5.273  13.903  1.9051  0.9166  0.7486
11868TIP3   OH257018   3.473   4.388  14.571  0.3004  0.1161  0.8006
11868TIP3    H157019   3.386   4.371  14.534 -0.8416 -0.3083  3.5839
11868TIP3    H257020   3.457   4.404  14.664  3.5108 -2.8479  1.9657
11869TIP3   OH257021   5.256   4.945   3.507  0.0685 -0.5037  0.0789
11869TIP3    H157022   5.302   4.993   3.437  0.5225 -1.0853 -0.0252
11869TIP3    H257023   5.326   4.901   3.555 -0.2378 -0.0640  0.9374
11870TIP3   OH257024   7.004   3.465  15.273  0.5926  0.1708 -0.1005
11870TIP3    H157025   7.087   3.419  15.260 -0.0864 -0.5826 -1.8320
11870TIP3    H257026   7.029   3.558  15.277  1.7611 -0.1901  1.7006
11871TIP3   OH257027   7.140   4.931   1.585 -0.0637 -0.1094 -0.4840
11871TIP3    H157028   7.066   4.926   1.645  0.8595  0.5191  0.7095
11871TIP3    H257029   7.173   4.841   1.581 -0.5465 -0.2838 -0.5914
11872TIP3   OH257030   1.303   6.565   2.682  0.2277  0.1078  0.6172
11872TIP3    H157031   1.363   6.514   2.627  0.9328  1.2725  0.2726
11872TIP3    H257032   1.355   6.588   2.759  0.0062  0.5168  0.6469
11873TIP3   OH257033   1.318   2.069   1.825 -0.1314  0.3228 -0.0989
11873TIP3    H157034   1.396   2.116   1.856  0.9276 -0.7917 -1.0380
11873TIP3    H257035   1.260   2.067   1.901  2.2538 -2.0076  1.7844
11874TIP3   OH257036   2.167   4.904   0.471 -0.0114 -0.5701 -0.2498
11874TIP3    H157037   2.193   4.869   0.556  0.2534 -1.2613 -0.6073
11874TIP3    H257038   2.224   4.859   0.408  0.3353  0.5206 -0.7226
11875TIP3   OH257039   2.164   4.437   0.771  0.6743 -0.6845  0.1545
11875TIP3    H157040   2.112   4.515   0.758  0.2953 -0.9339  0.1802
11875TIP3    H257041   2.236   4.465   0.828  0.5172 -0.3680  0.1937
11876TIP3   OH257042   1.822   6.998  14.661  0.0699 -0.1489 -0.2605
11876TIP3    H157043   1.802   7.086  14.629  2.2442  0.5062  0.1185
11876TIP3    H257044   1.879   6.961  14.594 -0.6146 -1.1797 -0.2843
11877TIP3   OH257045   7.161   3.858  14.216 -0.2606  0.1057 -0.4740
11877TIP3    H157046   7.159   3.775  14.264  0.5265 -0.0512 -0.7047
11877TIP3    H257047   7.158   3.832  14.124 -0.2032  0.3419 -0.5422
11878TIP3   OH257048   6.348   5.716   1.471 -0.0761  0.5127  0.0426
11878TIP3    H157049   6.270   5.663   1.452  1.2269 -1.0989 -1.0321
11878TIP3    H257050   6.376   5.749   1.385  0.7159  0.6367  0.3449
11879TIP3   OH257051   3.339   6.691   0.682  0.5078  0.0111  0.3080
11879TIP3    H157052   3.316   6.622   0.620  0.3720  2.6650 -2.7245
11879TIP3    H257053   3.255   6.722   0.715  0.3300  1.3970 -1.3932
11880TIP3   OH257054   6.130   3.530  13.096  0.2268 -0.2134 -0.1846
11880TIP3    H157055   6.060   3.594  13.082  0.5389  0.4815  1.3750
11880TIP3    H257056   6.180   3.531  13.014 -0.0471  1.1885 -0.3421
11881TIP3   OH257057   4.107   5.942   3.804 -0.1037  0.2866  0.4428
11881TIP3    H157058   4.060   6.006   3.750  0.5580  1.2410  0.9852
11881TIP3    H257059   4.096   5.975   3.894  0.9939  0.1208  0.6366
11882TIP3   OH257060   0.295   0.302  14.247  0.1286 -0.0865 -0.4496
11882TIP3    H157061   0.315   0.212  14.222  0.4771 -0.2889  0.5348
11882TIP3    H257062   0.346   0.356  14.187  0.6468 -0.5642 -0.4427
11883TIP3   OH257063   6.226   4.858  14.897 -0.1183  0.8020  0.2152
11883TIP3    H157064   6.268   4.925  14.844 -1.0573  1.4829  0.3127
11883TIP3    H257065   6.203   4.903  14.978 -0.8420  0.3791  0.2462
11884TIP3   OH257066   7.119   3.119   4.303  0.0971 -0.7052 -0.4285
11884TIP3    H157067   7.114   3.051   4.370 -0.0754 -1.7497 -1.4931
11884TIP3    H257068   7.134   3.200   4.352 -1.6495 -1.2247  0.9841
11885TIP3   OH257069   1.910   4.917   0.806 -0.5187 -0.5742  0.5871
11885TIP3    H157070   1.894   4.912   0.712 -0.7419 -0.2114  0.6038
11885TIP3    H257071   1.975   4.986   0.816  0.2266 -1.2688  0.6199
11886TIP3   OH257072   1.307   4.821   3.477  0.4006  0.2034 -0.1738
11886TIP3    H157073   1.225   4.781   3.448  1.2401 -1.7965  0.1290
11886TIP3    H257074   1.281   4.899   3.526 -1.2018  1.2529 -2.6165
11887TIP3   OH257075   0.838   4.348  14.455 -0.1677  0.3894  0.4491
11887TIP3    H157076   0.890   4.326  14.378  0.5921  0.0505  1.0564
11887TIP3    H257077   0.872   4.433  14.483 -1.8111  1.4878 -0.7656
11888TIP3   OH257078   0.252   0.027   1.141  0.2709 -0.6937 -0.5813
11888TIP3    H157079   0.295   0.108   1.113  2.2169 -0.4130  2.9105
11888TIP3    H257080   0.305  -0.042   1.102  0.2503 -0.2955 -1.3220
11889TIP3   OH257081   3.745   0.910   0.024 -0.4084 -0.2094  0.2987
11889TIP3    H157082   3.768   0.999  -0.004  1.4465 -0.7035  0.1327
11889TIP3    H257083   3.708   0.920   0.111 -2.1330  0.9209 -0.5508
11890TIP3   OH257084   5.235   6.387   1.299 -0.0227  0.0166 -0.4734
11890TIP3    H157085   5.143   6.367   1.318 -0.3251  0.2794 -1.6296
11890TIP3    H257086   5.252   6.466   1.349 -0.3366 -0.1976 -0.0148
11891TIP3   OH257087   6.762   2.061  15.188  0.2806  0.2578 -0.1794
11891TIP3    H157088   6.734   2.080  15.099  0.4187 -0.0122 -0.2837
11891TIP3    H257089   6.852   2.030  15.179 -0.0571 -0.7774 -0.0590
11892TIP3   OH257090   3.927   5.036   4.603 -0.7068 -0.0023 -0.2306
11892TIP3    H157091   3.991   5.038   4.532 -0.3699  0.1169  0.0734
11892TIP3    H257092   3.916   5.128   4.626  0.6995 -0.1749  1.2196
11893TIP3   OH257093   0.352   5.450   2.643 -0.2763  0.1353  0.7970
11893TIP3    H157094   0.282   5.430   2.581 -0.4281  1.5102  0.4890
11893TIP3    H257095   0.328   5.536   2.678  0.5514  0.0032  1.6967
11894TIP3   OH257096   1.565   3.168   0.814 -0.0579 -0.0281  0.1668
11894TIP3    H157097   1.555   3.213   0.730 -0.3502  0.7390  0.6044
11894TIP3    H257098   1.648   3.200   0.849  1.5381 -2.5937 -1.1701
11895TIP3   OH257099   0.069   3.905  10.897 -0.2485 -0.2931  0.4389
11895TIP3    H157100  -0.013   3.915  10.944  0.1860 -0.2860  1.2184
11895TIP3    H257101   0.126   3.859  10.959  0.4452  0.0206  0.0380
11896TIP3   OH257102   3.512   6.866  14.006  0.0343 -0.1573  0.0547
11896TIP3    H157103   3.467   6.950  13.992 -0.7636 -0.2839  1.8012
11896TIP3    H257104   3.495   6.844  14.097  1.3953 -1.5592 -0.0066
11897TIP3   OH257105   2.551   5.486  14.810  0.3605  0.0095  0.2526
11897TIP3    H157106   2.512   5.406  14.775 -0.5295 -0.8763  3.1096
11897TIP3    H257107   2.644   5.465  14.819  0.5667  0.1987 -1.4110
11898TIP3   OH257108   1.184   3.747   0.390  0.2772  0.3123  0.0103
11898TIP3    H157109   1.115   3.730   0.455  0.8406 -0.2881  0.4635
11898TIP3    H257110   1.149   3.818   0.337 -1.0758 -0.5667 -0.3243
11899TIP3   OH257111   6.667   4.948   1.117  0.0873 -0.2597  0.5144
11899TIP3    H157112   6.630   4.976   1.033 -1.3469 -4.8808 -0.5243
11899TIP3    H257113   6.762   4.948   1.102 -0.0660  0.5018 -0.5713
11900TIP3   OH257114   1.809   2.487   5.851 -0.0003  0.0308  0.1508
11900TIP3    H157115   1.903   2.486   5.869  0.0927 -1.1919 -0.3502
11900TIP3    H257116   1.768   2.455   5.931  0.1453 -1.3908 -0.3362
11901TIP3   OH257117   5.489   3.908   1.439 -0.5107 -0.4517 -0.0049
11901TIP3    H157118   5.480   3.967   1.514 -4.3549 -0.9089 -0.0252
11901TIP3    H257119   5.567   3.855   1.460  0.5154  1.7559  1.9754
11902TIP3   OH257120   3.187   4.225   4.173  0.0365  0.8089 -0.1347
11902TIP3    H157121   3.117   4.275   4.214  1.3612  2.4423  0.1943
11902TIP3    H257122   3.173   4.237   4.079 -0.1982  1.0395 -0.0712
11903TIP3   OH257123   6.370   3.868   9.789  0.2320  0.3843  0.1557
11903TIP3    H157124   6.358   3.795   9.728 -0.3708  0.3702  0.2962
11903TIP3    H257125   6.425   3.832   9.858  0.6668  0.3142 -0.2229
11904TIP3   OH257126   2.367   4.333   0.621 -0.3829  0.0681 -0.2954
11904TIP3    H157127   2.294   4.354   0.679  0.5322  0.7306  0.6352
11904TIP3    H257128   2.402   4.251   0.655 -0.1379  0.2142 -0.1940
11905TIP3   OH257129   6.325   6.118   3.402  0.0615  0.3843 -0.1995
11905TIP3    H157130   6.357   6.124   3.492 -0.2638  0.1155 -0.0647
11905TIP3    H257131   6.302   6.025   3.391  0.7624  0.2771 -0.7848
11906TIP3   OH257132   4.427   5.372   4.168 -0.4697  0.5282  0.5884
11906TIP3    H157133   4.486   5.448   4.164  3.3105 -2.2280  0.6429
11906TIP3    H257134   4.460   5.313   4.100 -1.6029 -2.1776  2.2970
11907TIP3   OH257135   3.483   0.163   0.523 -0.1073  1.0033 -0.5372
11907TIP3    H157136   3.518   0.187   0.609 -0.4751 -1.4053  0.3130
11907TIP3    H257137   3.388   0.161   0.536 -0.1984  1.2836 -1.1710
11908TIP3   OH257138   6.875   1.712   1.655  0.0710 -0.2087  0.3119
11908TIP3    H157139   6.837   1.730   1.569  1.7240  0.5722 -0.2620
11908TIP3    H257140   6.900   1.798   1.689 -1.4564 -0.3973  2.0139
11909TIP3   OH257141   5.794   1.715   1.655  0.4080 -0.0051 -0.0944
11909TIP3    H157142   5.867   1.682   1.707 -0.9260  0.0996  1.9144
11909TIP3    H257143   5.786   1.653   1.583  2.2264 -0.2156 -0.1419
11910TIP3   OH257144   1.975   4.643  15.361 -0.1789 -0.3530  0.5855
11910TIP3    H157145   1.902   4.625  15.302  0.1383 -0.8162  0.3281
11910TIP3    H257146   1.996   4.558  15.400  0.4456 -0.2932  0.3901
11911TIP3   OH257147   1.177   0.324   1.615 -0.0784 -0.0985 -0.1824
11911TIP3    H157148   1.200   0.234   1.592 -0.8327 -0.0994 -0.9516
11911TIP3    H257149   1.081   0.324   1.619 -0.1175  0.8291 -0.8581
11912TIP3   OH257150   1.225   5.383   2.025  0.0848  0.3584  0.2003
11912TIP3    H157151   1.317   5.360   2.015 -0.0566  0.1938 -0.7795
11912TIP3    H257152   1.205   5.362   2.116  0.5149 -1.3830 -0.0865
11913TIP3   OH257153   3.244   0.344   1.473 -0.0045  0.1566 -0.4247
11913TIP3    H157154   3.339   0.353   1.478 -0.3248  2.9161  2.4958
11913TIP3    H257155   3.222   0.362   1.381  2.1919  0.1586 -0.9602
11914TIP3   OH257156   5.405   2.009  15.533  0.3757  0.6911  0.2682
11914TIP3    H157157   5.310   2.001  15.527  0.5560 -2.3138  0.4057
11914TIP3    H257158   5.437   1.981  15.447  1.1983  0.0277  0.7802
11915TIP3   OH257159   6.345   3.096  12.900  0.6141 -0.2054  0.1085
11915TIP3    H157160   6.419   3.106  12.961  0.4485  1.6132  0.0455
11915TIP3    H257161   6.327   3.002  12.900  1.1552 -0.3450  2.2351
11916TIP3   OH257162   6.814   5.542  15.018 -0.3815  0.0614  0.3374
11916TIP3    H157163   6.863   5.583  14.947 -0.5990  0.1368  0.2297
11916TIP3    H257164   6.855   5.456  15.029  0.0353  0.2827  0.5199
11917TIP3   OH257165   3.987   3.687  15.544 -0.7050  0.7022  0.1379
11917TIP3    H157166   4.053   3.675  15.476  0.5122 -0.0639  1.4012
11917TIP3    H257167   3.944   3.770  15.523 -1.5549 -0.3751 -2.5099
11918TIP3   OH257168   2.453   6.395  14.809 -0.6838  0.2687  0.0262
11918TIP3    H157169   2.376   6.378  14.755  0.3109  0.2747 -1.4051
11918TIP3    H257170   2.527   6.369  14.755  0.3580  0.6536  1.2383
11919TIP3   OH257171   3.977   1.159   3.270 -0.8511 -0.3090 -0.4409
11919TIP3    H157172   4.046   1.191   3.329 -0.7508 -0.5959 -0.3999
11919TIP3    H257173   4.008   1.073   3.243 -0.3259  0.3000 -1.8392
11920TIP3   OH257174   6.601   2.733   3.738  0.3609 -0.2085  0.0375
11920TIP3    H157175   6.677   2.791   3.726  0.7008 -0.4452  0.9758
11920TIP3    H257176   6.620   2.658   3.682  0.7352 -0.1842  0.1285
11921TIP3   OH257177   1.130   4.034  11.909  0.0582  1.0858  0.4335
11921TIP3    H157178   1.205   3.976  11.894  0.8156  1.6718  1.9610
11921TIP3    H257179   1.096   4.052  11.821  1.3000  0.2886 -0.2156
11922TIP3   OH257180   0.006   2.572   3.148 -0.8558 -0.1313 -0.2529
11922TIP3    H157181  -0.053   2.532   3.211 -2.2653  1.7738 -0.2946
11922TIP3    H257182   0.093   2.563   3.186 -1.2537 -2.2166  0.2169
11923TIP3   OH257183   5.342   6.005  15.028  0.4271  0.2609 -0.0316
11923TIP3    H157184   5.424   5.956  15.024  0.0642 -0.3477  0.0172
11923TIP3    H257185   5.365   6.084  15.077  1.1404  0.4065 -0.5800
11924TIP3   OH257186   1.823   4.083   1.266  0.1459 -0.2224 -0.3178
11924TIP3    H157187   1.791   4.171   1.247 -1.7393 -0.7791  0.0977
11924TIP3    H257188   1.751   4.025   1.240 -0.5397 -1.3548  3.6213
11925TIP3   OH257189   3.356   1.534  12.927  0.0441  0.0941  0.7826
11925TIP3    H157190   3.440   1.568  12.897 -0.8505  1.6097 -0.0247
11925TIP3    H257191   3.367   1.523  13.022  1.4585 -0.6727  0.5407
11926TIP3   OH257192   1.246   4.727   1.820  0.2548 -0.0469  0.3717
11926TIP3    H157193   1.308   4.744   1.749  1.7571 -0.4259  1.5583
11926TIP3    H257194   1.227   4.813   1.856  0.6917  0.0076  0.4796
11927TIP3   OH257195   1.608   6.245  14.537  0.2097  0.1997  0.1544
11927TIP3    H157196   1.519   6.223  14.566  0.5627  0.4411  1.4805
11927TIP3    H257197   1.597   6.295  14.457 -1.0062  2.8585  1.9136
11928TIP3   OH257198   0.767   2.899  14.061  0.0080  0.4059 -0.0967
11928TIP3    H157199   0.739   2.838  14.129 -0.0010  0.1078 -0.3701
11928TIP3    H257200   0.722   2.981  14.082  1.5791  0.9209  1.4550
11929TIP3   OH257201   4.905   2.057   2.430  0.2521 -0.4845  0.1858
11929TIP3    H157202   4.983   2.013   2.464  2.0350  2.4936  0.1769
11929TIP3    H257203   4.935   2.146   2.408 -2.3611 -0.3002 -3.0747
11930TIP3   OH257204   3.694   1.303   0.326 -0.3095  0.4446 -0.0161
11930TIP3    H157205   3.771   1.360   0.316  1.3863 -1.3803  2.1726
11930TIP3    H257206   3.688   1.258   0.241  0.0113  1.8054 -0.7883
11931TIP3   OH257207   0.194   6.098   2.107 -0.1162 -0.2818 -0.3288
11931TIP3    H157208   0.271   6.134   2.150 -0.7436  1.3116 -0.4994
11931TIP3    H257209   0.202   6.127   2.016 -0.9992  0.0490 -0.3094
11932TIP3   OH257210   2.326   4.006   2.653 -0.2155 -0.5359 -0.2802
11932TIP3    H157211   2.350   3.955   2.731  2.5309  0.2144 -0.5632
11932TIP3    H257212   2.337   4.097   2.680 -1.3435 -0.2036 -0.9268
11933TIP3   OH257213   0.273   5.208  14.812  0.5380  0.2305 -0.3792
11933TIP3    H157214   0.338   5.260  14.765 -0.5782  2.4814  0.5143
11933TIP3    H257215   0.307   5.200  14.901  0.7156 -0.5994 -0.5181
11934TIP3   OH257216   6.827   5.792   2.236  0.3289 -0.1494  0.3599
11934TIP3    H157217   6.801   5.750   2.154 -0.6634 -1.6151  1.3877
11934TIP3    H257218   6.760   5.859   2.251 -0.1585 -0.6821  0.5717
11935TIP3   OH257219   1.578   2.607  15.295  0.0207  0.1145  0.4101
11935TIP3    H157220   1.601   2.687  15.343  0.7715 -0.0397  0.3055
11935TIP3    H257221   1.542   2.639  15.212 -1.1340  0.3794  1.0038
11936TIP3   OH257222   4.236   2.005  15.067  0.6231  0.2084 -0.6470
11936TIP3    H157223   4.274   1.917  15.060 -0.5627 -0.4505  1.0193
11936TIP3    H257224   4.163   2.003  15.005 -0.7744 -0.7339  1.0048
11937TIP3   OH257225   4.915   1.980  14.635  0.1006  0.5052  0.0131
11937TIP3    H157226   4.877   1.914  14.693 -0.4097  0.0660 -0.8155
11937TIP3    H257227   4.845   2.001  14.573  1.5895 -1.1846 -2.2792
11938TIP3   OH257228   1.055   2.224   0.896 -0.5608  0.7352  0.4681
11938TIP3    H157229   1.110   2.231   0.974 -1.7312  0.8107  1.3077
11938TIP3    H257230   1.062   2.133   0.869 -1.6492  0.2232  1.8156
11939TIP3   OH257231   0.889   5.131   0.261 -0.1031  0.5335 -0.3426
11939TIP3    H157232   0.930   5.171   0.184 -0.2984  1.5271  0.0747
11939TIP3    H257233   0.907   5.191   0.333  0.7914 -0.7919  0.5718
11940TIP3   OH257234   2.239   4.404   0.180 -0.3985  0.2112  0.4590
11940TIP3    H157235   2.309   4.343   0.155 -0.4658  0.6372 -0.8210
11940TIP3    H257236   2.223   4.386   0.272  2.3436  1.0247  1.1463
11941TIP3   OH257237   0.276   0.309   1.033 -0.2550 -0.4747 -0.8003
11941TIP3    H157238   0.298   0.374   1.100  2.0164 -1.0612 -0.9551
11941TIP3    H257239   0.184   0.325   1.014 -0.5160  0.7483  1.3214
11942TIP3   OH257240   6.246   6.206  12.654  0.7133  0.3394 -0.3228
11942TIP3    H157241   6.203   6.227  12.737  1.0199 -0.8900  0.1578
11942TIP3    H257242   6.292   6.286  12.630  0.6754  0.6828  0.7286
11943TIP3   OH257243   4.419   0.960  15.337  0.3314  0.1293  0.5023
11943TIP3    H157244   4.407   0.871  15.303  0.3084 -0.0837  1.0592
11943TIP3    H257245   4.332   0.999  15.332  0.6125  0.5803 -1.0161
11944TIP3   OH257246   5.994   2.901   3.275  0.1946 -0.1270 -0.0154
11944TIP3    H157247   6.032   2.928   3.192 -1.1119  0.1289 -0.5305
11944TIP3    H257248   5.911   2.860   3.252  0.4931 -1.3711  1.0472
11945TIP3   OH257249   6.251   1.118   1.246 -0.0808 -0.3312  0.0360
11945TIP3    H157250   6.201   1.183   1.296 -1.5962 -1.3085 -0.1945
11945TIP3    H257251   6.303   1.072   1.312  0.8918  1.0034  0.2189
11946TIP3   OH257252   0.001   2.122   1.650  0.3279  0.2281  0.3160
11946TIP3    H157253  -0.002   2.053   1.584 -0.9139 -0.4982  1.1119
11946TIP3    H257254   0.092   2.122   1.680  0.5937 -0.3072 -0.4594
11947TIP3   OH257255   6.572   0.296  14.643 -0.0959  0.2037  0.1850
11947TIP3    H157256   6.598   0.204  14.639 -0.5964  0.1279 -1.8454
11947TIP3    H257257   6.644   0.343  14.601 -0.8714  0.4986 -0.8391
11948TIP3   OH257258   4.895   6.160   0.381  0.3123 -0.8344 -0.2606
11948TIP3    H157259   4.826   6.103   0.347  0.8719 -1.8295  0.2698
11948TIP3    H257260   4.972   6.138   0.328 -0.3299  2.0124 -2.5640
11949TIP3   OH257261   3.884   3.677   3.775 -0.4325  0.2713  0.4052
11949TIP3    H157262   3.878   3.583   3.755 -0.4991 -0.1028  2.0811
11949TIP3    H257263   3.973   3.702   3.750 -0.4191 -0.2309 -0.0640
11950TIP3   OH257264   6.055   0.307   1.893  0.0016 -0.0208 -0.3864
11950TIP3    H157265   6.005   0.240   1.940 -1.1647  1.7809  1.0085
11950TIP3    H257266   6.142   0.304   1.932 -0.5116  0.3782  0.7970
11951TIP3   OH257267   4.143   0.597  14.285 -0.9508 -0.3817  0.0632
11951TIP3    H157268   4.207   0.532  14.254  0.2260  0.5757  0.4620
11951TIP3    H257269   4.195   0.675  14.303 -2.6236  1.2878 -2.1621
11952TIP3   OH257270   2.165   3.717   1.332 -0.2436 -0.1571 -0.5112
11952TIP3    H157271   2.124   3.720   1.245 -0.8268 -0.9773 -0.2764
11952TIP3    H257272   2.120   3.785   1.382  0.6170  0.8210 -1.0759
11953TIP3   OH257273   2.775   6.259  15.421 -0.5102 -0.2132 -0.2269
11953TIP3    H157274   2.765   6.311  15.501 -0.7916  0.9143 -0.9865
11953TIP3    H257275   2.689   6.265  15.378  0.4661  1.5353 -2.0072
11954TIP3   OH257276   0.461   0.781   2.590 -0.1277 -0.3128  0.3383
11954TIP3    H157277   0.459   0.778   2.685  1.1165  0.4236  0.3972
11954TIP3    H257278   0.548   0.814   2.568  0.5544 -2.9321 -1.1211
11955TIP3   OH257279   6.347   4.607   1.195  0.4882 -0.1474  0.6058
11955TIP3    H157280   6.386   4.650   1.271  0.4119 -1.6024  1.4918
11955TIP3    H257281   6.333   4.678   1.131  0.9200  1.0199  1.7868
11956TIP3   OH257282   4.245   0.624   0.205 -0.2618 -0.2034  0.8179
11956TIP3    H157283   4.168   0.601   0.153 -0.8056  1.5716  0.7945
11956TIP3    H257284   4.249   0.557   0.273 -1.8400 -0.3289  0.8107
11957TIP3   OH257285   3.350   4.602  14.976 -0.0564  0.4801 -0.3829
11957TIP3    H157286   3.298   4.558  15.043  0.2802  1.1016  0.3061
11957TIP3    H257287   3.338   4.550  14.897  1.0767 -1.3752  0.6234
11958TIP3   OH257288   3.780   0.424   0.168  0.2122 -0.3054  0.2428
11958TIP3    H157289   3.794   0.349   0.226 -0.9837  0.2413  1.2544
11958TIP3    H257290   3.752   0.385   0.085  1.0313 -1.0433  0.3030
11959TIP3   OH257291   0.817   6.936  11.542 -0.0251 -0.0893 -0.2081
11959TIP3    H157292   0.755   6.873  11.504 -0.1006  0.3717 -0.8663
11959TIP3    H257293   0.902   6.910  11.508 -0.1997  0.8247 -1.3870
11960TIP3   OH257294   3.028   6.362  13.486  0.3644 -0.0107  0.5262
11960TIP3    H157295   3.059   6.321  13.405  1.5126  0.6614  0.6217
11960TIP3    H257296   3.023   6.455  13.465 -2.2718 -0.1536  0.2981
11961TIP3   OH257297   4.493   2.055   0.978  0.0109 -0.2746 -0.3584
11961TIP3    H157298   4.503   2.036   0.884  1.2764  0.0050 -0.2982
11961TIP3    H257299   4.505   2.150   0.984  3.0517 -0.6381  0.4216
11962TIP3   OH257300   5.314   4.430   3.708 -0.7122  0.3015 -0.4029
11962TIP3    H157301   5.220   4.415   3.702 -0.3733 -1.2212 -2.2016
11962TIP3    H257302   5.325   4.521   3.680 -1.2807 -0.6905 -4.0521
11963TIP3   OH257303   6.316   0.633  11.757 -0.1676 -0.2596 -0.2309
11963TIP3    H157304   6.336   0.592  11.842  2.3053 -0.0181 -0.6548
11963TIP3    H257305   6.396   0.621  11.706 -1.8223 -0.8562 -2.7381
11964TIP3   OH257306   2.368   6.677   2.029 -0.2129 -0.2942  0.1112
11964TIP3    H157307   2.349   6.667   2.123 -1.6577 -0.4635 -0.1846
11964TIP3    H257308   2.370   6.771   2.015 -1.8563 -0.2676 -0.0351
11965TIP3   OH257309   0.306   2.060   0.204 -0.6839 -0.1681 -0.2294
11965TIP3    H157310   0.291   1.972   0.241 -1.4152  0.1271  0.1927
11965TIP3    H257311   0.225   2.108   0.223  0.1363  0.9346  0.5008
11966TIP3   OH257312   0.423   2.480  15.125 -0.4408  0.7095  0.2453
11966TIP3    H157313   0.518   2.480  15.111 -0.4388 -0.7314  0.1198
11966TIP3    H257314   0.397   2.390  15.104 -2.1217  1.6275 -1.7127
11967TIP3   OH257315   3.951   6.031  14.834  0.1025  0.0213 -0.0218
11967TIP3    H157316   3.922   6.034  14.925 -0.8879 -0.0896 -0.3307
11967TIP3    H257317   4.047   6.029  14.839  0.0362 -0.5517  1.0257
11968TIP3   OH257318   3.969   3.742  13.902  1.4470  0.0522 -0.6723
11968TIP3    H157319   4.060   3.721  13.882  1.2691  0.7145 -2.2147
11968TIP3    H257320   3.936   3.785  13.823 -0.4134 -0.8119 -0.3939
11969TIP3   OH257321   2.858   4.152   2.137 -0.2628 -0.1298 -0.0540
11969TIP3    H157322   2.881   4.140   2.045 -0.5353  2.1856 -0.4470
11969TIP3    H257323   2.765   4.129   2.142 -0.6653  1.3163 -0.6971
11970TIP3   OH257324   0.051   5.314   0.895  0.5381 -0.3155 -0.3586
11970TIP3    H157325   0.141   5.342   0.878  0.5327  0.2909  0.5538
11970TIP3    H257326   0.052   5.220   0.883  1.0993 -0.2050 -1.2058
11971TIP3   OH257327   3.701   5.138   0.948  0.4785 -0.2779  0.4003
11971TIP3    H157328   3.759   5.130   1.024  0.2434 -3.3121  0.3027
11971TIP3    H257329   3.736   5.078   0.883 -0.9309  0.2331 -0.8709
11972TIP3   OH257330   0.179   5.851   2.217 -0.4203  0.3197 -0.5716
11972TIP3    H157331   0.084   5.837   2.221 -0.4044 -0.1155 -1.5881
11972TIP3    H257332   0.189   5.933   2.169 -0.2358 -0.4765 -1.9178
11973TIP3   OH257333   0.810   2.130  14.902 -0.1935  0.9111  0.6248
11973TIP3    H157334   0.887   2.133  14.958  1.1538  1.3725 -1.1965
11973TIP3    H257335   0.823   2.053  14.847 -0.9564  1.0595  0.2236
11974TIP3   OH257336   1.760   3.551   1.532  0.0350 -0.2346 -0.1229
11974TIP3    H157337   1.819   3.568   1.459  1.4574  1.7989  1.4386
11974TIP3    H257338   1.675   3.535   1.491  0.6075  1.7016 -2.1849
11975TIP3   OH257339   0.986   5.472   0.771  0.3273 -0.0254 -0.2102
11975TIP3    H157340   1.049   5.535   0.737  0.6556  0.1257  0.6691
11975TIP3    H257341   0.989   5.483   0.866  0.3111 -1.2782 -0.0487
11976TIP3   OH257342   3.118   4.475  15.228 -0.2815  0.3659  0.7632
11976TIP3    H157343   3.121   4.492  15.322 -0.6734 -1.8400  1.1850
11976TIP3    H257344   3.169   4.395  15.215 -0.8742  0.2145 -0.7943
11977TIP3   OH257345   3.089   4.118   2.902 -0.7900 -0.4801 -0.2139
11977TIP3    H157346   3.171   4.164   2.882 -0.8698 -0.6571 -0.9809
11977TIP3    H257347   3.089   4.042   2.843 -2.4802  0.6548 -1.7518
11978TIP3   OH257348   6.341   4.710  14.369  0.7184 -0.2897  0.2955
11978TIP3    H157349   6.268   4.750  14.416  0.7636 -1.4936  1.4406
11978TIP3    H257350   6.305   4.687  14.283  0.0934  0.2082  0.4237
11979TIP3   OH257351   0.157   3.013   2.073  0.4171 -0.2953  0.1940
11979TIP3    H157352   0.217   2.983   2.005  0.6130 -0.0235  0.2475
11979TIP3    H257353   0.201   2.992   2.155 -0.0240 -1.0420  0.2416
11980TIP3   OH257354   0.764   1.466  15.501 -0.7908 -0.2202 -0.3053
11980TIP3    H157355   0.749   1.552  15.539 -0.4676 -1.1958  2.1422
11980TIP3    H257356   0.774   1.408  15.576  1.4716 -1.9805 -1.8682
11981TIP3   OH257357   2.237   4.563   5.509 -0.3048 -0.3093 -0.4832
11981TIP3    H157358   2.178   4.532   5.440 -0.9449 -0.0767 -0.0483
11981TIP3    H257359   2.233   4.495   5.576 -0.5887  0.0282 -0.1614
11982TIP3   OH257360   1.717   5.756  12.661 -0.5669  0.3709 -0.6560
11982TIP3    H157361   1.709   5.676  12.713  0.6290  0.6755 -0.0000
11982TIP3    H257362   1.714   5.725  12.570 -1.4107 -0.2873 -0.4032
11983TIP3   OH257363   1.533   5.912   0.780 -0.0180  0.1165 -0.8863
11983TIP3    H157364   1.593   5.847   0.745  1.2453 -0.1220  1.5578
11983TIP3    H257365   1.446   5.885   0.750  0.7880 -1.1385 -2.1150
11984TIP3   OH257366   1.286   4.960  14.806 -0.8226  0.7456 -0.2888
11984TIP3    H157367   1.338   4.982  14.728 -0.7000  0.8535 -0.1748
11984TIP3    H257368   1.214   5.023  14.803 -0.7876  0.7861 -0.2843
11985TIP3   OH257369   2.854   7.142   1.075 -0.0093  0.4959  0.2442
11985TIP3    H157370   2.897   7.196   1.141  2.7566  0.6639 -1.6198
11985TIP3    H257371   2.788   7.201   1.036  0.5396  1.4017  0.6678
11986TIP3   OH257372   2.830   0.066   0.733  0.0670  0.1601  0.6314
11986TIP3    H157373   2.880   0.131   0.782  0.9154  0.5477 -0.7070
11986TIP3    H257374   2.847   0.088   0.641  0.8450 -2.3098  0.1450
11987TIP3   OH257375   4.702   6.837   0.327  0.3910  0.5235  0.2031
11987TIP3    H157376   4.744   6.753   0.306  0.0404  0.1375  1.0509
11987TIP3    H257377   4.771   6.889   0.368  0.7509  0.8427 -0.7995
11988TIP3   OH257378   3.722   4.189   0.557 -0.1437 -0.1849  0.8024
11988TIP3    H157379   3.710   4.223   0.645  2.0022 -3.4355  2.4620
11988TIP3    H257380   3.814   4.206   0.538 -0.2357 -0.8294 -0.2303
11989TIP3   OH257381   2.152   5.975   4.538  0.2392  0.1357 -0.0810
11989TIP3    H157382   2.221   5.923   4.496  1.0608  0.6275  0.6467
11989TIP3    H257383   2.165   6.063   4.505  0.2851  0.3331  0.4545
11990TIP3   OH257384   0.097   3.626   2.083 -0.1660 -0.0792 -0.1547
11990TIP3    H157385   0.155   3.693   2.046 -0.5400  0.4352  0.1957
11990TIP3    H257386   0.132   3.609   2.170 -0.2764 -0.0980 -0.1148
11991TIP3   OH257387   6.437   0.173   3.038  0.5866 -0.5582 -0.0965
11991TIP3    H157388   6.489   0.131   2.970  1.8376 -0.9345  1.0856
11991TIP3    H257389   6.366   0.111   3.057 -0.0197 -0.2627 -1.3404
11992TIP3   OH257390   5.156   5.654   4.326 -0.0813  0.1660 -0.0293
11992TIP3    H157391   5.099   5.725   4.298 -0.1631 -0.2467 -0.9234
11992TIP3    H257392   5.234   5.698   4.360 -1.3981  0.7803  2.3434
11993TIP3   OH257393   4.361   1.284  14.519  0.0258 -0.8188  0.1346
11993TIP3    H157394   4.394   1.196  14.500 -0.7843 -1.2203  0.5316
11993TIP3    H257395   4.433   1.328  14.564  0.0291 -1.6689  0.9706
11994TIP3   OH257396   5.607   4.143   0.811 -0.7503  0.0456  0.3455
11994TIP3    H157397   5.578   4.105   0.893 -0.4390 -0.4185  0.2432
11994TIP3    H257398   5.563   4.092   0.743  0.3062 -0.6754  0.1902
11995TIP3   OH257399   0.957   6.676   3.470  0.4099  0.7855  0.2351
11995TIP3    H157400   0.968   6.591   3.429 -1.0824  0.1592  1.1089
11995TIP3    H257401   0.997   6.666   3.557  1.8899  1.5441 -0.3373
11996TIP3   OH257402   0.458   7.101   2.561  0.7324  0.4383 -0.2213
11996TIP3    H157403   0.471   7.190   2.594 -0.8793  1.1028 -1.3567
11996TIP3    H257404   0.381   7.069   2.607  0.4536  0.1547 -0.8768
11997TIP3   OH257405   0.468   2.293   1.040  0.4200  0.1651  0.5499
11997TIP3    H157406   0.448   2.208   1.079 -1.1212  1.0141  1.6671
11997TIP3    H257407   0.562   2.306   1.057 -0.1627  0.4386  3.9235
11998TIP3   OH257408   3.198   2.300   5.068 -0.1002  0.0380  0.1089
11998TIP3    H157409   3.162   2.212   5.056  0.3077 -0.2252  0.7648
11998TIP3    H257410   3.262   2.310   4.998  0.3401 -0.4484  0.4395
11999TIP3   OH257411   0.657   5.991   1.385  0.3278 -0.4459  0.0725
11999TIP3    H157412   0.619   5.909   1.354 -2.1666  1.1603 -1.2443
11999TIP3    H257413   0.648   5.988   1.480 -0.6208 -1.2730 -0.0404
12000TIP3   OH257414   2.710   4.799   0.150  0.5556  0.4061 -0.5970
12000TIP3    H157415   2.685   4.796   0.242 -1.7946  0.5025 -1.1820
12000TIP3    H257416   2.671   4.719   0.113  2.0328  0.0352 -1.3743
12001TIP3   OH257417   1.768   4.422   2.456 -0.4362  0.3706 -0.2854
12001TIP3    H157418   1.851   4.375   2.450 -0.2235  0.8919 -1.5002
12001TIP3    H257419   1.708   4.359   2.498  0.0244 -0.7532 -1.2674
12002TIP3   OH257420   4.800   4.816   1.164 -0.1101 -0.1948  0.2055
12002TIP3    H157421   4.812   4.898   1.116  0.9646 -1.1438 -1.1762
12002TIP3    H257422   4.743   4.763   1.108 -0.1479 -0.6964  0.7149
12003TIP3   OH257423   7.073   1.514   2.312 -0.8792 -0.0089 -0.0024
12003TIP3    H157424   7.116   1.546   2.391  0.0292  2.5732 -1.4987
12003TIP3    H257425   6.980   1.530   2.327 -0.5074  2.6899 -0.4035
12004TIP3   OH257426   1.151   4.357   0.337  0.7516  0.1155  0.5680
12004TIP3    H157427   1.175   4.289   0.274  0.2957  0.7071 -0.2639
12004TIP3    H257428   1.057   4.370   0.323  0.5474 -0.0549  1.6875
12005TIP3   OH257429   2.717   5.061   0.031  0.1917  0.1923  0.6774
12005TIP3    H157430   2.708   4.976   0.073  0.9630  0.1279  0.7115
12005TIP3    H257431   2.776   5.110   0.088  0.8128  0.2889 -0.0395
12006TIP3   OH257432   3.072   5.271  14.179  0.6267 -0.4454 -0.5708
12006TIP3    H157433   2.999   5.270  14.241  1.6419  1.4674  0.7238
12006TIP3    H257434   3.150   5.262  14.233  1.5760  2.0821 -1.4435
12007TIP3   OH257435   1.773   1.561   1.795  0.4920 -0.5924 -0.4997
12007TIP3    H157436   1.809   1.479   1.829  0.6479 -0.8293 -1.2439
12007TIP3    H257437   1.765   1.617   1.873  0.5269 -1.2555 -0.0164
12008TIP3   OH257438   4.861   3.946   1.362 -0.5094 -0.3871  0.2616
12008TIP3    H157439   4.814   3.959   1.280 -0.6631  0.1568  0.4361
12008TIP3    H257440   4.794   3.954   1.430 -0.0308  1.2421  0.5677
12009TIP3   OH257441   2.550   2.975   3.295 -0.3949 -0.2606 -0.0331
12009TIP3    H157442   2.630   2.976   3.242 -1.3218  1.0233 -1.4456
12009TIP3    H257443   2.568   2.910   3.364  1.0961 -1.4496 -1.4886
12010TIP3   OH257444   3.325   5.592  14.961 -0.0854 -0.1393  0.1689
12010TIP3    H157445   3.363   5.673  14.995  2.3799 -1.2500  0.0907
12010TIP3    H257446   3.314   5.537  15.039 -2.1282  0.3764  0.2793
12011TIP3   OH257447   0.558   4.902   2.270 -0.1708  0.6271 -0.3050
12011TIP3    H157448   0.632   4.894   2.209  0.2561  1.0751  0.1498
12011TIP3    H257449   0.597   4.939   2.350 -0.9956  1.4289 -0.2684
12012TIP3   OH257450   0.099   2.961   0.119  0.3710  0.5254  0.6493
12012TIP3    H157451   0.099   2.907   0.040 -0.3905  0.6153  0.5813
12012TIP3    H257452   0.191   2.969   0.144  0.3655 -2.6224  1.8863
12013TIP3   OH257453   6.551   5.910   5.077  0.0395 -0.1961  0.0682
12013TIP3    H157454   6.595   5.894   5.161 -0.8259 -0.9043  0.3858
12013TIP3    H257455   6.478   5.848   5.075 -0.3306  0.2577 -0.9265
12014TIP3   OH257456   0.864   4.729  13.569 -0.2355  0.3427 -0.1071
12014TIP3    H157457   0.911   4.812  13.572  1.4103 -0.5475 -0.3942
12014TIP3    H257458   0.913   4.677  13.505 -0.1271 -1.5144  1.4624
12015TIP3   OH257459   0.464   6.324  15.037  0.3810 -0.1754  0.3177
12015TIP3    H157460   0.551   6.362  15.050  1.3210 -1.3250 -2.2780
12015TIP3    H257461   0.407   6.400  15.023  0.9767  0.5697  1.7547
12016TIP3   OH257462   5.512   6.209  13.943 -0.3812 -0.2164 -0.0219
12016TIP3    H157463   5.461   6.132  13.967 -0.5309 -0.3387 -0.7328
12016TIP3    H257464   5.595   6.197  13.989  0.4156 -1.8803 -1.8094
12017TIP3   OH257465   2.246   4.883  12.310  0.0467 -0.1259 -0.5282
12017TIP3    H157466   2.337   4.855  12.298  0.1217 -0.5910  1.0509
12017TIP3    H257467   2.245   4.973  12.275  0.5490 -0.8938 -2.6433
12018TIP3   OH257468   4.502   5.295   2.538 -0.4939 -0.6827  0.2758
12018TIP3    H157469   4.558   5.228   2.577  1.3719 -0.8223 -2.4532
12018TIP3    H257470   4.459   5.251   2.465 -1.5849  0.3257  0.2960
12019TIP3   OH257471   3.098   6.218   3.686  0.3303  0.7622 -0.7953
12019TIP3    H157472   3.153   6.290   3.718  2.1708 -1.5210  1.3788
12019TIP3    H257473   3.068   6.247   3.600  3.0110  3.1051 -1.0043
12020TIP3   OH257474   0.456   5.582   2.394 -0.3603  0.4219 -0.4168
12020TIP3    H157475   0.451   5.678   2.392 -0.1466  0.4853  1.6621
12020TIP3    H257476   0.549   5.563   2.402 -0.4046  0.0251 -0.8173
12021TIP3   OH257477   1.121   5.157   1.560  1.3305  0.0938 -0.1612
12021TIP3    H157478   1.106   5.204   1.478 -0.5189 -1.3357 -0.6815
12021TIP3    H257479   1.114   5.223   1.628 -3.3055  0.3045 -0.7071
12022TIP3   OH257480   2.332   5.797   1.562  0.1989  0.0339  0.2054
12022TIP3    H157481   2.310   5.756   1.646  0.0593 -0.7823 -0.2216
12022TIP3    H257482   2.344   5.889   1.583  1.5189 -0.3778  1.3765
12023TIP3   OH257483   4.352   5.522  11.666 -0.5631  0.2010  0.3511
12023TIP3    H157484   4.322   5.549  11.579  1.0843 -0.5429 -0.4699
12023TIP3    H257485   4.389   5.602  11.704 -1.2880  0.5269  0.3983
12024TIP3   OH257486   1.060   5.070  14.116 -0.2123 -0.1768  0.0877
12024TIP3    H157487   1.072   5.140  14.052  1.6259 -0.7100 -0.1760
12024TIP3    H257488   1.001   5.008  14.073 -0.1893  0.2015 -0.4938
12025TIP3   OH257489   1.577   6.475   3.249 -0.3173  0.1042  0.3759
12025TIP3    H157490   1.492   6.510   3.227 -0.9167 -0.3763  1.8399
12025TIP3    H257491   1.559   6.403   3.310  0.9210 -2.1076 -1.7386
12026TIP3   OH257492   0.626   6.064  15.297  0.3993  0.4611 -0.1911
12026TIP3    H157493   0.618   6.139  15.355  0.5916 -0.2433  0.7729
12026TIP3    H257494   0.546   6.065  15.245 -0.1770  0.6245  0.6799
12027TIP3   OH257495   2.749   4.224  15.540  0.1559 -0.0435 -0.5668
12027TIP3    H157496   2.816   4.186  15.597 -0.2176  0.5223  0.2636
12027TIP3    H257497   2.678   4.246  15.599 -0.5089 -0.0553 -1.3567
12028TIP3   OH257498   5.226   1.142   0.109 -0.1723  0.4408  0.1479
12028TIP3    H157499   5.215   1.115   0.018 -1.2714 -0.6663  0.5952
12028TIP3    H257500   5.165   1.215   0.120  0.8220  1.3629 -0.3097
12029TIP3   OH257501   3.634   6.311   1.962 -1.1470 -0.4391 -0.2882
12029TIP3    H157502   3.568   6.362   2.010  0.9922  0.8309  1.4157
12029TIP3    H257503   3.614   6.326   1.870 -1.4379  2.4207  0.1805
12030TIP3   OH257504   2.511   1.903   2.119  0.7981 -0.4666  0.5281
12030TIP3    H157505   2.587   1.961   2.124  1.0163 -0.6069 -0.8639
12030TIP3    H257506   2.461   1.921   2.199  2.6252 -0.8523  1.7863
12031TIP3   OH257507   6.874   0.283   3.443  0.5945  0.4763  0.4437
12031TIP3    H157508   6.897   0.265   3.534  3.3017  1.1054 -0.0979
12031TIP3    H257509   6.836   0.370   3.445  0.1074  0.2588  1.0442
12032TIP3   OH257510   5.849   2.161  13.335 -0.7743  0.1753  0.2700
12032TIP3    H157511   5.820   2.216  13.263  2.8272 -0.5193 -1.8273
12032TIP3    H257512   5.910   2.215  13.385 -2.0680  0.1414  1.9351
12033TIP3   OH257513   7.002   3.185  13.313  0.1830 -0.2901  0.4067
12033TIP3    H157514   7.050   3.102  13.310 -0.5339 -0.7050  0.4820
12033TIP3    H257515   7.027   3.229  13.232 -1.3624 -1.6490 -0.8458
12034TIP3   OH257516   1.925   7.115   0.010 -0.3914  0.6114 -0.1567
12034TIP3    H157517   1.830   7.123   0.007 -0.5858 -1.6666 -1.2017
12034TIP3    H257518   1.956   7.171  -0.062 -0.8149  2.6496  1.2162
12035TIP3   OH257519   2.497   5.105   4.811  0.6336 -0.1279  0.4826
12035TIP3    H157520   2.559   5.118   4.739  1.4694  0.0346  1.2285
12035TIP3    H257521   2.538   5.039   4.867 -0.5354 -1.0968  0.2221
12036TIP3   OH257522   5.487   6.135   1.679 -0.4279 -0.2372 -0.4869
12036TIP3    H157523   5.522   6.051   1.649 -1.1226 -0.4989 -0.5754
12036TIP3    H257524   5.456   6.178   1.598 -1.2435 -0.4463 -0.2892
12037TIP3   OH257525   6.196   5.563  14.167  0.5716 -0.0345 -0.0801
12037TIP3    H157526   6.194   5.471  14.195 -2.2963  0.4118  1.3849
12037TIP3    H257527   6.204   5.558  14.071 -1.1365 -1.8564 -0.1647
12038TIP3   OH257528   3.850   2.069  14.325  0.0530  0.0082 -0.3803
12038TIP3    H157529   3.799   2.037  14.251  0.2787 -1.4974  0.0923
12038TIP3    H257530   3.896   2.146  14.292  1.6008 -1.7223 -2.3963
12039TIP3   OH257531   3.460   3.794   2.278 -0.2226  0.0435 -0.2301
12039TIP3    H157532   3.523   3.742   2.329 -0.2034 -0.4644 -0.7564
12039TIP3    H257533   3.508   3.817   2.199 -1.5655 -2.7613 -1.9586
12040TIP3   OH257534   1.039   3.015   5.365 -0.0340  0.4421 -0.6280
12040TIP3    H157535   0.969   3.021   5.431  0.1672  1.4516 -0.5004
12040TIP3    H257536   0.998   3.042   5.283 -0.2768 -0.7884 -0.9346
12041TIP3   OH257537   4.471   4.672  14.661  0.2807  0.5284 -0.3766
12041TIP3    H157538   4.495   4.638  14.575 -1.1064 -0.5713 -0.3580
12041TIP3    H257539   4.432   4.597  14.706  0.4541  1.2466  0.9983
12042TIP3   OH257540   0.802   4.045  14.771 -0.4731 -0.5903  0.1251
12042TIP3    H157541   0.721   4.026  14.819 -1.1289 -0.5378 -0.9614
12042TIP3    H257542   0.775   4.057  14.680  0.6916 -0.0734 -0.1673
12043TIP3   OH257543   2.419   1.504   3.327  0.3813 -0.3910 -0.4736
12043TIP3    H157544   2.331   1.491   3.291  0.9985  1.2601 -2.6697
12043TIP3    H257545   2.406   1.564   3.401 -0.3073 -0.0020 -0.9061
12044TIP3   OH257546   2.194   1.787   4.222 -0.1716  0.1304 -0.1518
12044TIP3    H157547   2.203   1.708   4.276  0.7545  0.1900 -0.2111
12044TIP3    H257548   2.277   1.832   4.231 -0.7353  1.1581 -0.0521
12045TIP3   OH257549   5.733   0.070  12.680 -0.0698 -0.0958  0.2770
12045TIP3    H157550   5.720   0.080  12.585  0.3472  2.0289  0.4218
12045TIP3    H257551   5.653   0.106  12.719  0.1915 -0.0317  0.7554
12046TIP3   OH257552   1.904   5.422   2.544  0.1025  0.0363  0.2971
12046TIP3    H157553   1.911   5.483   2.471  0.7895  0.2714  0.5621
12046TIP3    H257554   1.992   5.387   2.555  0.0331  0.1245  1.1220
12047TIP3   OH257555   2.809   1.160   2.755 -0.0597 -0.0376  0.5117
12047TIP3    H157556   2.800   1.209   2.836 -1.2388  1.6647 -0.6117
12047TIP3    H257557   2.761   1.078   2.771 -0.2079  0.2456  1.5436
12048TIP3   OH257558   3.630   4.293   1.095  0.0319  0.2860  0.0643
12048TIP3    H157559   3.614   4.219   1.152  0.2341  2.1711  2.6459
12048TIP3    H257560   3.547   4.341   1.093  0.4466  1.0174 -0.0224
12049TIP3   OH257561   4.326   2.404   3.433  0.1679 -0.0907 -0.0835
12049TIP3    H157562   4.299   2.397   3.342  1.8327  0.1826 -0.6195
12049TIP3    H257563   4.381   2.327   3.448  1.7784  1.0210 -0.0167
12050TIP3   OH257564   1.271   3.624  14.564  0.0765 -0.2450 -0.8347
12050TIP3    H157565   1.359   3.605  14.531 -0.6876 -1.5258 -2.2149
12050TIP3    H257566   1.262   3.569  14.641 -0.1036 -1.3721 -1.6431
12051TIP3   OH257567   5.837   4.359   4.822  0.4968  0.3098 -0.2584
12051TIP3    H157568   5.864   4.311   4.901  2.5842 -0.1388 -1.2100
12051TIP3    H257569   5.869   4.306   4.750 -1.6389  0.5893 -1.4414
12052TIP3   OH257570   4.566   5.814   1.358  0.0833  0.1072 -0.1238
12052TIP3    H157571   4.512   5.868   1.415 -1.4321  0.5086 -1.8599
12052TIP3    H257572   4.544   5.724   1.383 -1.1082  0.2718 -0.5083
12053TIP3   OH257573   0.978   3.565   5.289 -0.1586 -0.3174 -0.3838
12053TIP3    H157574   1.071   3.590   5.292 -0.3288  0.3718 -0.9616
12053TIP3    H257575   0.968   3.504   5.362  0.4475  0.6303  0.5040
12054TIP3   OH257576   1.721   0.186   4.959 -0.1769  0.0770  0.3645
12054TIP3    H157577   1.759   0.102   4.933  0.5758  0.4527  0.2640
12054TIP3    H257578   1.632   0.164   4.986 -0.7746 -0.4295 -1.9090
12055TIP3   OH257579   4.642   3.644  14.935 -0.3408  0.3842 -0.1482
12055TIP3    H157580   4.548   3.631  14.949  0.0530 -0.9971  1.3073
12055TIP3    H257581   4.675   3.670  15.021  0.9789 -1.3749 -0.1081
12056TIP3   OH257582   2.109   5.601  13.742 -0.4243 -0.4692 -0.1944
12056TIP3    H157583   2.146   5.649  13.668 -0.4655 -0.5165 -0.2456
12056TIP3    H257584   2.041   5.660  13.777 -0.1764 -0.3048  0.0132
12057TIP3   OH257585   2.125   0.466   0.346  0.2387 -0.4077 -0.1577
12057TIP3    H157586   2.110   0.560   0.344 -0.8655 -0.5838 -0.4253
12057TIP3    H257587   2.202   0.452   0.291  1.2067  0.4761  0.9460
12058TIP3   OH257588   6.146   5.761  15.329 -0.1039 -0.2330  0.2939
12058TIP3    H157589   6.173   5.686  15.277 -2.1784 -0.7858 -0.0528
12058TIP3    H257590   6.153   5.836  15.269  0.0402 -0.4623  0.0230
12059TIP3   OH257591   0.650   5.445   0.137  0.1349 -0.1004  0.1906
12059TIP3    H157592   0.622   5.521   0.086  0.2908  0.4905  0.9880
12059TIP3    H257593   0.630   5.370   0.080 -3.3218  0.2606  0.8038
12060TIP3   OH257594   0.471   3.638  13.671 -0.1778 -0.6339 -0.3651
12060TIP3    H157595   0.386   3.673  13.696 -0.1563 -0.8669  0.0595
12060TIP3    H257596   0.529   3.662  13.744  0.5565  1.1412 -1.5213
12061TIP3   OH257597   4.488   5.297  14.020 -0.2351  0.3558 -0.7427
12061TIP3    H157598   4.475   5.258  13.933 -0.5455  0.0785 -0.5717
12061TIP3    H257599   4.435   5.243  14.078  0.0225  0.5084 -0.3696
12062TIP3   OH257600   2.625   2.454  15.435  0.5710 -0.6008  0.0448
12062TIP3    H157601   2.548   2.486  15.482  0.3212  0.2861 -0.9481
12062TIP3    H257602   2.679   2.414  15.503  0.0518  0.3339  1.0337
12063TIP3   OH257603   5.953   0.849   0.123  0.3331  0.1497 -0.2455
12063TIP3    H157604   5.859   0.866   0.131  0.2996 -0.4121  0.5557
12063TIP3    H257605   5.967   0.766   0.168  0.8969 -0.7940 -2.0984
12064TIP3   OH257606   0.315   6.312  14.297 -0.9336 -0.1034  0.4005
12064TIP3    H157607   0.389   6.347  14.346 -0.4479 -0.5302 -0.0129
12064TIP3    H257608   0.268   6.389  14.265  0.7036  0.2101 -1.3723
12065TIP3   OH257609   3.180   3.831   0.827  0.1823  0.5912  0.2513
12065TIP3    H157610   3.257   3.785   0.794 -0.2822  0.7195 -1.0039
12065TIP3    H257611   3.214   3.915   0.858  0.8320 -0.0782  1.3977
12066TIP3   OH257612   2.660   4.592   1.136  0.0807  0.2938 -0.3233
12066TIP3    H157613   2.711   4.662   1.176  1.8880 -0.7681 -0.7084
12066TIP3    H257614   2.695   4.585   1.047 -0.6904 -0.5087 -0.5706
12067TIP3   OH257615   5.973   1.407   3.972 -0.0447 -0.2935  0.2938
12067TIP3    H157616   6.009   1.325   4.006 -0.0484 -0.7595 -0.8231
12067TIP3    H257617   5.881   1.406   3.999  0.3133  0.0827  1.6178
12068TIP3   OH257618   1.743   5.908  13.436  0.0327  0.9201  0.1441
12068TIP3    H157619   1.734   5.970  13.363  2.0208  1.3087  0.2103
12068TIP3    H257620   1.707   5.826  13.402  0.3666  1.2645 -1.0754
12069TIP3   OH257621   1.244   3.101   1.504  0.1905 -0.7858  0.0053
12069TIP3    H157622   1.282   3.150   1.577 -0.1496  0.1658 -0.4446
12069TIP3    H257623   1.183   3.040   1.545 -0.7159  0.4132  0.4563
12070TIP3   OH257624   2.870   5.558   2.594  0.2562  0.0507  0.3337
12070TIP3    H157625   2.905   5.575   2.681  0.5162  0.1869  0.2018
12070TIP3    H257626   2.830   5.641   2.568  0.2662  0.0384  0.2807
12071TIP3   OH257627   5.139   5.671   1.290 -0.0282 -0.9299  0.1029
12071TIP3    H157628   5.222   5.716   1.272  0.3518 -0.6762  2.2869
12071TIP3    H257629   5.149   5.639   1.380 -2.1133 -1.3176  0.2137
12072TIP3   OH257630   2.681   6.008   1.422 -0.1176  0.3029 -0.2885
12072TIP3    H157631   2.730   5.987   1.342  1.4765 -0.5250  0.8763
12072TIP3    H257632   2.711   6.096   1.445 -0.1678  0.3245 -0.3049
12073TIP3   OH257633   3.386   6.717   2.382 -0.7633  0.5052 -0.8392
12073TIP3    H157634   3.421   6.723   2.471  0.3880 -0.8906 -1.1677
12073TIP3    H257635   3.292   6.709   2.393 -0.3357 -4.3137  0.5426
12074TIP3   OH257636   2.354   5.707   4.030 -0.2521  0.8413  0.2918
12074TIP3    H157637   2.286   5.766   4.062 -0.8992 -0.8630  2.1540
12074TIP3    H257638   2.434   5.736   4.074 -0.3589  1.0247  0.3640
12075TIP3   OH257639   2.617   4.594   0.749 -0.0569  0.1053 -0.1435
12075TIP3    H157640   2.690   4.620   0.805  0.3820 -1.2829 -0.0681
12075TIP3    H257641   2.546   4.575   0.810 -0.0905  0.2001 -0.1524
12076TIP3   OH257642   2.396   0.139  14.995  0.0296  0.0895 -0.1046
12076TIP3    H157643   2.438   0.167  14.914 -0.5741  0.4978 -0.2772
12076TIP3    H257644   2.454   0.071  15.030  0.6558  0.4070 -0.5153
12077TIP3   OH257645   3.838   5.679   5.447 -0.0495 -0.6205 -0.3484
12077TIP3    H157646   3.767   5.742   5.461 -0.0898 -0.8230  0.3840
12077TIP3    H257647   3.893   5.688   5.525  1.6714  0.7595 -1.6817
12078TIP3   OH257648   0.619   6.076   3.256  0.1445  0.0513 -0.2124
12078TIP3    H157649   0.712   6.075   3.233 -0.1865 -1.2588 -1.4941
12078TIP3    H257650   0.591   6.166   3.238  1.1441  0.4454  0.1503
12079TIP3   OH257651   1.257   5.552   0.672 -0.3525 -0.1153 -0.1090
12079TIP3    H157652   1.231   5.583   0.585 -0.1626  0.6693  0.1107
12079TIP3    H257653   1.331   5.608   0.696  0.8331 -1.5919 -0.2597
12080TIP3   OH257654   3.822   3.371   2.319  0.0735  0.3864  0.0371
12080TIP3    H157655   3.842   3.461   2.295  1.5524 -0.4743 -2.1877
12080TIP3    H257656   3.831   3.369   2.414 -1.7635  2.9737  0.3119
12081TIP3   OH257657   2.687   1.670   1.526  0.2898 -0.1915  0.1358
12081TIP3    H157658   2.754   1.730   1.493  0.3340 -1.1477 -1.5393
12081TIP3    H257659   2.604   1.714   1.508  0.4252  1.2314  2.6768
12082TIP3   OH257660   6.840   5.608   0.551  0.2556 -0.2881 -0.2744
12082TIP3    H157661   6.905   5.644   0.611  0.6568 -2.3803  0.5758
12082TIP3    H257662   6.892   5.575   0.477  0.0008 -0.3927 -0.4084
12083TIP3   OH257663   0.657   4.894   3.313  0.3582 -0.5873  0.2280
12083TIP3    H157664   0.623   4.979   3.287  0.4647 -0.0557  1.7562
12083TIP3    H257665   0.581   4.848   3.348  0.2688 -1.1920 -0.7373
12084TIP3   OH257666   7.043   5.824   2.642  0.4510 -0.0928 -0.2265
12084TIP3    H157667   7.068   5.734   2.663  0.2083 -0.0014  0.4871
12084TIP3    H257668   7.124   5.866   2.613  0.7448 -0.3007  0.2927
12085TIP3   OH257669   1.804   3.574   3.528  0.1656  0.3934  0.2254
12085TIP3    H157670   1.742   3.630   3.483 -0.9810 -0.4945  0.6711
12085TIP3    H257671   1.890   3.603   3.497 -0.3536  2.8789  1.0207
12086TIP3   OH257672   0.897   2.950   4.819 -0.0507  0.0259  0.0462
12086TIP3    H157673   0.919   2.905   4.900  2.0092  0.1588 -0.4199
12086TIP3    H257674   0.835   2.891   4.775  1.3164 -1.5735  0.2307
12087TIP3   OH257675   5.468   3.751   3.944  0.6760 -0.6959 -0.2221
12087TIP3    H157676   5.510   3.703   4.016  0.0124 -1.8246 -0.5719
12087TIP3    H257677   5.488   3.698   3.866  0.7947  0.1489 -0.7651
12088TIP3   OH257678   1.437   6.900   3.041  0.0662 -0.1454  0.1360
12088TIP3    H157679   1.531   6.886   3.051  0.3670  1.8865  0.2668
12088TIP3    H257680   1.400   6.875   3.125  0.3249 -2.0458 -0.2738
12089TIP3   OH257681   2.772   4.336  12.374  0.2621  0.3294 -0.1429
12089TIP3    H157682   2.822   4.405  12.331  0.0056  1.1594  0.8785
12089TIP3    H257683   2.814   4.325  12.459  0.6628 -1.1914 -0.5350
12090TIP3   OH257684   2.893   5.960   1.249  0.0560  0.0767  0.2525
12090TIP3    H157685   2.941   5.879   1.235  0.6262  0.4398  0.1002
12090TIP3    H257686   2.934   6.000   1.325 -0.6780 -0.1183  0.7531
12091TIP3   OH257687   4.048   4.786   6.147 -0.0631  0.4649 -0.7008
12091TIP3    H157688   4.054   4.731   6.069  0.4228  0.5491 -0.7247
12091TIP3    H257689   4.110   4.748   6.209 -1.5218 -0.4938  0.2001
12092TIP3   OH257690   3.449   6.782   5.827 -0.0425  0.0938 -0.4051
12092TIP3    H157691   3.387   6.738   5.885 -0.7439  1.8429  0.2028
12092TIP3    H257692   3.518   6.717   5.812  0.3178 -0.3135  2.6589
12093TIP3   OH257693   5.126   3.326   0.494  0.3104  0.3451 -0.3200
12093TIP3    H157694   5.178   3.268   0.439  0.1119 -0.9108  0.7882
12093TIP3    H257695   5.186   3.352   0.564  0.5743  1.9608 -1.1020
12094TIP3   OH257696   1.047   5.885   4.799 -0.1089 -0.2261  0.0261
12094TIP3    H157697   1.135   5.908   4.828 -0.2852  0.4634  0.0241
12094TIP3    H257698   1.060   5.827   4.724  0.3493 -1.5760  1.1224
12095TIP3   OH257699   4.436   4.382   2.185  0.0856 -0.3062  0.8589
12095TIP3    H157700   4.528   4.408   2.192  0.0569  0.0827 -0.2104
12095TIP3    H257701   4.412   4.356   2.274  0.8429  0.9155  1.4386
12096TIP3   OH257702   1.381   5.065   4.084 -0.8455  0.5235 -0.4330
12096TIP3    H157703   1.297   5.061   4.037 -0.7109  1.0449 -0.7120
12096TIP3    H257704   1.356   5.064   4.176 -1.0512 -2.3861 -0.4511
12097TIP3   OH257705   4.103   5.139   0.495  0.1466  0.6221 -0.7826
12097TIP3    H157706   4.150   5.206   0.445 -1.6936  1.4645 -1.4621
12097TIP3    H257707   4.074   5.184   0.574  0.3034  0.1749 -0.4696
12098TIP3   OH257708   4.297   0.545   1.091 -0.1363  0.8724  0.5080
12098TIP3    H157709   4.306   0.450   1.104  3.0058  0.5540 -2.8986
12098TIP3    H257710   4.353   0.584   1.158 -0.3262  0.2273  1.0452
12099TIP3   OH257711   6.193   4.087   5.396 -0.1265  0.0208  0.5156
12099TIP3    H157712   6.281   4.125   5.404  0.6222 -1.8745  1.6188
12099TIP3    H257713   6.167   4.067   5.486 -0.6734 -1.6364  0.0157
12100TIP3   OH257714   0.606   3.815   3.001  0.2393 -0.2958 -0.5621
12100TIP3    H157715   0.701   3.806   2.995  0.3111  0.4883 -0.7030
12100TIP3    H257716   0.583   3.776   3.085  0.9315  1.3436  0.4200
12101TIP3   OH257717   0.961   0.138   2.019 -0.1568 -0.7369 -0.0512
12101TIP3    H157718   1.050   0.165   2.045 -0.8247 -0.9845  2.6802
12101TIP3    H257719   0.966   0.043   2.009 -0.3941 -0.9065  1.3658
12102TIP3   OH257720   0.941   2.260  15.340 -0.0932  0.2002 -0.0545
12102TIP3    H157721   0.948   2.320  15.266 -2.4666  0.8571  0.2363
12102TIP3    H257722   0.953   2.315  15.417 -0.7472  0.0406  0.1609
12103TIP3   OH257723   3.584   2.888   2.669 -0.3440 -0.5161 -0.2336
12103TIP3    H157724   3.615   2.849   2.751  0.2868 -0.4663 -0.4431
12103TIP3    H257725   3.631   2.839   2.601  0.8039  0.9114 -0.4837
12104TIP3   OH257726   5.437   0.498   5.537 -0.1719 -0.6497  0.3725
12104TIP3    H157727   5.472   0.418   5.575  0.9239  0.0203  0.8230
12104TIP3    H257728   5.446   0.486   5.443  0.9659 -0.6467  0.4669
12105TIP3   OH257729   3.564   6.151   2.514  0.1713  0.1361  0.2227
12105TIP3    H157730   3.524   6.080   2.463 -1.2351  1.1073 -0.0610
12105TIP3    H257731   3.516   6.150   2.597  0.7114  0.2263  0.5368
12106TIP3   OH257732   1.200   1.738   1.692  0.1302  0.2136 -0.2870
12106TIP3    H157733   1.133   1.719   1.626  1.4179 -1.0125 -1.2753
12106TIP3    H257734   1.177   1.825   1.725 -1.2275  0.3324 -1.4961
12107TIP3   OH257735   2.662   0.158   3.623 -0.3485  0.3599 -0.5190
12107TIP3    H157736   2.612   0.129   3.547 -0.5548 -2.9596  0.8233
12107TIP3    H257737   2.753   0.141   3.600 -0.3509  0.0905 -0.3297
12108TIP3   OH257738   3.557   4.576   1.926 -0.2259  0.0278 -0.6579
12108TIP3    H157739   3.612   4.546   1.854  0.6025 -0.9469  0.3611
12108TIP3    H257740   3.604   4.651   1.963 -0.4474  0.2665 -0.8495
12109TIP3   OH257741   4.906   6.273   1.007  0.0371  0.0253  0.0267
12109TIP3    H157742   4.976   6.286   0.943 -0.0410 -2.0620 -0.5106
12109TIP3    H257743   4.830   6.317   0.969  0.6074  0.8034 -0.2091
12110TIP3   OH257744   5.656   3.499  12.302 -0.1976  0.0768 -0.4706
12110TIP3    H157745   5.664   3.585  12.343 -0.1673  0.4959 -1.3515
12110TIP3    H257746   5.569   3.499  12.261  0.6720  0.5118 -2.3426
12111TIP3   OH257747   3.774   0.885   5.213 -0.1702 -0.0675 -0.1671
12111TIP3    H157748   3.819   0.834   5.280  0.2866  0.8958  0.2743
12111TIP3    H257749   3.719   0.822   5.167 -0.9975 -0.6264  1.5541
12112TIP3   OH257750   2.214   6.847   0.691 -0.2003  0.3818 -0.5183
12112TIP3    H157751   2.129   6.857   0.733  0.1108 -0.0373  0.2137
12112TIP3    H257752   2.209   6.764   0.644  0.8362 -1.1579  2.0097
12113TIP3   OH257753   2.202   5.464   3.206 -0.0845 -0.3537  0.2555
12113TIP3    H157754   2.260   5.389   3.192  0.1832 -0.0924 -0.0354
12113TIP3    H257755   2.245   5.516   3.273  1.6574  1.5164 -2.2242
12114TIP3   OH257756   0.734   1.595  14.245  0.3144  0.0931 -0.2983
12114TIP3    H157757   0.685   1.605  14.327  0.6680  0.1476 -0.0934
12114TIP3    H257758   0.693   1.657  14.185 -0.5775 -0.6407 -0.4645
12115TIP3   OH257759   4.890   1.195  15.183  0.9595 -0.1899 -0.1233
12115TIP3    H157760   4.814   1.152  15.223  0.3207  0.0492 -1.0630
12115TIP3    H257761   4.903   1.148  15.100  2.0004 -0.3939  0.1504
12116TIP3   OH257762   1.954   4.618   0.740  0.4778  0.1913  0.0235
12116TIP3    H157763   1.876   4.617   0.685  0.9503  0.8184 -0.6704
12116TIP3    H257764   1.937   4.687   0.804  0.5005  0.3807 -0.1756
12117TIP3   OH257765   2.553   6.616   0.710 -0.1946  0.2459  0.1805
12117TIP3    H157766   2.637   6.570   0.701  0.9405  2.3533 -0.3154
12117TIP3    H257767   2.505   6.595   0.629 -0.4534 -1.5432  0.7870
12118TIP3   OH257768   1.556   3.585   2.981 -0.3716  0.2856 -0.0613
12118TIP3    H157769   1.515   3.598   3.066 -0.7074 -2.8990  0.3102
12118TIP3    H257770   1.642   3.548   3.000 -0.5701 -0.7378 -1.1273
12119TIP3   OH257771   2.395   6.460   3.188  0.1694  0.5213  0.4873
12119TIP3    H157772   2.451   6.403   3.134 -0.2047  1.2479 -0.7099
12119TIP3    H257773   2.308   6.421   3.182  0.3922 -0.1561  1.6850
12120TIP3   OH257774   2.151   6.928   4.225  0.0202 -0.2813  0.1589
12120TIP3    H157775   2.246   6.922   4.238  0.1732  2.5782  0.7049
12120TIP3    H257776   2.117   6.957   4.310 -1.2050 -0.2120 -0.3436
12121TIP3   OH257777   5.668   6.564   0.401  0.5672 -0.3761 -0.3100
12121TIP3    H157778   5.710   6.648   0.383 -0.0513 -0.3656 -1.7323
12121TIP3    H257779   5.636   6.573   0.491  1.0116  0.6927 -0.2437
12122TIP3   OH257780   7.044   6.666  13.762  0.8689 -0.0294  0.3249
12122TIP3    H157781   7.029   6.715  13.842  1.7046  1.5280 -0.4412
12122TIP3    H257782   6.961   6.672  13.715  1.1505  1.2429 -0.0502
12123TIP3   OH257783   5.060   6.543  11.578 -0.0913 -0.3862 -0.4623
12123TIP3    H157784   5.051   6.459  11.621 -0.7207 -0.1104 -0.0494
12123TIP3    H257785   4.972   6.564  11.547  0.3213 -0.5279 -1.7902
12124TIP3   OH257786   6.376   5.456  12.536  0.1614  0.6817 -0.0115
12124TIP3    H157787   6.377   5.539  12.585  0.4942  0.6982 -0.0437
12124TIP3    H257788   6.323   5.475  12.459  0.7994  1.0623 -0.3574
12125TIP3   OH257789   6.585   6.263   0.313  0.3020 -0.5937  0.1966
12125TIP3    H157790   6.610   6.345   0.354 -0.3671 -0.0925 -0.3761
12125TIP3    H257791   6.490   6.269   0.304  0.5346 -0.1115 -2.5994
12126TIP3   OH257792   1.595   3.050  10.762  0.5937  0.5433  0.5885
12126TIP3    H157793   1.595   3.025  10.855 -1.3852  0.6550  0.6364
12126TIP3    H257794   1.583   2.967  10.715 -0.2181  0.7019  0.5121
12127TIP3   OH257795   3.672   0.945   0.302 -0.5639 -0.7011  0.4270
12127TIP3    H157796   3.597   0.990   0.342 -1.0709 -0.1352 -1.1170
12127TIP3    H257797   3.747   0.971   0.356 -0.8908  1.8313 -0.2749
12128TIP3   OH257798   1.744   1.986   0.095 -0.5215 -0.2560  0.0914
12128TIP3    H157799   1.839   1.977   0.095 -0.4598  0.2826  0.9068
12128TIP3    H257800   1.712   1.903   0.130 -0.3215 -0.2059  0.3925
12129TIP3   OH257801   1.354   4.485  15.195  0.0809 -0.4239  0.8339
12129TIP3    H157802   1.354   4.509  15.102 -1.3719 -1.6027  0.5129
12129TIP3    H257803   1.412   4.409  15.200  1.7755  0.8618  1.2514
12130TIP3   OH257804   2.802   4.237  12.655  0.2429 -0.3966 -0.7876
12130TIP3    H157805   2.868   4.253  12.722 -0.4228  3.1907 -0.8951
12130TIP3    H257806   2.770   4.149  12.674  2.0686 -0.5602  1.8346
12131TIP3   OH257807   3.477   5.252  10.620 -0.1002 -0.0742  1.2585
12131TIP3    H157808   3.492   5.179  10.681 -0.9729  0.1256  1.7114
12131TIP3    H257809   3.479   5.330  10.675 -1.8426  0.0304  1.1816
12132TIP3   OH257810   2.024   4.014   1.097 -0.0668 -0.3953  0.3982
12132TIP3    H157811   2.030   4.092   1.042  0.2105 -0.6597  0.0456
12132TIP3    H257812   1.981   4.044   1.177 -0.6560 -0.0514 -0.0409
12133TIP3   OH257813   0.968   5.058  14.848  0.3709 -0.1924 -0.3812
12133TIP3    H157814   0.891   5.001  14.837 -0.7556  1.0591  0.6777
12133TIP3    H257815   0.982   5.097  14.762 -0.5232 -0.0415 -0.4702
12134TIP3   OH257816   5.812   3.400   3.130 -0.7155  0.2645 -0.1414
12134TIP3    H157817   5.769   3.428   3.050 -2.4003 -2.0451 -0.0839
12134TIP3    H257818   5.833   3.482   3.176 -1.6412  1.5302 -1.9121
12135TIP3   OH257819   1.701   4.685   0.368 -0.3882 -0.3931  0.6442
12135TIP3    H157820   1.619   4.735   0.374 -0.6529 -0.9077  1.2344
12135TIP3    H257821   1.722   4.661   0.458 -1.0483 -2.6406  0.2284
12136TIP3   OH257822   2.815   2.418   1.472  0.4179 -0.1066  0.4583
12136TIP3    H157823   2.867   2.432   1.392  0.7502 -1.3480  0.4584
12136TIP3    H257824   2.783   2.328   1.465 -0.9426  0.3240  0.9276
12137TIP3   OH257825   5.940   3.789  15.105 -0.7364  0.4026  0.1209
12137TIP3    H157826   6.002   3.859  15.084  0.4737 -0.5588  0.4107
12137TIP3    H257827   5.879   3.787  15.032  0.7612  0.0624 -1.1373
12138TIP3   OH257828   6.412   2.729   4.448  0.1584 -0.1653 -0.5482
12138TIP3    H157829   6.335   2.735   4.392  0.4363  0.0644 -0.9089
12138TIP3    H257830   6.388   2.664   4.514  0.0238 -0.8444 -1.2535
12139TIP3   OH257831   4.649   3.795   3.921 -1.0790  0.2758  0.1358
12139TIP3    H157832   4.666   3.884   3.952 -0.4975 -0.1540  1.0873
12139TIP3    H257833   4.568   3.769   3.966 -1.7227  0.6213 -0.7985
12140TIP3   OH257834   2.007   5.532  14.735  0.0960  0.1668 -0.2057
12140TIP3    H157835   2.051   5.540  14.651 -0.4787  2.2769 -0.3186
12140TIP3    H257836   2.038   5.448  14.770  1.2826 -0.1478 -1.9502
12141TIP3   OH257837   5.604   4.236   0.086 -0.5400  0.4871 -0.1614
12141TIP3    H157838   5.697   4.214   0.094 -0.7894 -1.3788 -1.8481
12141TIP3    H257839   5.601   4.300   0.015 -0.4387  1.4622  0.6998
12142TIP3   OH257840   3.081   1.101   1.914  0.6084  0.2543  0.4709
12142TIP3    H157841   3.058   1.180   1.865  1.5626  1.6603  2.2293
12142TIP3    H257842   3.176   1.105   1.923  0.5621 -0.5747  1.4323
12143TIP3   OH257843   1.469   5.514  14.542  0.5857  0.5141 -0.4075
12143TIP3    H157844   1.553   5.485  14.578  0.2417  0.7277  0.5716
12143TIP3    H257845   1.414   5.529  14.618 -0.0487  1.2837 -1.0095
12144TIP3   OH257846   4.062   5.309   1.933 -0.3928  0.3702 -0.2924
12144TIP3    H157847   4.105   5.310   1.847 -1.6333  0.1451 -0.9288
12144TIP3    H257848   3.989   5.371   1.923  0.1068  1.1682  0.9445
12145TIP3   OH257849   6.602   3.002  15.182 -0.1256 -0.0983  0.6081
12145TIP3    H157850   6.583   3.089  15.145  1.6835 -0.0606 -0.2505
12145TIP3    H257851   6.601   3.016  15.276  2.1499  1.3058  0.4555
12146TIP3   OH257852   2.054   5.666   1.726  0.4019 -0.1148  0.0275
12146TIP3    H157853   2.034   5.639   1.816  0.9116 -0.5551  0.0162
12146TIP3    H257854   2.117   5.737   1.736 -1.1088  1.2352  0.0613
12147TIP3   OH257855   2.632   5.440   2.995 -0.6179  0.1486  0.3152
12147TIP3    H157856   2.564   5.409   2.935  0.0627 -1.0893  0.1669
12147TIP3    H257857   2.631   5.377   3.067  0.2744  0.1919  0.3706
12148TIP3   OH257858   0.573   6.385   2.386  1.0293 -0.7616 -0.3701
12148TIP3    H157859   0.542   6.446   2.319 -0.2249  0.3928  1.2231
12148TIP3    H257860   0.533   6.301   2.362 -0.6120 -0.0365 -0.2752
12149TIP3   OH257861   3.183   4.662   5.217 -0.3160 -0.2660  0.3884
12149TIP3    H157862   3.101   4.616   5.199 -0.2194  0.4787 -2.2673
12149TIP3    H257863   3.167   4.709   5.298 -2.0099 -1.3202  0.6893
12150TIP3   OH257864   2.745   3.981  12.715 -0.5564  0.4263  0.6436
12150TIP3    H157865   2.735   3.938  12.800 -2.0471  1.1844  0.8683
12150TIP3    H257866   2.749   3.908  12.653 -0.2218 -0.1167  1.2817
12151TIP3   OH257867   5.485   5.379  15.327 -0.0492  0.0608 -1.0333
12151TIP3    H157868   5.428   5.386  15.404  0.8551 -2.5011 -0.0779
12151TIP3    H257869   5.538   5.459  15.329 -0.3018  0.2089  0.7743
12152TIP3   OH257870   0.519   6.033  12.662 -0.3355 -0.2900 -0.1308
12152TIP3    H157871   0.465   6.102  12.623 -0.3712 -0.4260 -0.3213
12152TIP3    H257872   0.609   6.062  12.649 -0.3399 -0.4683 -0.5599
12153TIP3   OH257873   5.225   0.076  15.429  0.2600  0.2533 -0.0271
12153TIP3    H157874   5.236   0.152  15.372 -0.2572  1.1334  1.0263
12153TIP3    H257875   5.313   0.039  15.436  0.5915  0.9828 -0.2275
12154TIP3   OH257876   2.131   5.044   5.240 -0.3825 -0.0576  0.2232
12154TIP3    H157877   2.211   5.023   5.192 -1.0341  1.7395 -1.7304
12154TIP3    H257878   2.162   5.075   5.326  1.0941  1.5268 -0.8475
12155TIP3   OH257879   6.452   3.450   1.765 -0.1475 -0.8150  0.5363
12155TIP3    H157880   6.363   3.475   1.742  0.3307 -0.8977 -1.4578
12155TIP3    H257881   6.482   3.520   1.824 -0.8828  0.1857 -0.2728
12156TIP3   OH257882   5.275   6.337  14.689 -0.4487 -0.5742  0.6467
12156TIP3    H157883   5.209   6.327  14.758 -1.0252  1.2162  0.3795
12156TIP3    H257884   5.315   6.422  14.706  0.7173 -0.9550 -0.1225
12157TIP3   OH257885   4.952   4.326  14.486  0.4696  0.1768 -0.1119
12157TIP3    H157886   5.020   4.360  14.428 -0.6032 -1.5692 -2.4332
12157TIP3    H257887   4.972   4.233  14.494 -2.3184 -0.6167 -1.7904
12158TIP3   OH257888   6.171   3.875   4.596  0.7617 -0.0576 -0.5006
12158TIP3    H157889   6.151   3.851   4.687 -0.8502 -0.8434 -1.0490
12158TIP3    H257890   6.207   3.963   4.602 -1.4117  0.7838  0.7035
12159TIP3   OH257891   2.217   2.972   5.943 -0.2368  0.6686  0.3947
12159TIP3    H157892   2.161   2.904   5.981  1.0044 -0.2062  0.6907
12159TIP3    H257893   2.187   3.053   5.984 -1.4032  0.2336  0.4126
12160TIP3   OH257894   4.033   3.698   0.827  0.0180 -0.3972 -0.2295
12160TIP3    H157895   3.954   3.752   0.835  1.2676  1.7969 -2.0128
12160TIP3    H257896   4.104   3.754   0.858  1.2076 -1.4086 -1.0763
12161TIP3   OH257897   0.225   6.899  14.765 -0.9050 -0.2796 -0.7800
12161TIP3    H157898   0.164   6.962  14.725  0.6015  1.6648 -0.0994
12161TIP3    H257899   0.205   6.816  14.723 -2.7387  0.7155 -1.9355
12162TIP3   OH257900   5.129   5.047  14.687  0.9394  0.6053  0.1671
12162TIP3    H157901   5.041   5.040  14.650  1.5514 -1.6106 -0.9493
12162TIP3    H257902   5.171   5.115  14.635  0.3759  0.5867 -0.3184
12163TIP3   OH257903   2.602   6.153   4.228  0.2925 -0.2840 -0.2502
12163TIP3    H157904   2.533   6.122   4.170 -0.0166  1.8089 -1.0490
12163TIP3    H257905   2.634   6.074   4.272 -1.4456 -1.4988 -1.1155
12164TIP3   OH257906   3.382   0.348  12.561  0.4757 -0.6019 -0.2303
12164TIP3    H157907   3.434   0.357  12.480 -2.0788 -0.6522 -1.9397
12164TIP3    H257908   3.305   0.299  12.534  0.1279 -1.6664  2.5506
12165TIP3   OH257909   2.761   6.728   1.982 -0.0634  0.1537  0.2043
12165TIP3    H157910   2.800   6.641   1.987 -0.7021 -0.0874  1.1370
12165TIP3    H257911   2.773   6.765   2.069 -0.2444  0.8041 -0.0412
12166TIP3   OH257912   5.008   2.273  14.458  0.1741  0.2170 -0.2844
12166TIP3    H157913   5.003   2.238  14.546 -0.4924 -0.5235 -0.6150
12166TIP3    H257914   5.054   2.206  14.408  1.1571  0.9286 -0.3574
12167TIP3   OH257915   4.095   2.346   2.218  0.3594  0.2120  0.1167
12167TIP3    H157916   4.157   2.309   2.282  1.4850  0.3071 -0.8930
12167TIP3    H257917   4.030   2.278   2.206  1.2886 -0.6374 -0.1794
12168TIP3   OH257918   1.133   0.757  13.940 -0.1174  0.1274 -0.2094
12168TIP3    H157919   1.176   0.756  13.854  1.2018 -0.5792  0.4439
12168TIP3    H257920   1.047   0.718  13.923 -0.0606  0.4435 -1.3050
12169TIP3   OH257921   2.447   4.306  15.090  0.0533 -0.0628  0.5114
12169TIP3    H157922   2.416   4.247  15.021 -0.7406  0.4261  0.4357
12169TIP3    H257923   2.521   4.261  15.129 -0.2292 -0.8820  0.1158
12170TIP3   OH257924   1.809   5.316   3.423 -0.0157  0.7432  0.0208
12170TIP3    H157925   1.864   5.297   3.347  0.9274  0.2652  0.8137
12170TIP3    H257926   1.727   5.270   3.406 -0.2305  1.5592 -1.2300
12171TIP3   OH257927   2.263   0.560   5.230 -0.2981  0.3539 -0.0852
12171TIP3    H157928   2.222   0.609   5.301  0.7962  2.1689 -0.6768
12171TIP3    H257929   2.193   0.506   5.194 -1.0202 -0.1312  1.9562
12172TIP3   OH257930   3.066   0.084   0.033  0.6563 -0.2868 -0.1531
12172TIP3    H157931   3.108   0.148   0.090  1.5731 -1.5804  0.6775
12172TIP3    H257932   2.972   0.093   0.052  0.9078 -0.2902  1.1455
12173TIP3   OH257933   4.515   5.799   2.734 -0.4071  0.4333  0.4593
12173TIP3    H157934   4.435   5.797   2.682  0.0562  1.5828 -0.3136
12173TIP3    H257935   4.585   5.788   2.670  0.1209  0.9391  0.9481
12174TIP3   OH257936   6.051   5.517   0.589 -0.3185  0.6440 -0.1220
12174TIP3    H157937   6.063   5.505   0.683  1.4659  1.3260 -0.2566
12174TIP3    H257938   6.021   5.608   0.581  0.3770  0.8535 -0.2925
12175TIP3   OH257939   3.363   6.460  12.510 -0.3480  0.1813 -0.1938
12175TIP3    H157940   3.378   6.429  12.420  0.0320 -0.6351  0.1485
12175TIP3    H257941   3.429   6.528  12.523  0.3263 -0.4855 -0.1405
12176TIP3   OH257942   7.019   0.072  15.117  0.6491  0.0900  0.5439
12176TIP3    H157943   6.942   0.070  15.173  1.6780  0.1504  1.9833
12176TIP3    H257944   6.987   0.043  15.032 -1.1792  1.0929  0.8547
12177TIP3   OH257945   0.449   6.822   2.750 -0.7278 -0.0662 -0.6148
12177TIP3    H157946   0.433   6.758   2.820  0.4017 -0.3620 -0.6112
12177TIP3    H257947   0.400   6.789   2.675 -1.0635 -0.3302 -0.2832
12178TIP3   OH257948   4.300   5.781  12.406  0.4001 -0.4686  0.0006
12178TIP3    H157949   4.248   5.741  12.476 -0.3545 -0.8959 -0.7996
12178TIP3    H257950   4.279   5.874  12.412 -0.1600 -0.5864 -0.0590
12179TIP3   OH257951   3.867   0.654  12.055 -0.2014  0.0439 -0.6058
12179TIP3    H157952   3.847   0.743  12.084 -0.1065  0.3635 -1.5279
12179TIP3    H257953   3.806   0.599  12.105  1.2702  0.3910  1.6927
12180TIP3   OH257954   2.392   0.752  12.827  0.2693  0.2029 -0.3857
12180TIP3    H157955   2.476   0.717  12.855 -0.2520 -0.6588  0.1144
12180TIP3    H257956   2.378   0.717  12.739  0.4533  0.3772 -0.4839
12181TIP3   OH257957   4.098   1.360  13.206  0.0562 -1.1112  0.1123
12181TIP3    H157958   4.068   1.425  13.269  0.8524 -0.2712 -0.3449
12181TIP3    H257959   4.159   1.304  13.255 -1.4621 -2.2027  0.7842
12182TIP3   OH257960   2.733   6.957   4.451 -0.1196  0.4516  0.2165
12182TIP3    H157961   2.718   6.890   4.518 -0.1888 -0.1766 -0.4235
12182TIP3    H257962   2.717   7.040   4.496  0.6318  0.0762  1.2020
12183TIP3   OH257963   1.724   5.422  14.647  0.5068  0.0001  0.1127
12183TIP3    H157964   1.811   5.415  14.608 -0.0741  1.1424 -1.4461
12183TIP3    H257965   1.727   5.502  14.699  0.3921  0.0310  0.0715
12184TIP3   OH257966   2.434   1.128   4.171  0.3224  0.1818  0.4721
12184TIP3    H157967   2.462   1.043   4.202  1.7671  0.4748 -0.0249
12184TIP3    H257968   2.436   1.184   4.249  2.3678  0.5142  0.2040
12185TIP3   OH257969   2.381   6.454  15.257  0.2105 -0.3333 -0.5792
12185TIP3    H157970   2.452   6.484  15.314 -0.1625 -0.9402  0.2297
12185TIP3    H257971   2.380   6.516  15.185  0.0982  0.9919  0.5450
12186TIP3   OH257972   1.683   5.749   3.244  0.7120  0.1889  0.0229
12186TIP3    H157973   1.719   5.755   3.332  0.2473  0.6578  0.1835
12186TIP3    H257974   1.734   5.680   3.201  0.9798  0.0066  0.6381
12187TIP3   OH257975   5.720   4.884   0.673 -0.2891  0.2229 -0.2042
12187TIP3    H157976   5.754   4.911   0.758 -0.2467  0.2354 -0.2255
12187TIP3    H257977   5.642   4.938   0.661  0.2046  0.8545 -0.5802
12188TIP3   OH257978   3.881   6.109   5.022  0.2623  0.3975  0.0499
12188TIP3    H157979   3.803   6.161   5.004 -0.6385 -0.9523 -0.0310
12188TIP3    H257980   3.855   6.054   5.096  2.1083  2.0100  1.9630
12189TIP3   OH257981   6.835   6.048   1.714 -0.6915 -0.3155  0.0804
12189TIP3    H157982   6.916   6.056   1.664 -1.4598  1.4670 -0.9259
12189TIP3    H257983   6.780   5.991   1.660 -0.5433 -0.5576  0.1842
12190TIP3   OH257984   1.482   1.580   3.607  0.2908  0.6035 -0.0412
12190TIP3    H157985   1.565   1.559   3.564  0.2050  1.5992 -0.7136
12190TIP3    H257986   1.500   1.572   3.701  0.7989 -0.4237 -0.2259
12191TIP3   OH257987   3.171   4.786   3.031  0.4086  0.2067 -0.5427
12191TIP3    H157988   3.208   4.815   3.114 -1.6491 -0.4373  0.6388
12191TIP3    H257989   3.168   4.690   3.038 -1.1712  0.2289 -0.7209
12192TIP3   OH257990   4.718   5.937   3.688 -0.1638  0.3859  0.0549
12192TIP3    H157991   4.679   5.878   3.752 -2.9791  0.8950 -1.1312
12192TIP3    H257992   4.688   6.024   3.714  1.0187  0.9140 -0.2994
12193TIP3   OH257993   2.602   7.023   2.742  0.0019 -0.0597  0.0201
12193TIP3    H157994   2.629   6.931   2.736  0.3366  0.0147  0.3690
12193TIP3    H257995   2.679   7.068   2.776  0.0797  0.4691 -0.8547
12194TIP3   OH257996   3.395   1.862  14.964  0.2546  0.7276  0.3840
12194TIP3    H157997   3.334   1.790  14.950  0.4696  0.4572  0.8168
12194TIP3    H257998   3.392   1.877  15.058 -1.2768  2.6096  0.0668
12195TIP3   OH257999   1.000   3.119   1.102 -0.2341  0.0216  0.0970
12195TIP3    H158000   1.087   3.151   1.078 -0.1986  0.2750  0.5481
12195TIP3    H258001   1.008   3.097   1.195 -0.4148 -0.7725 -0.0677
12196TIP3   OH258002   0.350   5.668   0.414  0.2094 -0.2121 -0.2695
12196TIP3    H158003   0.404   5.589   0.421 -0.0854 -0.3389  0.6508
12196TIP3    H258004   0.261   5.635   0.397  0.1003 -0.0761  0.0366
12197TIP3   OH258005   3.772   5.466  14.571 -0.1356  0.4363 -0.2398
12197TIP3    H158006   3.697   5.466  14.512 -0.6021  3.0189  0.2641
12197TIP3    H258007   3.849   5.464  14.513 -0.5923  1.4874 -0.8862
12198TIP3   OH258008   5.276   0.890   4.548 -0.5016 -0.1109  0.0446
12198TIP3    H158009   5.202   0.950   4.539  1.6079  2.4776 -0.4158
12198TIP3    H258010   5.294   0.860   4.459 -1.2102 -1.0599  0.2070
12199TIP3   OH258011   2.999   0.383  15.413  0.2011 -0.7092 -0.2029
12199TIP3    H158012   2.990   0.460  15.470  0.1977 -1.4028  0.7463
12199TIP3    H258013   2.918   0.381  15.363 -0.6452 -1.1869  1.1495
12200TIP3   OH258014   3.532   2.472   3.895  0.7421 -0.2379  0.2403
12200TIP3    H158015   3.580   2.440   3.818  1.3782 -0.2350  0.6320
12200TIP3    H258016   3.441   2.473   3.867  0.8991 -0.8392 -0.3144
12201TIP3   OH258017   5.075   1.685   3.814  0.4856  0.3219  0.5107
12201TIP3    H158018   5.040   1.706   3.900 -2.3978  1.8965 -0.9815
12201TIP3    H258019   5.107   1.769   3.781  3.1251 -0.5713  0.6674
12202TIP3   OH258020   1.523   4.959   2.919  0.1220 -0.1946 -0.3481
12202TIP3    H158021   1.606   5.007   2.932 -0.5108  0.9642 -0.4842
12202TIP3    H258022   1.456   5.026   2.929 -0.9556 -1.6428  2.5884
12203TIP3   OH258023   5.341   7.056   2.343 -0.6904  0.3719  0.5305
12203TIP3    H158024   5.292   7.058   2.261 -1.3393 -0.7495  0.8758
12203TIP3    H258025   5.430   7.082   2.319 -0.6710 -0.7758 -0.6859
12204TIP3   OH258026   6.497   1.827   0.108 -0.0839 -0.1975  0.1968
12204TIP3    H158027   6.484   1.883   0.031 -0.5543 -0.7170 -0.1109
12204TIP3    H258028   6.569   1.867   0.156  0.1664  0.1728 -0.4869
12205TIP3   OH258029   0.807   5.770  12.776 -0.6244  0.1681  0.0318
12205TIP3    H158030   0.794   5.713  12.700 -2.2654  0.2099  0.2651
12205TIP3    H258031   0.869   5.722  12.831 -0.2971 -0.3750 -0.7907
12206TIP3   OH258032   2.616   4.320  13.868 -0.7772 -0.3036 -0.0737
12206TIP3    H158033   2.706   4.352  13.874  0.0046 -2.2639 -1.2350
12206TIP3    H258034   2.603   4.270  13.949 -0.7034 -0.3469 -0.0888
12207TIP3   OH258035   6.175   5.918   0.554  0.7329  0.4309 -0.2878
12207TIP3    H158036   6.116   5.979   0.510  0.9517 -0.2467 -1.5225
12207TIP3    H258037   6.257   5.924   0.505  0.5406 -1.3663 -0.8494
12208TIP3   OH258038   6.582   3.930  15.317  0.3949 -0.3177 -0.2452
12208TIP3    H158039   6.593   3.837  15.337  0.5297 -0.5059 -1.1871
12208TIP3    H258040   6.489   3.939  15.297  0.3631 -0.2252 -0.0628
12209TIP3   OH258041   6.934   4.928  12.753 -0.1330  0.0191  0.3311
12209TIP3    H158042   6.977   4.888  12.678 -1.4362 -0.8654  0.0296
12209TIP3    H258043   6.982   5.009  12.768  2.0405 -1.2479  0.4326
12210TIP3   OH258044   1.576   6.911   0.221 -0.5362 -0.1644  0.0088
12210TIP3    H158045   1.655   6.880   0.267 -1.0364  0.4891  1.3250
12210TIP3    H258046   1.516   6.836   0.225 -0.7763  0.0639  0.9114
12211TIP3   OH258047   0.985   2.584   1.982  0.5886 -0.4146  0.0901
12211TIP3    H158048   1.019   2.588   1.892 -2.7245  0.3331 -1.1841
12211TIP3    H258049   0.993   2.674   2.014 -1.2367  0.0169 -0.6331
12212TIP3   OH258050   1.473   4.580   4.090 -0.0129  0.3511 -0.0046
12212TIP3    H158051   1.426   4.506   4.053 -0.6844 -0.3556  2.1624
12212TIP3    H258052   1.427   4.657   4.056 -0.6992 -0.2718 -0.5074
12213TIP3   OH258053   4.509   5.161   1.060 -0.1117 -0.2176 -0.2692
12213TIP3    H158054   4.444   5.159   0.990  0.7890  0.1901 -1.1218
12213TIP3    H258055   4.491   5.243   1.106 -1.0400 -0.7355  0.3202
12214TIP3   OH258056   5.086   6.468   0.537 -0.3349 -0.1687 -0.3301
12214TIP3    H158057   5.091   6.562   0.520 -0.8851  0.2367  1.6655
12214TIP3    H258058   4.993   6.450   0.545 -0.1520 -0.5272  1.1614
12215TIP3   OH258059   0.488   1.429   1.616  0.5631 -0.0073  0.8343
12215TIP3    H158060   0.427   1.478   1.671 -0.0493 -0.6871  0.7659
12215TIP3    H258061   0.444   1.345   1.600  0.8517  0.0914 -0.4850
12216TIP3   OH258062   5.170   2.586   1.917  0.5212  0.4714 -0.0621
12216TIP3    H158063   5.206   2.575   2.005 -0.8424 -1.3091  0.3136
12216TIP3    H258064   5.184   2.678   1.896  1.7045  0.6996  1.6368
12217TIP3   OH258065   2.200   3.412  14.908 -0.4156  0.5978 -0.1223
12217TIP3    H158066   2.184   3.347  14.839 -3.1196  0.9396  0.1503
12217TIP3    H258067   2.120   3.412  14.960  0.7323  1.9885  1.6972
12218TIP3   OH258068   6.521   2.961   4.547 -0.6049  0.1132 -0.5385
12218TIP3    H158069   6.483   2.878   4.516  1.3879 -0.3323 -1.8362
12218TIP3    H258070   6.604   2.936   4.588  0.1905  1.5218 -1.2614
12219TIP3   OH258071   0.490   0.100   4.114  0.3586  0.3181  0.3028
12219TIP3    H158072   0.518   0.083   4.024  1.5421 -0.8076  0.8619
12219TIP3    H258073   0.429   0.173   4.107  0.7409  0.4968 -1.3675
12220TIP3   OH258074   2.233   4.874  13.283  0.4184  0.5248 -0.0250
12220TIP3    H158075   2.161   4.936  13.277 -0.9812 -1.1873 -1.1355
12220TIP3    H258076   2.221   4.814  13.210  2.9636  0.1866 -0.2354
12221TIP3   OH258077   0.692   1.094   3.884 -0.1747  0.1370  0.2533
12221TIP3    H158078   0.641   1.127   3.959  0.1667  1.7539 -0.2151
12221TIP3    H258079   0.653   1.138   3.808  0.8396  0.1115 -0.2838
12222TIP3   OH258080   4.166   6.741  13.085  0.1585 -0.5008  0.6720
12222TIP3    H158081   4.156   6.683  13.161 -0.8812 -0.2601  0.7244
12222TIP3    H258082   4.087   6.727  13.033 -1.0906  2.3072  1.6782
12223TIP3   OH258083   1.906   0.109   0.824  0.4657 -0.6341  0.0233
12223TIP3    H158084   1.930   0.054   0.899 -0.5692 -0.1605  0.7146
12223TIP3    H258085   1.965   0.184   0.829  0.4684 -0.6540  0.3086
12224TIP3   OH258086   3.196   1.647  14.501 -0.1643  0.1083 -0.3278
12224TIP3    H158087   3.290   1.628  14.506 -0.2528 -0.2760 -0.1338
12224TIP3    H258088   3.169   1.613  14.415 -0.6550 -2.1239  0.6933
12225TIP3   OH258089   2.233   6.702  14.484 -0.1720 -0.0016  0.2097
12225TIP3    H158090   2.254   6.778  14.539 -0.1627 -1.1380  1.8079
12225TIP3    H258091   2.145   6.720  14.452  0.1934  1.1289 -0.1911
12226TIP3   OH258092   1.991   0.861   3.037  0.0347 -0.5970 -0.1572
12226TIP3    H158093   2.038   0.814   2.968 -0.4379  0.2541 -1.0720
12226TIP3    H258094   1.922   0.801   3.065 -1.3161 -0.0287 -2.1509
12227TIP3   OH258095   4.525   5.699   1.754  0.2094 -0.1652 -0.2565
12227TIP3    H158096   4.547   5.615   1.795 -0.1821 -0.2549 -0.2258
12227TIP3    H258097   4.530   5.681   1.660  1.6351  0.1805 -0.2606
12228TIP3   OH258098   2.620   3.952   3.173 -0.0769 -0.1694 -0.6960
12228TIP3    H158099   2.650   3.920   3.088  0.3934 -0.3407 -0.4664
12228TIP3    H258100   2.572   4.033   3.153  1.7363  0.8695 -0.9236
12229TIP3   OH258101   3.225   0.549   5.092 -0.5411  0.5832  0.4917
12229TIP3    H158102   3.172   0.585   5.022  0.1346  3.7360  1.5045
12229TIP3    H258103   3.169   0.551   5.169  0.3987  2.2562  1.1741
12230TIP3   OH258104   4.826   0.506  12.818  0.1510 -0.2291  0.0195
12230TIP3    H158105   4.747   0.540  12.858  0.5461  1.5527 -0.6943
12230TIP3    H258106   4.806   0.505  12.724  0.6206 -0.7124 -0.0753
12231TIP3   OH258107   5.104   3.245   2.025 -0.0761 -0.4175  0.6771
12231TIP3    H158108   5.126   3.329   1.986  0.2885  0.1464  2.0881
12231TIP3    H258109   5.085   3.188   1.950  0.3832  0.7117 -0.3070
12232TIP3   OH258110   4.259   1.147   3.159  0.2112 -0.4957 -0.2635
12232TIP3    H158111   4.185   1.099   3.195 -1.8753  1.0443 -2.4002
12232TIP3    H258112   4.314   1.079   3.120 -2.2553 -1.3186 -2.4477
12233TIP3   OH258113   6.436   0.922  10.799  0.3288  0.0858  0.3375
12233TIP3    H158114   6.515   0.870  10.786  1.2986  1.4555  0.6208
12233TIP3    H258115   6.467   1.013  10.805 -1.3370  0.7377 -0.3377
12234TIP3   OH258116   6.457   4.363  14.805 -0.1537  0.1847 -0.6470
12234TIP3    H158117   6.405   4.398  14.732 -0.0215  1.2913 -0.2203
12234TIP3    H258118   6.536   4.417  14.805 -0.5864  0.8256  0.9230
12235TIP3   OH258119   0.402   4.540  12.110 -0.3141  0.0567  0.8552
12235TIP3    H158120   0.475   4.579  12.063 -0.1201 -0.0899  1.0344
12235TIP3    H258121   0.325   4.590  12.081 -0.6015 -1.6972 -1.6169
12236TIP3   OH258122   3.364   1.521   0.843  0.3962 -0.0045  0.2247
12236TIP3    H158123   3.336   1.613   0.837 -1.3970 -0.4870  0.7666
12236TIP3    H258124   3.455   1.521   0.814 -0.2602  1.6121 -1.9243
12237TIP3   OH258125   2.855   3.826   0.012 -0.8520 -0.0283 -0.5010
12237TIP3    H158126   2.761   3.834   0.027 -0.4096  0.5820  2.2031
12237TIP3    H258127   2.890   3.911   0.037  0.6514 -0.9392  0.5227
12238TIP3   OH258128   2.639   4.389   4.568 -0.5357  0.0862  0.6935
12238TIP3    H158129   2.671   4.319   4.511 -1.1545 -0.5800  1.1440
12238TIP3    H258130   2.595   4.343   4.640 -1.0802  0.9436  0.9190
12239TIP3   OH258131   4.895   5.032  15.488  0.0576 -0.2486  0.0174
12239TIP3    H158132   4.882   5.007  15.396 -1.3836 -0.1465  0.1700
12239TIP3    H258133   4.985   5.064  15.492  0.5645 -1.4665 -1.0839
12240TIP3   OH258134   1.143   4.708   1.094 -0.3419  0.7075 -0.5643
12240TIP3    H158135   1.106   4.623   1.118  0.5578  0.5126  0.1641
12240TIP3    H258136   1.157   4.753   1.177  0.9985  0.7865 -0.8213
12241TIP3   OH258137   4.740   4.366  12.885  0.6368  0.2761  0.6672
12241TIP3    H158138   4.661   4.315  12.869 -0.2584  0.9669  2.6716
12241TIP3    H258139   4.723   4.450  12.844  0.8677 -0.0080 -0.0161
12242TIP3   OH258140   1.237   0.959   2.889  0.3095  0.0204  0.0749
12242TIP3    H158141   1.170   1.026   2.882  1.7445  1.3545 -1.1191
12242TIP3    H258142   1.250   0.948   2.983  0.3214  1.7100  0.2871
12243TIP3   OH258143   0.405   4.275  14.855  1.0515  0.1521  0.7459
12243TIP3    H158144   0.357   4.259  14.936  1.2412 -0.5795  0.7157
12243TIP3    H258145   0.492   4.237  14.871  0.8868 -0.5551 -0.0338
12244TIP3   OH258146   2.841   3.385   2.329  0.3941 -0.1404 -0.1699
12244TIP3    H158147   2.884   3.470   2.326  1.0318 -0.4351  0.4262
12244TIP3    H258148   2.749   3.404   2.349  0.4385  0.4354 -0.5242
12245TIP3   OH258149   1.894   2.382   1.913  0.1944  0.0146 -0.0225
12245TIP3    H158150   1.940   2.463   1.934 -0.4882 -0.0566  1.9248
12245TIP3    H258151   1.806   2.411   1.888  0.0211 -0.1045  0.4464
12246TIP3   OH258152   1.806   4.521   0.047 -0.1606 -0.3308  0.0261
12246TIP3    H158153   1.738   4.459   0.023  0.5410 -1.0579 -0.0920
12246TIP3    H258154   1.888   4.473   0.037  0.4771  0.9298 -1.1530
12247TIP3   OH258155   2.499   5.984   1.787 -0.1904 -0.2931 -0.0553
12247TIP3    H158156   2.480   5.891   1.795  0.4271 -0.4382 -0.2357
12247TIP3    H258157   2.465   6.008   1.701 -0.4814 -0.3185  0.0525
12248TIP3   OH258158   4.653   6.460  14.924 -0.1376  0.0775 -0.0700
12248TIP3    H158159   4.564   6.476  14.955  0.2337 -1.2914  1.8200
12248TIP3    H258160   4.656   6.365  14.910  0.9461  0.1619 -0.4292
12249TIP3   OH258161   2.289   0.207   0.922  1.2243 -0.4116  0.1143
12249TIP3    H158162   2.202   0.240   0.946  0.0343 -2.5463 -1.1319
12249TIP3    H258163   2.300   0.127   0.975  2.5120 -0.0655  0.3906
12250TIP3   OH258164   6.649   5.665   0.859 -0.2005 -0.1222 -0.3100
12250TIP3    H158165   6.564   5.700   0.884 -0.0489  1.7737 -2.3347
12250TIP3    H258166   6.713   5.719   0.906 -0.0400  0.8381 -1.5927
12251TIP3   OH258167   4.014   4.168   0.474  0.2759  0.0143 -0.1546
12251TIP3    H158168   4.071   4.131   0.542  0.1575  0.5416  0.2409
12251TIP3    H258169   4.047   4.132   0.392  0.2253 -0.8782  0.2125
12252TIP3   OH258170   3.112   1.734   5.458  0.3887  0.4472 -0.0784
12252TIP3    H158171   3.063   1.666   5.504 -0.7151  1.4121  0.2164
12252TIP3    H258172   3.201   1.699   5.450  0.1226 -0.5393  1.0939
12253TIP3   OH258173   0.634   5.044   1.456  0.1832 -0.5282 -0.3200
12253TIP3    H158174   0.562   5.021   1.515  0.0406  2.0750  0.5905
12253TIP3    H258175   0.593   5.058   1.371 -0.0369 -1.3591 -0.3548
12254TIP3   OH258176   3.063   6.000  12.875 -0.1227  0.3191 -0.2631
12254TIP3    H158177   3.038   5.934  12.810  0.7836  0.4429 -0.7618
12254TIP3    H258178   3.135   6.048  12.832 -1.6613  2.5065 -0.4519
12255TIP3   OH258179   2.436   3.615  13.807 -0.0499  0.6458 -0.0871
12255TIP3    H158180   2.501   3.560  13.764  1.0128  2.3831 -0.7591
12255TIP3    H258181   2.365   3.555  13.829  0.7984 -0.8641 -1.3489
12256TIP3   OH258182   4.058   6.956  12.589  0.1239 -0.3739  0.4268
12256TIP3    H158183   4.145   6.974  12.554 -0.8951 -0.3280 -2.2016
12256TIP3    H258184   4.004   6.939  12.512 -2.1771 -0.5287  2.0157
12257TIP3   OH258185   2.134   0.709   2.890 -0.4332  0.1753  0.3565
12257TIP3    H158186   2.213   0.692   2.839 -1.8752 -1.5347 -1.3824
12257TIP3    H258187   2.077   0.635   2.871 -2.5118  1.4324  1.4974
12258TIP3   OH258188   3.480   0.506   2.476 -0.6988  0.0140  0.0553
12258TIP3    H158189   3.456   0.541   2.390 -0.7069 -0.4682 -0.1397
12258TIP3    H258190   3.552   0.445   2.457 -2.0516 -1.6461  0.1347
12259TIP3   OH258191   1.574   6.188   4.260  0.2887  0.2484  0.4381
12259TIP3    H158192   1.523   6.197   4.179  1.3629 -0.6208 -0.3491
12259TIP3    H258193   1.508   6.172   4.328 -0.6030  0.7308 -0.2943
12260TIP3   OH258194   4.624   6.307  14.453  0.6500  0.0627 -0.0242
12260TIP3    H158195   4.550   6.245  14.457  0.2996  0.5138  0.6314
12260TIP3    H258196   4.692   6.260  14.405 -0.0164 -0.4113 -0.5117
12261TIP3   OH258197   1.145   4.443   2.316  1.1048  0.1434 -0.0621
12261TIP3    H158198   1.170   4.369   2.260  1.6512  0.9168 -0.8493
12261TIP3    H258199   1.133   4.404   2.403  0.7090 -0.9885 -0.6107
12262TIP3   OH258200   0.478   5.837   4.198  0.7523  0.2728 -0.0522
12262TIP3    H158201   0.387   5.810   4.201  0.9656 -0.3728  0.7809
12262TIP3    H258202   0.492   5.883   4.281  0.5085  2.6134 -1.2432
12263TIP3   OH258203   1.762   0.348   3.927 -0.3232  0.5338  0.2844
12263TIP3    H158204   1.768   0.436   3.891  1.7480 -0.1153 -1.0871
12263TIP3    H258205   1.845   0.335   3.972  0.5065 -1.5877 -1.6947
12264TIP3   OH258206   3.967   6.615  14.990  0.1438 -0.1824  0.5594
12264TIP3    H158207   3.907   6.637  15.062  0.1051  1.8680 -0.0543
12264TIP3    H258208   4.048   6.662  15.011  0.4265 -0.2772 -0.2831
12265TIP3   OH258209   1.181   2.146   0.025  0.0439 -0.3852 -0.6376
12265TIP3    H158210   1.161   2.104  -0.058 -0.5784 -0.6649 -0.3419
12265TIP3    H258211   1.259   2.099   0.058  1.0030  0.4971 -1.6225
12266TIP3   OH258212   4.626   4.579   1.060 -0.1438 -0.3286  0.2054
12266TIP3    H158213   4.649   4.597   0.969 -0.4575  0.7591  0.3390
12266TIP3    H258214   4.686   4.509   1.086  0.1971 -0.3886 -0.7232
12267TIP3   OH258215   4.415   4.751  12.720 -0.3715  0.2307 -0.0604
12267TIP3    H158216   4.413   4.841  12.687 -0.0777 -0.6912 -2.7390
12267TIP3    H258217   4.332   4.713  12.691 -2.4163  0.7339  4.5965
12268TIP3   OH258218   6.155   4.762   4.619 -0.1912  0.6270  0.4283
12268TIP3    H158219   6.082   4.740   4.561  1.1127  1.0243 -1.4056
12268TIP3    H258220   6.129   4.727   4.705 -2.2378  0.2087 -0.3295
12269TIP3   OH258221   6.028   2.168   2.001  1.2550 -0.3210  0.2829
12269TIP3    H158222   5.935   2.191   1.999  1.1754 -0.6263  0.4139
12269TIP3    H258223   6.033   2.094   2.062  1.6297 -0.0960  0.5261
12270TIP3   OH258224   3.897   5.316   2.588 -0.0978  0.2485  0.2506
12270TIP3    H158225   3.972   5.373   2.572 -1.2640  1.7264  0.0045
12270TIP3    H258226   3.830   5.374   2.623 -2.3474 -0.3780 -2.8486
12271TIP3   OH258227   1.079   2.280   1.763  0.4402  0.0777  0.6596
12271TIP3    H158228   0.991   2.307   1.736  0.1071  0.8047  2.4612
12271TIP3    H258229   1.065   2.221   1.837  1.5167  1.5432  2.0671
12272TIP3   OH258230   4.505   0.082  14.063 -0.0668 -0.5973 -0.4664
12272TIP3    H158231   4.593   0.048  14.045 -0.2360  0.5721 -3.7604
12272TIP3    H258232   4.487   0.143  13.991 -3.5664 -0.7443  0.1954
12273TIP3   OH258233   6.202   3.114  13.343 -0.0915 -0.3392  0.3270
12273TIP3    H158234   6.155   3.053  13.286 -0.4049  0.7913 -0.6383
12273TIP3    H258235   6.292   3.080  13.345 -0.0712 -0.3640 -0.8665
12274TIP3   OH258236   6.594   2.523   2.598  0.1385 -0.4801 -0.4247
12274TIP3    H158237   6.586   2.427   2.595 -0.5971 -0.4059 -1.2642
12274TIP3    H258238   6.525   2.551   2.657 -0.1472 -0.4198 -0.7848
12275TIP3   OH258239   4.158   6.284   1.987 -0.2441  0.4775 -0.3681
12275TIP3    H158240   4.146   6.192   1.961  1.2827  0.4626 -1.1031
12275TIP3    H258241   4.134   6.286   2.080 -0.4093 -0.6421 -0.3795
12276TIP3   OH258242   3.495   3.788   0.036  0.2992 -0.8170 -0.0376
12276TIP3    H158243   3.562   3.724   0.059 -0.1111 -0.7156  1.5356
12276TIP3    H258244   3.415   3.756   0.078  0.5817  1.8368  2.7399
12277TIP3   OH258245   1.891   5.902  12.429 -0.0735 -0.5269  0.1305
12277TIP3    H158246   1.881   5.809  12.408  0.6293 -0.4830 -0.4466
12277TIP3    H258247   1.915   5.904  12.521 -2.4644 -0.7731  0.7923
12278TIP3   OH258248   6.836   6.389  15.366 -0.4088 -0.3718 -0.0008
12278TIP3    H158249   6.815   6.365  15.456 -1.3385  0.9905  0.1771
12278TIP3    H258250   6.904   6.328  15.339 -2.3089 -2.7905  0.5695
12279TIP3   OH258251   4.524   6.336   1.853 -0.0329 -0.2198  0.0873
12279TIP3    H158252   4.595   6.273   1.841  1.4427  1.1612  1.3036
12279TIP3    H258253   4.490   6.316   1.940 -0.6439 -0.3847 -0.1878
12280TIP3   OH258254   3.914   3.941   1.489 -0.7104 -0.0499  0.2228
12280TIP3    H158255   3.861   3.930   1.568  0.0189 -0.1288  0.7111
12280TIP3    H258256   3.976   3.867   1.491 -0.0840  0.4641  0.0718
12281TIP3   OH258257   2.016   3.386  12.877  0.0514  0.3538  0.2433
12281TIP3    H158258   2.048   3.407  12.789  0.3274  1.9860  0.7177
12281TIP3    H258259   1.972   3.302  12.867  1.8185 -0.4535 -1.0547
12282TIP3   OH258260   1.870   0.132   1.737 -0.5272  0.2044 -0.6973
12282TIP3    H158261   1.955   0.104   1.704  0.2782 -0.2950  1.6865
12282TIP3    H258262   1.818   0.051   1.740 -1.1022  0.5059 -2.1350
12283TIP3   OH258263   5.278   4.499  11.564 -0.8135 -0.2326 -0.3261
12283TIP3    H158264   5.209   4.448  11.521  0.4267 -2.1467 -0.0889
12283TIP3    H258265   5.349   4.501  11.501  0.2736 -1.3874  0.8303
12284TIP3   OH258266   6.688   0.857  14.639 -0.0671  0.2700 -0.2927
12284TIP3    H158267   6.685   0.939  14.688  0.1376 -1.2524  2.3806
12284TIP3    H258268   6.779   0.829  14.645 -0.0185  0.1062 -1.6702
12285TIP3   OH258269   7.048   2.329   0.050  0.3133 -0.3377 -0.0717
12285TIP3    H158270   7.129   2.344  -0.000 -0.1114 -1.3880 -1.0948
12285TIP3    H258271   7.074   2.342   0.141  2.3830 -3.5416 -0.1071
12286TIP3   OH258272   5.730   5.511   4.357 -0.1859 -0.0518  0.3122
12286TIP3    H158273   5.634   5.513   4.353 -0.1234  3.0695 -0.6917
12286TIP3    H258274   5.756   5.472   4.274 -0.5345  2.1234 -0.8458
12287TIP3   OH258275   4.170   6.017   2.653 -0.2014 -0.2739 -0.0384
12287TIP3    H158276   4.095   6.064   2.691 -0.6785 -0.8367 -0.2691
12287TIP3    H258277   4.211   5.973   2.727  1.4520  2.1197  0.5046
12288TIP3   OH258278   4.502   4.756   1.957 -0.4157 -0.0685 -0.1107
12288TIP3    H158279   4.530   4.666   1.941 -1.5876 -0.5942  0.7805
12288TIP3    H258280   4.451   4.752   2.038  1.1033  1.7106  0.9798
12289TIP3   OH258281   3.587   4.177   2.256 -0.2676  0.4325  0.6320
12289TIP3    H158282   3.591   4.267   2.224 -0.2974  0.4959  0.8028
12289TIP3    H258283   3.669   4.137   2.226  0.9611  1.2599  2.7528
12290TIP3   OH258284   4.889   3.228   0.289  0.0778  0.6573 -0.7170
12290TIP3    H158285   4.939   3.259   0.214 -0.0976  1.7180 -0.4037
12290TIP3    H258286   4.871   3.307   0.341 -0.5565  0.0662 -0.0168
12291TIP3   OH258287   3.760   5.397   3.186  0.1451 -0.0505 -0.1115
12291TIP3    H158288   3.820   5.328   3.212 -0.0056 -0.2374 -0.2575
12291TIP3    H258289   3.762   5.460   3.258  0.7894  0.1208 -0.2791
12292TIP3   OH258290   4.801   2.383   2.134  0.1892  0.2642  0.2084
12292TIP3    H158291   4.716   2.342   2.115  1.3179 -2.9837  1.7108
12292TIP3    H258292   4.859   2.351   2.064  0.6185  0.9842  0.2315
12293TIP3   OH258293   5.093   3.875  15.387 -0.6217 -0.0653 -0.2017
12293TIP3    H158294   5.146   3.905  15.313 -1.2756  0.9093 -0.2920
12293TIP3    H258295   5.100   3.780  15.385  0.1389  0.0051 -0.9428
12294TIP3   OH258296   5.340   4.155   0.031 -0.0104 -0.1850 -0.0130
12294TIP3    H158297   5.430   4.180   0.054 -0.4335 -0.3356  1.8499
12294TIP3    H258298   5.294   4.149   0.114 -1.3635 -1.6472 -0.8339
12295TIP3   OH258299   6.241   3.521  12.505 -0.2976  0.0566 -0.0462
12295TIP3    H158300   6.277   3.442  12.544 -0.1490 -0.4000 -1.1055
12295TIP3    H258301   6.160   3.492  12.462  0.7311  0.1250 -2.0411
12296TIP3   OH258302   5.773   3.389   3.941  0.4706 -0.1058 -0.2592
12296TIP3    H158303   5.780   3.394   3.845 -0.5272 -0.5235 -0.3596
12296TIP3    H258304   5.860   3.364   3.970  1.2687  1.7752 -0.9269
12297TIP3   OH258305   5.449   1.746  14.423  0.2419  0.6722  0.6910
12297TIP3    H158306   5.369   1.746  14.476 -0.4039  1.9264 -0.2566
12297TIP3    H258307   5.419   1.768  14.335  1.5929  0.7492  0.2472
12298TIP3   OH258308   5.162   2.222   1.897  0.1087 -0.3268  0.1490
12298TIP3    H158309   5.181   2.173   1.978 -1.2115  0.7136  1.1045
12298TIP3    H258310   5.218   2.181   1.831  4.2554  1.4000  2.4286
12299TIP3   OH258311   6.683   4.179   5.544  0.0249 -0.0376 -0.0658
12299TIP3    H158312   6.707   4.257   5.594  1.5122  0.0194 -0.8409
12299TIP3    H258313   6.722   4.107   5.594 -1.6198 -0.3434  0.8271
12300TIP3   OH258314   2.865   4.718   2.783 -0.2766  0.0116 -0.1750
12300TIP3    H158315   2.847   4.808   2.812 -1.7166 -0.4460  0.3775
12300TIP3    H258316   2.833   4.663   2.854  0.5639 -0.9522 -0.5376
12301TIP3   OH258317   4.367   6.105   4.716 -0.0601 -0.4428 -0.1788
12301TIP3    H158318   4.281   6.145   4.703 -0.3235  0.7193  4.3061
12301TIP3    H258319   4.429   6.174   4.695 -0.3705  0.2677  1.1867
12302TIP3   OH258320   4.676   0.471  14.283 -0.4624  0.1803  0.0426
12302TIP3    H158321   4.644   0.529  14.352 -1.1287  0.3902 -0.4401
12302TIP3    H258322   4.729   0.406  14.329 -0.6730  0.4855  0.7177
12303TIP3   OH258323   5.867   7.131  14.733  0.1296 -0.1980  0.0028
12303TIP3    H158324   5.861   7.144  14.638 -0.5426  1.4293  0.2511
12303TIP3    H258325   5.789   7.080  14.755  0.8617 -1.5357 -0.4714
12304TIP3   OH258326   7.087   4.099  12.427 -0.3521  0.2435 -0.4269
12304TIP3    H158327   7.058   4.107  12.336 -0.7624 -2.0339 -0.5411
12304TIP3    H258328   7.182   4.109  12.422 -0.6062  2.8569 -0.7142
12305TIP3   OH258329   5.189   5.117   5.003 -0.2999 -0.2672  0.0561
12305TIP3    H158330   5.253   5.086   4.938 -0.0108  1.6705 -0.6322
12305TIP3    H258331   5.122   5.049   5.006  0.0500 -0.7083 -1.7706
12306TIP3   OH258332   3.177   4.089  14.173  0.4096 -0.9661 -0.2205
12306TIP3    H158333   3.089   4.092  14.137  0.7042 -0.9714 -0.9411
12306TIP3    H258334   3.218   4.014  14.131  0.5826 -1.2913  0.5166
12307TIP3   OH258335   0.856   1.827  14.956 -0.2618  0.5355 -0.6733
12307TIP3    H158336   0.882   1.854  15.044 -0.1991  0.4842 -0.6754
12307TIP3    H258337   0.768   1.792  14.966  0.2643 -0.7311 -0.3945
12308TIP3   OH258338   4.670   4.862  14.551 -0.0957  0.0270  0.9752
12308TIP3    H158339   4.625   4.794  14.601  0.4165 -0.4798  0.7519
12308TIP3    H258340   4.603   4.929  14.536 -1.2505 -1.4606 -0.7539
12309TIP3   OH258341   4.260   2.319  14.866 -0.2761  0.1560 -0.4329
12309TIP3    H158342   4.332   2.275  14.821  0.9968  2.3525 -0.6353
12309TIP3    H258343   4.296   2.343  14.951 -1.0540  0.4955 -0.1959
12310TIP3   OH258344   4.154   0.094   1.468  0.1288 -0.8050  0.6071
12310TIP3    H158345   4.132   0.145   1.390  1.4172 -0.6427  0.3370
12310TIP3    H258346   4.136   0.152   1.541 -0.3645 -0.6927  0.3995
12311TIP3   OH258347   2.892   6.363  12.944  0.0778 -0.5526  0.3792
12311TIP3    H158348   2.823   6.318  12.896  1.6554 -1.4895 -1.0773
12311TIP3    H258349   2.899   6.449  12.903 -1.0910  0.0589  1.4030
12312TIP3   OH258350   6.753   6.077   0.212  0.3268  0.1445 -0.2982
12312TIP3    H158351   6.717   6.155   0.254 -2.1958 -1.3056  0.2839
12312TIP3    H258352   6.681   6.014   0.210  2.1690 -2.0223 -1.2114
12313TIP3   OH258353   1.882   4.401   2.873  0.7269 -0.7086  0.6379
12313TIP3    H158354   1.892   4.454   2.952 -0.4774 -0.4269  0.5950
12313TIP3    H258355   1.964   4.415   2.825  0.5618  0.8045  0.7995
12314TIP3   OH258356   3.942   2.400  11.396 -0.7932  0.0443 -0.1384
12314TIP3    H158357   4.000   2.385  11.470  2.0601  0.7070 -2.1367
12314TIP3    H258358   3.945   2.318  11.347 -0.2627  0.6167 -1.0788
12315TIP3   OH258359   2.210   4.687  14.153  0.0271 -0.4646 -0.1497
12315TIP3    H158360   2.292   4.643  14.131  0.2002 -0.3944  0.3588
12315TIP3    H258361   2.236   4.765  14.202 -0.4622 -1.9268  2.4988
12316TIP3   OH258362   0.977   4.101  15.505  0.6042  0.4380  0.7662
12316TIP3    H158363   1.018   4.188  15.505  1.8643 -0.1417  0.9191
12316TIP3    H258364   0.998   4.065  15.419  0.5356  0.0771  0.8973
12317TIP3   OH258365   3.761   5.074   2.679  0.1503  0.6448 -0.3910
12317TIP3    H158366   3.855   5.056   2.666 -0.0160 -1.1738  0.6658
12317TIP3    H258367   3.755   5.169   2.686  2.0710  0.7279  0.5160
12318TIP3   OH258368   4.186   3.570   0.623 -0.1040  0.1806 -0.1206
12318TIP3    H158369   4.125   3.598   0.692 -0.0881  1.3212 -0.5563
12318TIP3    H258370   4.221   3.652   0.588  0.3792 -0.4172 -1.0499
12319TIP3   OH258371   3.425   1.842  15.253 -0.0191 -0.6207 -0.2709
12319TIP3    H158372   3.516   1.864  15.275 -0.1825 -0.6393  0.4291
12319TIP3    H258373   3.372   1.895  15.312 -0.5032  0.5002 -1.6910
12320TIP3   OH258374   1.833   2.874   2.285  0.5647  0.1012 -0.4626
12320TIP3    H158375   1.771   2.944   2.305 -0.1001 -0.3759 -0.8277
12320TIP3    H258376   1.782   2.793   2.295  1.3006 -0.3246 -0.1270
12321TIP3   OH258377   0.821   0.825  13.097 -0.2245 -0.0618 -0.3215
12321TIP3    H158378   0.771   0.811  13.016  1.8036  1.1405 -1.8220
12321TIP3    H258379   0.759   0.805  13.167 -2.9232  1.6045 -2.1309
12322TIP3   OH258380   0.929   5.447   0.215 -0.1615 -0.1821  0.0276
12322TIP3    H158381   0.949   5.372   0.271 -0.0574 -1.1072 -1.2172
12322TIP3    H258382   0.835   5.439   0.196  0.0754 -0.6404 -1.0038
12323TIP3   OH258383   4.836   5.454   4.023 -0.2472  0.4378 -0.4235
12323TIP3    H158384   4.829   5.365   3.989 -0.7812  0.0234  0.7470
12323TIP3    H258385   4.884   5.444   4.106 -1.5497  1.0503  0.4226
12324TIP3   OH258386   4.239   1.573   0.844 -0.2807  0.3650  0.2770
12324TIP3    H158387   4.312   1.540   0.896  0.0890  0.6176 -0.0741
12324TIP3    H258388   4.258   1.544   0.755 -1.2997 -0.7085  0.4078
12325TIP3   OH258389   4.600   1.214  14.983  0.2395  0.3958  0.2726
12325TIP3    H158390   4.615   1.305  15.008  1.5702  0.0719  0.6856
12325TIP3    H258391   4.612   1.164  15.064  0.9424 -0.2932 -0.2479
12326TIP3   OH258392   1.872   5.545   0.989  0.2765  0.1659  0.2481
12326TIP3    H158393   1.812   5.481   0.950  0.1881  0.2995  0.1633
12326TIP3    H258394   1.936   5.492   1.037  1.7416 -0.1267 -1.9503
12327TIP3   OH258395   5.532   6.109  14.735  0.3421  0.1311  0.6145
12327TIP3    H158396   5.588   6.184  14.754  0.8152 -0.8238  3.1353
12327TIP3    H258397   5.564   6.039  14.792 -1.2131 -1.4666 -0.4090
12328TIP3   OH258398   3.116   4.983   1.338 -0.5115 -0.3977  0.2527
12328TIP3    H158399   3.051   5.043   1.300  1.1888 -0.1403 -2.3954
12328TIP3    H258400   3.116   4.907   1.280  1.1499 -0.6345  0.5317
12329TIP3   OH258401   3.124   0.519   1.826 -0.3497 -0.2219  0.0348
12329TIP3    H158402   3.144   0.613   1.825  1.4310 -0.5868 -1.7926
12329TIP3    H258403   3.039   0.511   1.782  1.2861  0.1928 -3.3113
12330TIP3   OH258404   6.133   6.281   2.847  0.3282  0.5001 -0.8196
12330TIP3    H158405   6.053   6.229   2.848  0.4920  0.2523 -0.0370
12330TIP3    H258406   6.133   6.327   2.931  1.9221 -0.9132 -0.0072
12331TIP3   OH258407   3.638   3.109  15.228 -0.3556  0.1460 -0.0279
12331TIP3    H158408   3.556   3.136  15.271  0.0423  0.9379  0.2500
12331TIP3    H258409   3.692   3.187  15.231  0.9374 -0.7695  1.0327
12332TIP3   OH258410   4.687   5.731   0.037  0.1268  0.4363 -0.4799
12332TIP3    H158411   4.595   5.724   0.009 -0.2472  1.2944  0.5042
12332TIP3    H258412   4.682   5.742   0.132  1.2507  0.6135 -0.4373
12333TIP3   OH258413   6.964   3.718  14.605  0.0446  0.1498  0.0749
12333TIP3    H158414   6.967   3.659  14.681 -0.4016  0.0621  0.0223
12333TIP3    H258415   7.041   3.693  14.553 -0.4187 -0.7357 -0.2023
12334TIP3   OH258416   1.356   0.481  13.378  0.4060  0.5585 -0.0277
12334TIP3    H158417   1.279   0.436  13.343  0.0247 -0.4556  2.0595
12334TIP3    H258418   1.371   0.553  13.317 -0.7899 -0.5995 -1.7493
12335TIP3   OH258419   5.874   6.724   1.961  0.1809  0.0044  0.6075
12335TIP3    H158420   5.869   6.668   1.884 -0.3639 -1.0749  1.4247
12335TIP3    H258421   5.965   6.754   1.964 -0.4177  2.2769 -2.0052
12336TIP3   OH258422   4.448   4.258  14.431  0.0615  0.1497 -0.0796
12336TIP3    H158423   4.505   4.221  14.364 -1.4036 -1.0047 -0.7154
12336TIP3    H258424   4.360   4.229  14.407 -0.8307  1.9767  0.8101
12337TIP3   OH258425   6.906   4.648  14.362 -0.8910 -0.2039  0.5368
12337TIP3    H158426   6.947   4.594  14.294 -0.9749  2.1190 -1.4235
12337TIP3    H258427   6.979   4.686  14.410 -0.7454  1.3967 -0.9103
12338TIP3   OH258428   2.957   4.142  10.288  0.1016 -0.3912 -0.1685
12338TIP3    H158429   2.882   4.178  10.335 -0.9502 -1.2975 -1.1503
12338TIP3    H258430   2.923   4.066  10.241  1.3478 -0.0495 -1.6633
12339TIP3   OH258431   3.159   4.287   1.884  0.0883 -0.5001 -0.2978
12339TIP3    H158432   3.221   4.216   1.870 -0.0033 -0.7362  0.4835
12339TIP3    H258433   3.209   4.367   1.864  0.6932 -0.6799  0.4845
12340TIP3   OH258434   5.415   5.463   1.951  0.1063 -0.0400 -0.0352
12340TIP3    H158435   5.327   5.499   1.962  1.0206  1.3763  3.4112
12340TIP3    H258436   5.403   5.369   1.966 -0.6430  0.3276  1.8930
12341TIP3   OH258437   5.812   1.481   0.284 -0.5171  0.2285  0.1325
12341TIP3    H158438   5.770   1.417   0.226 -1.6218 -0.0631  1.2389
12341TIP3    H258439   5.839   1.429   0.360  0.3533  0.7293  0.1677
12342TIP3   OH258440   6.326   5.863  14.020 -0.2212 -0.3793 -0.5601
12342TIP3    H158441   6.327   5.779  14.065  1.1994  0.1811  0.4786
12342TIP3    H258442   6.303   5.927  14.087 -1.7626  0.0187 -1.4465
12343TIP3   OH258443   4.854   2.268  14.188 -0.5779  0.1373  0.4153
12343TIP3    H158444   4.890   2.237  14.272 -1.8622  0.5353  1.1260
12343TIP3    H258445   4.836   2.188  14.139 -0.4116 -0.1215  0.7761
12344TIP3   OH258446   1.006   4.768   0.696  0.5123 -0.4078 -0.4565
12344TIP3    H158447   1.033   4.826   0.767  1.8215  1.5140 -2.4818
12344TIP3    H258448   0.975   4.826   0.627 -1.9091 -2.2949 -1.0578
12345TIP3   OH258449   2.992   4.207   3.160 -0.1952 -0.7117  0.0205
12345TIP3    H158450   3.027   4.156   3.086  1.6820 -2.0740  1.7657
12345TIP3    H258451   2.942   4.143   3.211 -1.0385  0.1006  0.2215
12346TIP3   OH258452   5.437   5.868  11.155  0.3321 -0.3927  0.3474
12346TIP3    H158453   5.446   5.811  11.078 -1.6923  1.8311 -1.6350
12346TIP3    H258454   5.410   5.809  11.225  0.3906 -2.2048 -1.1002
12347TIP3   OH258455   5.299   3.106   0.165  0.7947 -0.1293  0.2706
12347TIP3    H158456   5.312   3.152   0.248  0.6145 -0.6196  0.5670
12347TIP3    H258457   5.365   3.144   0.107  2.4194 -1.3493  1.2690
12348TIP3   OH258458   6.587   4.918   4.667  0.6915 -0.1326 -0.6303
12348TIP3    H158459   6.608   5.010   4.686  2.1602 -0.7442  0.8327
12348TIP3    H258460   6.643   4.896   4.592  2.3781 -0.5957  0.7347
12349TIP3   OH258461   1.409   1.373  13.789  0.0233  0.0578  0.2799
12349TIP3    H158462   1.335   1.428  13.815  1.0491  1.1750  0.9288
12349TIP3    H258463   1.439   1.333  13.870  0.0248 -0.5290 -0.0087
12350TIP3   OH258464   3.546   5.424  14.263  0.0393  0.0013 -0.1900
12350TIP3    H158465   3.494   5.501  14.239 -0.3073 -0.4999 -1.0705
12350TIP3    H258466   3.485   5.366  14.308  0.3058  0.2411  0.4931
12351TIP3   OH258467   1.342   4.693  12.208 -0.4143 -0.2552  0.1000
12351TIP3    H158468   1.364   4.743  12.130  0.2227 -0.7931 -0.0685
12351TIP3    H258469   1.418   4.637  12.223 -0.0923  0.5640  1.6862
12352TIP3   OH258470   6.462   4.746  11.649  0.0677 -0.4243  0.0922
12352TIP3    H158471   6.518   4.687  11.700 -1.5512 -0.6395  1.6456
12352TIP3    H258472   6.391   4.770  11.709 -1.3345  0.1064 -1.7455
12353TIP3   OH258473   2.300   4.743   0.271  0.0406 -0.5252 -0.9285
12353TIP3    H158474   2.324   4.724   0.180  2.4594 -0.9071 -0.2434
12353TIP3    H258475   2.294   4.657   0.312  2.9164 -0.2170  0.2135
12354TIP3   OH258476   0.431   0.500   1.188  0.6331 -0.1397  0.1889
12354TIP3    H158477   0.429   0.544   1.273  1.8220  1.2947 -0.5110
12354TIP3    H258478   0.521   0.510   1.158 -0.3133  1.4881 -2.3109
12355TIP3   OH258479   4.283   5.449   1.744 -0.2186 -0.0163 -0.3256
12355TIP3    H158480   4.321   5.426   1.659  1.4054  1.4685 -0.0548
12355TIP3    H258481   4.346   5.415   1.808 -0.4904  0.4884  0.2161
12356TIP3   OH258482   0.253   0.058   1.425  0.9536  0.4088  0.0356
12356TIP3    H158483   0.312   0.128   1.399  2.1212  0.0822  1.6939
12356TIP3    H258484   0.295  -0.022   1.393  0.0245  0.3877 -1.1585
12357TIP3   OH258485   2.914   5.689   0.930  0.1362 -0.0104  0.1584
12357TIP3    H158486   2.908   5.648   1.016 -1.0286 -0.4617 -0.1305
12357TIP3    H258487   2.825   5.720   0.911  0.5524  0.7914 -0.5340
12358TIP3   OH258488   6.031   4.373   0.298 -0.5485 -0.4017 -0.1402
12358TIP3    H158489   5.956   4.420   0.335 -1.6067 -2.1253 -0.0232
12358TIP3    H258490   5.992   4.309   0.238  0.9561  0.0954 -1.6805
12359TIP3   OH258491   2.925   4.123  14.817  0.0407 -0.4550 -0.1139
12359TIP3    H158492   2.882   4.057  14.871  0.9941  0.5425  1.9341
12359TIP3    H258493   2.968   4.181  14.880 -0.2976  1.7866 -1.8717
12360TIP3   OH258494   2.639   3.188   1.405 -0.2682 -0.4579  0.0065
12360TIP3    H158495   2.551   3.207   1.374 -0.6387 -1.3943  0.4600
12360TIP3    H258496   2.642   3.224   1.494 -0.4711 -1.1664  0.3020
12361TIP3   OH258497   5.750   4.571   4.479  0.5248 -0.1638 -0.1261
12361TIP3    H158498   5.839   4.587   4.508  0.7387  0.0562 -0.8813
12361TIP3    H258499   5.759   4.514   4.403  0.0255 -0.1531 -0.1975
12362TIP3   OH258500   5.369   4.188   3.881  0.4777 -0.4664  0.7339
12362TIP3    H158501   5.347   4.133   3.806  2.6065  1.7559 -1.6546
12362TIP3    H258502   5.300   4.254   3.884  1.0438  0.1747 -0.0805
12363TIP3   OH258503   3.495   2.586   0.615 -0.0516 -0.9078  0.2414
12363TIP3    H158504   3.424   2.647   0.596  0.6331  0.4713  2.0422
12363TIP3    H258505   3.556   2.597   0.541 -1.0103 -1.0904 -0.5922
12364TIP3   OH258506   6.509   2.041   1.864  0.1980  0.1862 -0.1227
12364TIP3    H158507   6.414   2.041   1.878 -0.0743 -1.2978 -1.8007
12364TIP3    H258508   6.535   2.133   1.873 -1.3023  0.5207  0.9408
12365TIP3   OH258509   6.363   5.814   1.217  0.2347 -0.5533  0.4158
12365TIP3    H158510   6.432   5.872   1.184  0.7796 -1.3685  0.1119
12365TIP3    H258511   6.340   5.760   1.142  1.4828 -2.4279  1.3575
12366TIP3   OH258512   0.781   6.176  13.746  0.1386  0.6060  0.4046
12366TIP3    H158513   0.840   6.152  13.674 -1.8398 -0.6373 -0.8844
12366TIP3    H258514   0.798   6.110  13.813  1.6019  1.4321  0.8510
12367TIP3   OH258515   0.586   3.488  14.868 -0.3304 -0.5498  0.4005
12367TIP3    H158516   0.576   3.470  14.962  0.9502  0.7980  0.8194
12367TIP3    H258517   0.649   3.422  14.839 -0.1720 -0.5116  0.6498
12368TIP3   OH258518   7.027   6.445   0.175 -0.2565 -0.1966  0.0839
12368TIP3    H158519   7.081   6.440   0.096  0.9796 -1.6380  0.9898
12368TIP3    H258520   7.048   6.530   0.213  0.5176 -0.2751 -0.1644
12369TIP3   OH258521   2.000   2.060   1.330 -0.0517 -0.3119  0.4260
12369TIP3    H158522   1.993   1.973   1.370 -2.2439 -0.2531  0.2158
12369TIP3    H258523   1.916   2.102   1.348  0.2095  0.9978 -1.2520
12370TIP3   OH258524   6.333   0.451  15.395 -0.5798 -0.4279 -0.4447
12370TIP3    H158525   6.284   0.432  15.476  1.9795 -1.6139  0.8664
12370TIP3    H258526   6.373   0.368  15.372  0.0596  0.3147 -2.0407
12371TIP3   OH258527   5.891   4.172   0.171 -0.3922 -0.1154  0.0587
12371TIP3    H158528   5.885   4.112   0.245 -1.2888 -0.3448 -0.1854
12371TIP3    H258529   5.963   4.138   0.118 -0.5538 -0.6697  0.1955
12372TIP3   OH258530   4.104   6.608   2.680 -0.3614  0.0692  0.3041
12372TIP3    H158531   4.177   6.654   2.640 -0.5529 -0.0710 -0.2148
12372TIP3    H258532   4.144   6.550   2.744 -0.1472  1.1741  1.1642
12373TIP3   OH258533   2.368   3.323  14.490 -1.0359  0.1568  0.1216
12373TIP3    H158534   2.410   3.391  14.543 -2.5531  0.9772  0.2947
12373TIP3    H258535   2.312   3.276  14.552 -0.1146 -1.1550 -0.0336
12374TIP3   OH258536   4.253   6.781   4.264  0.8023 -0.2937 -0.0128
12374TIP3    H158537   4.159   6.769   4.247  0.8903 -0.0636 -0.6397
12374TIP3    H258538   4.255   6.830   4.346  0.3333  1.4103 -0.9984
12375TIP3   OH258539   6.437   6.346  13.478 -0.0764  0.1213 -0.2300
12375TIP3    H158540   6.405   6.387  13.397  1.8216  2.0321 -0.0736
12375TIP3    H258541   6.481   6.417  13.524 -1.3612 -0.8678  2.6519
12376TIP3   OH258542   1.843   0.691  13.939  0.2296 -0.1096  0.2721
12376TIP3    H158543   1.888   0.610  13.962 -0.3705 -0.4241  0.3341
12376TIP3    H258544   1.750   0.672  13.951  0.1070  0.7356  0.7641
12377TIP3   OH258545   2.172   5.384  15.402 -0.1586 -0.1485  0.2668
12377TIP3    H158546   2.196   5.348  15.316  0.6188 -1.8163  1.1509
12377TIP3    H258547   2.103   5.326  15.434  0.6191 -0.4539  1.4166
12378TIP3   OH258548   2.112   3.596  13.021 -0.5121 -0.2058  0.3125
12378TIP3    H158549   2.053   3.523  13.004 -1.3913  0.4076  0.7243
12378TIP3    H258550   2.114   3.604  13.116  1.0176 -0.8612  0.3527
12379TIP3   OH258551   4.052   5.229   3.994  0.1044 -0.1816  0.3189
12379TIP3    H158552   3.986   5.269   4.050 -0.5777  0.2620 -0.7884
12379TIP3    H258553   4.002   5.170   3.937  0.8265 -0.8562  0.3676
12380TIP3   OH258554   2.078   3.869  15.326  0.4291 -0.2114  0.0668
12380TIP3    H158555   2.106   3.878  15.235 -0.7089  1.4358 -0.1433
12380TIP3    H258556   2.008   3.804  15.323  1.3741 -1.2248 -0.0230
12381TIP3   OH258557   5.918   4.553   5.079  0.0412 -0.2007 -0.0177
12381TIP3    H158558   5.854   4.624   5.087  0.5633  0.4761 -1.5154
12381TIP3    H258559   5.867   4.473   5.090 -0.1195  0.4053  4.3735
12382TIP3   OH258560   4.485   7.005  14.723 -0.1720  0.5927 -0.0899
12382TIP3    H158561   4.570   7.044  14.741  0.7317 -1.4364  0.1548
12382TIP3    H258562   4.443   6.997  14.809  0.6237 -1.1483  0.1533
12383TIP3   OH258563   5.235   6.789   0.127  0.2054 -0.1310  0.5991
12383TIP3    H158564   5.144   6.759   0.123  0.9403 -2.2964 -1.2051
12383TIP3    H258565   5.275   6.735   0.194  0.3749  0.2047  0.7678
12384TIP3   OH258566   4.949   1.624   0.185 -0.2757  0.1325  0.4180
12384TIP3    H158567   4.906   1.634   0.270 -1.1409  1.2006 -0.1302
12384TIP3    H258568   5.026   1.570   0.203 -2.9437 -3.6199  1.0616
12385TIP3   OH258569   5.846   3.522  13.526 -0.1450 -0.3000  0.0422
12385TIP3    H158570   5.765   3.473  13.517 -0.2173 -0.5214  1.6108
12385TIP3    H258571   5.912   3.455  13.547 -0.1281  0.1695  1.5981
12386TIP3   OH258572   1.459   4.495   2.687 -0.0947 -0.3280 -0.6252
12386TIP3    H158573   1.540   4.541   2.661 -1.0430  1.2734 -0.8290
12386TIP3    H258574   1.459   4.501   2.783  0.2216 -0.6483 -0.6069
12387TIP3   OH258575   1.961   4.252   0.961 -0.3142  0.3072 -0.5852
12387TIP3    H158576   1.867   4.243   0.972 -0.6025  3.1002 -0.2375
12387TIP3    H258577   1.983   4.331   1.012  1.8705  0.7823 -2.2022
12388TIP3   OH258578   1.780   6.250   0.498  0.2184  0.2032 -0.2132
12388TIP3    H158579   1.842   6.251   0.570  0.2816 -0.8863 -0.2489
12388TIP3    H258580   1.708   6.306   0.527  0.2415 -0.2390  0.7036
12389TIP3   OH258581   6.029   4.348  14.729  0.2558 -0.7841 -0.9714
12389TIP3    H158582   5.937   4.370  14.744  0.6498  0.4865 -0.3106
12389TIP3    H258583   6.056   4.405  14.657 -0.1072 -2.8701 -2.7858
12390TIP3   OH258584   3.617   4.253   3.184 -0.0849 -0.2283  0.0305
12390TIP3    H158585   3.652   4.167   3.159  1.1480  0.2477  0.0553
12390TIP3    H258586   3.640   4.262   3.277 -1.2730 -0.3765  0.3423
12391TIP3   OH258587   4.197   4.476   0.976 -0.3460  0.7900 -0.1261
12391TIP3    H158588   4.115   4.476   1.026 -0.1511 -0.9835  0.2300
12391TIP3    H258589   4.252   4.410   1.019  0.4089  0.3505 -1.7052
12392TIP3   OH258590   5.819   5.852  14.666  0.0748 -0.0525  0.1261
12392TIP3    H158591   5.864   5.936  14.668 -1.3627  0.7216  0.3477
12392TIP3    H258592   5.849   5.806  14.744  0.9399  0.2112 -0.0506
12393TIP3   OH258593   2.605   4.060   2.160 -0.0873  0.5300  0.3009
12393TIP3    H158594   2.621   3.966   2.156 -3.8508 -0.2530  1.3182
12393TIP3    H258595   2.531   4.074   2.100  0.2293  2.7729  0.4058
12394TIP3   OH258596   2.440   4.314  13.322 -0.0680 -0.1060 -0.0123
12394TIP3    H158597   2.376   4.295  13.254 -3.3917  1.4427  2.5179
12394TIP3    H258598   2.440   4.410  13.329  2.3876 -0.0974  0.2039
12395TIP3   OH258599   5.423   4.648  13.565 -0.5879 -0.9666 -0.0391
12395TIP3    H158600   5.383   4.728  13.598 -1.6921 -1.6363  0.2654
12395TIP3    H258601   5.438   4.665  13.472 -0.5402 -0.3024  0.0885
12396TIP3   OH258602   6.451   5.655  14.951 -0.3550 -0.0002 -0.5550
12396TIP3    H158603   6.489   5.695  14.873 -0.0098  0.1514 -0.3068
12396TIP3    H258604   6.523   5.606  14.990 -0.3893  0.3693 -0.0282
12397TIP3   OH258605   5.553   4.496  14.386  0.6318 -0.5274 -0.5329
12397TIP3    H158606   5.575   4.423  14.328 -0.7600 -1.0463 -0.4154
12397TIP3    H258607   5.599   4.571  14.349  2.7834 -1.6169 -0.1750
12398TIP3   OH258608   4.340   3.078   1.105 -0.0656  0.3027 -0.4437
12398TIP3    H158609   4.273   3.097   1.171  1.2004  0.9550  0.6704
12398TIP3    H258610   4.373   2.991   1.129  0.5555  0.6375 -0.0711
12399TIP3   OH258611   7.038   2.890  15.004 -0.3399 -0.4041 -0.0430
12399TIP3    H158612   7.127   2.860  15.026 -0.3006 -0.8677 -0.8437
12399TIP3    H258613   7.046   2.986  15.003  0.9474 -0.4829 -3.3310
12400TIP3   OH258614   6.557   6.866  14.519  0.4878 -0.6061 -0.4312
12400TIP3    H158615   6.536   6.853  14.611  3.0518 -0.6169  0.1987
12400TIP3    H258616   6.511   6.795  14.473 -1.5966 -0.0270  0.6955
12401TIP3   OH258617   0.914   2.046  14.312 -0.4927 -0.5094 -0.3272
12401TIP3    H158618   0.838   2.104  14.306 -0.5246 -0.5327 -0.1346
12401TIP3    H258619   0.910   1.994  14.231 -0.4527 -0.2301 -0.5065
12402TIP3   OH258620   3.607   2.725   2.898 -0.8615 -0.0428 -0.3532
12402TIP3    H158621   3.558   2.702   2.977  0.4297  0.0074  0.4704
12402TIP3    H258622   3.565   2.675   2.829 -1.0316 -1.2635  0.6259
12403TIP3   OH258623   6.306   0.087   0.222  0.3817 -0.5165  0.5000
12403TIP3    H158624   6.365   0.019   0.188  1.3814  0.8160 -0.4806
12403TIP3    H258625   6.220   0.044   0.228  1.0660 -1.9445  0.1857
12404TIP3   OH258626   4.793   3.569  13.935  0.8140 -0.0343  0.0507
12404TIP3    H158627   4.860   3.589  13.870  0.1102 -0.1635 -0.7247
12404TIP3    H258628   4.763   3.654  13.966 -1.2785  0.1587 -2.3202
12405TIP3   OH258629   4.796   5.188  15.015 -0.4929  0.4057  0.1765
12405TIP3    H158630   4.709   5.170  15.048  0.7371 -0.4919  3.1226
12405TIP3    H258631   4.834   5.250  15.078  1.0060  0.8019 -1.0560
12406TIP3   OH258632   1.879   3.732   4.255 -0.0088  0.2278 -0.1690
12406TIP3    H158633   1.823   3.691   4.189 -0.9422 -0.0713  0.7946
12406TIP3    H258634   1.947   3.667   4.272  0.8182  0.7061 -1.5484
12407TIP3   OH258635   3.946   5.529   3.903  0.0281  0.0437 -0.2884
12407TIP3    H158636   3.973   5.452   3.953  0.3764  0.8895  0.8537
12407TIP3    H258637   3.964   5.507   3.812 -0.0063 -1.2750  0.0152
12408TIP3   OH258638   5.473   3.707   1.249 -0.3277 -0.0550 -0.6892
12408TIP3    H158639   5.391   3.700   1.200 -1.2005 -2.8031  1.0513
12408TIP3    H258640   5.470   3.794   1.288 -2.2463  0.0128 -0.9423
12409TIP3   OH258641   0.743   6.531  14.740  0.1745 -0.4623  0.4481
12409TIP3    H158642   0.777   6.494  14.821 -0.7418 -1.1949  0.5093
12409TIP3    H258643   0.649   6.539  14.755  0.2157  0.9751  0.0716
12410TIP3   OH258644   5.270   6.565   1.112 -0.0795  0.1501 -0.4402
12410TIP3    H158645   5.263   6.486   1.165 -0.3539  0.0138 -0.6779
12410TIP3    H258646   5.364   6.574   1.094  0.4162  1.9880  2.7630
12411TIP3   OH258647   4.957   6.106  15.426  0.1448 -0.2215  0.6002
12411TIP3    H158648   4.900   6.030  15.417  0.2195 -0.1629 -0.3533
12411TIP3    H258649   4.937   6.141  15.513 -0.1417 -1.1205  0.9002
12412TIP3   OH258650   3.491   0.481   1.342 -0.5012  0.5753 -0.2801
12412TIP3    H158651   3.526   0.497   1.254  0.5682  0.2156  0.0747
12412TIP3    H258652   3.523   0.555   1.393  1.8528 -1.0156  0.6327
12413TIP3   OH258653   0.131   6.433   0.063 -0.6946  0.5893  0.0973
12413TIP3    H158654   0.163   6.362   0.007  0.7572  1.1476  0.1888
12413TIP3    H258655   0.209   6.464   0.109 -1.8350  0.2864  2.2873
12414TIP3   OH258656   4.150   4.871   0.362  0.2607 -0.3030  0.2582
12414TIP3    H158657   4.074   4.925   0.385 -0.5738 -0.2725 -2.3858
12414TIP3    H258658   4.225   4.928   0.377 -0.5551  1.3282 -1.6556
12415TIP3   OH258659   3.818   3.335   2.903  0.0605  0.6129  0.1017
12415TIP3    H158660   3.791   3.246   2.925  2.4777  0.0343  0.8065
12415TIP3    H258661   3.877   3.361   2.973 -0.5956  2.7916 -0.1087
12416TIP3   OH258662   4.513   4.895   2.943 -0.5656  0.3477 -0.4398
12416TIP3    H158663   4.436   4.949   2.958  0.1655  1.2114  0.2956
12416TIP3    H258664   4.558   4.892   3.028  0.9567  1.0630 -1.1904
12417TIP3   OH258665   1.637   2.486   2.653 -0.0749 -0.2338  0.4094
12417TIP3    H158666   1.573   2.537   2.603 -0.7862 -0.6644  0.8681
12417TIP3    H258667   1.701   2.458   2.588 -0.1376  0.5361  0.0095
12418TIP3   OH258668   1.448   4.926  14.241  0.0519 -0.5255 -0.3372
12418TIP3    H158669   1.463   5.000  14.183 -1.3755  0.6532  0.7512
12418TIP3    H258670   1.530   4.914  14.288  0.2153  0.5013 -0.3598
12419TIP3   OH258671   5.977   5.064  14.956  0.9237 -0.3656  0.8346
12419TIP3    H158672   5.927   5.126  15.009  0.3880  2.1035 -2.4563
12419TIP3    H258673   6.060   5.055  15.003  0.0428  0.8738  2.6760
12420TIP3   OH258674   4.443   3.224  14.621 -0.6462 -0.3638 -0.0930
12420TIP3    H158675   4.455   3.311  14.659  0.1492  0.5424 -2.3416
12420TIP3    H258676   4.438   3.240  14.526  0.3382 -2.8436 -0.5798
12421TIP3   OH258677   3.434   4.322   0.511 -0.1171  0.3515  0.0215
12421TIP3    H158678   3.509   4.379   0.497  0.0736  0.4394  1.3813
12421TIP3    H258679   3.469   4.233   0.500 -0.3636  0.4585 -1.8470
12422TIP3   OH258680   5.765   3.959  15.545  0.3550 -0.3108 -0.2207
12422TIP3    H158681   5.676   3.936  15.571  0.8994  0.4847  2.5535
12422TIP3    H258682   5.754   4.016  15.469 -1.4808 -0.6006 -0.1966
12423TIP3   OH258683   4.491   2.246   5.857 -0.0077 -0.1975  0.4205
12423TIP3    H158684   4.475   2.340   5.852 -2.2238 -0.5418  0.5068
12423TIP3    H258685   4.452   2.210   5.777 -0.3990 -1.1994  1.0499
12424TIP3   OH258686   1.897   4.049  15.074  0.6335  0.1470 -0.1855
12424TIP3    H158687   1.875   4.088  15.159  0.5178 -1.5207  0.5627
12424TIP3    H258688   1.990   4.027  15.081  0.9475  1.2120 -0.9754
12425TIP3   OH258689   2.103   0.137  15.375  0.0216 -0.1914 -0.1376
12425TIP3    H158690   2.167   0.110  15.440  0.2284 -0.1895 -0.3422
12425TIP3    H258691   2.145   0.208  15.327  0.2615 -0.8717 -0.9461
12426TIP3   OH258692   5.266   1.106  14.840 -0.5028 -0.9531  0.0659
12426TIP3    H158693   5.254   1.191  14.799  1.1740 -0.3074  0.8727
12426TIP3    H258694   5.225   1.115  14.926  0.4218 -0.6709  0.4842
12427TIP3   OH258695   3.482   6.703  15.097  0.5046  0.2147 -0.6220
12427TIP3    H158696   3.455   6.648  15.023  0.4082 -0.5627 -0.0196
12427TIP3    H258697   3.518   6.641  15.160 -0.8511  0.6712  0.6300
12428TIP3   OH258698   3.347   2.642   1.150 -0.1381  0.0272 -0.6479
12428TIP3    H158699   3.291   2.708   1.190  0.2676  0.4918 -0.8355
12428TIP3    H258700   3.379   2.683   1.069  1.1461  0.1077 -0.1208
12429TIP3   OH258701   1.627   1.882   0.344  0.5577  0.2681  0.0694
12429TIP3    H158702   1.636   1.841   0.430 -0.4361 -1.0579 -0.4452
12429TIP3    H258703   1.678   1.826   0.286  1.9582  1.6572 -0.0676
12430TIP3   OH258704   5.148   3.949   0.537  0.3557  0.1068  0.2051
12430TIP3    H158705   5.136   3.914   0.625  0.9125 -3.1372 -0.9316
12430TIP3    H258706   5.060   3.977   0.510 -0.1421 -0.5584  1.1194
12431TIP3   OH258707   2.905   2.360  14.877  0.1510  0.0830  0.6735
12431TIP3    H158708   2.923   2.340  14.785 -1.8589  1.7299 -0.1169
12431TIP3    H258709   2.936   2.450  14.888  1.5419 -0.5246  1.9805
12432TIP3   OH258710   4.176   3.842   3.065  0.1066 -0.4919 -0.2274
12432TIP3    H158711   4.269   3.862   3.077  0.1922 -0.6227 -0.6589
12432TIP3    H258712   4.174   3.779   2.993 -0.2260 -1.3522  0.5161
12433TIP3   OH258713   6.802   1.247   2.046 -0.6251 -0.9959 -0.5476
12433TIP3    H158714   6.884   1.280   2.081 -0.8152  0.4246 -1.4430
12433TIP3    H258715   6.735   1.283   2.104 -0.7278 -0.9464 -0.6973
12434TIP3   OH258716   3.071   5.021   3.796 -0.5862  0.1995 -0.1148
12434TIP3    H158717   3.011   5.072   3.851  0.7357  0.6078  1.0004
12434TIP3    H258718   3.066   5.062   3.710 -3.9988 -1.5281 -0.8016
12435TIP3   OH258719   5.525   5.085   4.555 -0.0550 -0.6934 -0.0992
12435TIP3    H158720   5.618   5.089   4.575 -0.0564 -1.5904  0.1222
12435TIP3    H258721   5.508   4.992   4.538 -1.3858 -0.8880  2.1901
12436TIP3   OH258722   1.071   6.978  14.190  0.7301 -0.2363 -0.1781
12436TIP3    H158723   1.047   6.886  14.205  0.7923 -0.2596 -0.2158
12436TIP3    H258724   1.137   6.974  14.121 -0.2602 -0.0605 -1.1534
12437TIP3   OH258725   3.915   4.796  15.476 -0.6163 -0.1727  0.4721
12437TIP3    H158726   3.946   4.859  15.542  0.0717 -1.2930  1.2325
12437TIP3    H258727   3.836   4.836  15.440  0.0629  1.3378  0.6309
12438TIP3   OH258728   6.977   3.068   0.679  0.2338  0.7201  0.1927
12438TIP3    H158729   6.936   3.127   0.616 -2.1940  0.8807  1.8755
12438TIP3    H258730   7.032   3.125   0.733  1.1554  0.7946 -0.8005
12439TIP3   OH258731   4.344   0.406   4.701  0.5056 -0.3285 -0.2373
12439TIP3    H158732   4.363   0.339   4.767  0.1513 -0.1541  0.0422
12439TIP3    H258733   4.296   0.473   4.748  2.8061  1.2197  0.0113
12440TIP3   OH258734   6.239   4.119   1.225 -0.1415  0.0543 -0.1326
12440TIP3    H158735   6.248   4.145   1.316 -0.6223  0.0069 -0.0683
12440TIP3    H258736   6.254   4.199   1.175  0.1883  0.0662 -0.0168
12441TIP3   OH258737   5.125   0.348  13.755 -0.2529  0.5888  0.0350
12441TIP3    H158738   5.204   0.402  13.759 -0.2825  0.8568 -2.6068
12441TIP3    H258739   5.063   0.394  13.811  1.4116  0.4098  2.1127
12442TIP3   OH258740   0.284   1.998   4.102  0.0004  0.2464  0.0518
12442TIP3    H158741   0.326   1.928   4.152  1.4922  0.8052 -0.3940
12442TIP3    H258742   0.259   2.063   4.168 -1.9173 -0.9439  0.5348
12443TIP3   OH258743   1.714   1.495  14.778  0.2089  0.1217 -0.3855
12443TIP3    H158744   1.797   1.474  14.821  1.2292  1.4684 -1.6634
12443TIP3    H258745   1.738   1.514  14.687 -1.1652  2.8779 -0.2182
12444TIP3   OH258746   6.205   5.018  15.110  0.4491 -0.3911 -0.5928
12444TIP3    H158747   6.158   5.003  15.193  1.3384 -2.8909 -0.4913
12444TIP3    H258748   6.298   5.016  15.135  0.7046  0.2376 -1.4680
12445TIP3   OH258749   5.670   6.067  15.272  0.1931  0.0930 -0.4817
12445TIP3    H158750   5.755   6.039  15.238  0.4756  1.8449 -1.3097
12445TIP3    H258751   5.607   6.034  15.208  0.2075 -1.4296  0.2673
12446TIP3   OH258752   6.259   3.973   1.710 -0.7333  0.4991 -0.1133
12446TIP3    H158753   6.221   3.914   1.646  0.1702  0.0693 -0.2532
12446TIP3    H258754   6.335   4.012   1.665  0.6733 -0.7727  1.1171
12447TIP3   OH258755   3.522   2.415  13.117  0.1860 -0.5987  0.0431
12447TIP3    H158756   3.614   2.442  13.114 -0.0194 -0.0036 -1.4678
12447TIP3    H258757   3.520   2.342  13.179  1.1483  1.3884  2.5198
12448TIP3   OH258758   5.788   3.324   0.476 -0.1140 -0.1890 -0.1102
12448TIP3    H158759   5.729   3.381   0.525  1.2154  0.0207  1.2939
12448TIP3    H258760   5.802   3.248   0.533 -0.9442 -1.3900 -1.4710
12449TIP3   OH258761   6.979   3.942   0.956  0.6717  0.9034  0.5224
12449TIP3    H158762   6.898   3.902   0.926  0.2469  0.8829  1.7107
12449TIP3    H258763   6.992   3.909   1.044  1.7364  1.2675  0.5103
12450TIP3   OH258764   4.196   4.092   1.982 -0.1183 -0.6247 -0.4508
12450TIP3    H158765   4.189   4.017   1.922  0.5138 -2.0261  1.1890
12450TIP3    H258766   4.240   4.159   1.930  2.2846 -2.5086 -0.9971
12451TIP3   OH258767   4.826   0.724  13.704  0.0097  0.2346  0.5078
12451TIP3    H158768   4.837   0.781  13.628 -0.6559 -1.1137 -0.6119
12451TIP3    H258769   4.781   0.778  13.769 -0.9675  0.8590 -0.6831
12452TIP3   OH258770   0.246   3.419   4.132 -0.8208  0.2988 -0.0321
12452TIP3    H158771   0.292   3.369   4.065  0.5513  0.4168  0.8174
12452TIP3    H258772   0.220   3.354   4.197 -0.2677  0.4838  0.3777
12453TIP3   OH258773   4.757   1.789  14.817  0.1164  0.6296 -0.0668
12453TIP3    H158774   4.686   1.781  14.881  1.9462  0.1254  1.9938
12453TIP3    H258775   4.779   1.699  14.794  0.3460  0.7616 -0.3681
12454TIP3   OH258776   5.628   4.752   1.368  0.1049 -0.4086  0.3093
12454TIP3    H158777   5.642   4.827   1.311 -0.9435 -1.4328 -1.3559
12454TIP3    H258778   5.711   4.704   1.366 -0.2185 -0.9434 -1.1601
12455TIP3   OH258779   0.138   5.691   2.526 -0.6538 -0.1496  0.1423
12455TIP3    H158780   0.189   5.709   2.605 -0.0791  0.7561 -0.4231
12455TIP3    H258781   0.201   5.700   2.454 -1.0855 -1.3190 -0.4082
12456TIP3   OH258782   4.684   6.026   4.333  0.7341 -0.2264 -0.4107
12456TIP3    H158783   4.685   5.930   4.336  1.0187 -0.1956  0.4846
12456TIP3    H258784   4.770   6.052   4.366  1.0180  0.3162 -1.5786
12457TIP3   OH258785   2.037   3.160   4.112  0.6078  0.4664 -0.3214
12457TIP3    H158786   2.019   3.111   4.031 -0.0801 -1.3101  0.8804
12457TIP3    H258787   1.952   3.167   4.156  1.1966  0.2827  0.8664
12458TIP3   OH258788   2.452   4.515  10.929  0.5124  0.1046 -0.3828
12458TIP3    H158789   2.362   4.501  10.898  0.5799  1.6562 -1.3018
12458TIP3    H258790   2.495   4.562  10.858  1.4412  1.3460  0.9767
12459TIP3   OH258791   7.116   4.280  14.311 -0.0924 -0.3725  0.4189
12459TIP3    H158792   7.035   4.244  14.347  0.1459 -1.9674 -0.5839
12459TIP3    H258793   7.142   4.218  14.243  1.1969  0.8907 -0.2679
12460TIP3   OH258794   2.242   0.258   4.413  0.2124 -0.0269  0.0392
12460TIP3    H158795   2.270   0.310   4.338 -0.2726  0.7044  0.3548
12460TIP3    H258796   2.229   0.322   4.483 -0.4732 -0.5571  0.4091
12461TIP3   OH258797   5.974   4.932   1.725  0.2718 -0.3901  0.1606
12461TIP3    H158798   5.948   5.001   1.786 -0.5474  0.9399 -1.6299
12461TIP3    H258799   5.926   4.855   1.753 -0.3726  0.2902  0.9572
12462TIP3   OH258800   5.934   3.272   1.077  0.0296  0.3044 -0.4605
12462TIP3    H158801   5.990   3.320   1.138 -0.2423  0.8973 -0.6688
12462TIP3    H258802   5.962   3.301   0.990 -0.6993  0.7262 -0.5635
12463TIP3   OH258803   2.779   2.793  13.298 -0.1326 -0.6834 -0.3001
12463TIP3    H158804   2.776   2.705  13.335 -0.4167 -1.0582 -1.2021
12463TIP3    H258805   2.702   2.836  13.334  0.3764 -0.5780  0.6833
12464TIP3   OH258806   6.785   3.468  15.452 -0.0844 -0.3738  0.2422
12464TIP3    H158807   6.861   3.465  15.394 -0.6044  0.4324 -0.5080
12464TIP3    H258808   6.800   3.398  15.515  0.9268 -0.6958 -0.3367
12465TIP3   OH258809   4.697   3.544   4.155 -0.4367  0.5251 -0.4259
12465TIP3    H158810   4.628   3.578   4.212  0.0610 -1.2556  1.3270
12465TIP3    H258811   4.663   3.460   4.125  0.1412  0.5448 -1.1414
12466TIP3   OH258812   2.840   0.675   5.571 -0.5504  0.4435  0.0683
12466TIP3    H158813   2.827   0.631   5.487 -0.6804  2.3977 -0.9717
12466TIP3    H258814   2.751   0.691   5.604 -0.5022 -0.1745  0.5011
12467TIP3   OH258815   3.359   6.861   3.224  0.0076  0.0965  0.2330
12467TIP3    H158816   3.375   6.875   3.317  1.0973 -1.2112  0.2631
12467TIP3    H258817   3.265   6.871   3.213 -0.1232  0.2625  1.4678
12468TIP3   OH258818   2.252   4.781   2.366  0.4038 -0.4113 -0.6372
12468TIP3    H158819   2.188   4.748   2.429  1.2459  0.0519  0.4751
12468TIP3    H258820   2.335   4.743   2.394  0.8661  0.1882 -1.1749
12469TIP3   OH258821   3.509   0.663   3.073  0.1478  0.4718 -0.0227
12469TIP3    H158822   3.590   0.710   3.096  0.2756  0.3541 -0.2428
12469TIP3    H258823   3.522   0.575   3.108  0.3874  0.2606 -0.6514
12470TIP3   OH258824   4.813   1.273   1.135  0.1348  0.5979 -0.1665
12470TIP3    H158825   4.868   1.230   1.069 -1.2388  0.3303 -1.1724
12470TIP3    H258826   4.813   1.213   1.209  0.7521  0.3343 -0.3776
12471TIP3   OH258827   1.371   4.816   3.993  0.2075  0.2823  0.3273
12471TIP3    H158828   1.326   4.833   3.910 -1.9021  0.8310  1.5448
12471TIP3    H258829   1.388   4.902   4.030  1.5171  0.0519  0.2947
12472TIP3   OH258830   3.816   5.807   0.413 -0.3911 -0.2231 -0.3436
12472TIP3    H158831   3.767   5.755   0.477 -0.3341 -0.4580 -0.4871
12472TIP3    H258832   3.867   5.868   0.466  0.0891 -0.7985 -0.1334
12473TIP3   OH258833   4.071   7.101   2.717  0.1082 -0.0058 -0.2274
12473TIP3    H158834   4.019   7.065   2.789  0.6273 -2.5131 -1.0669
12473TIP3    H258835   4.015   7.169   2.679 -0.9819 -0.0368  1.2876
12474TIP3   OH258836   1.724   3.222  14.837 -0.2186 -0.1915 -0.2460
12474TIP3    H158837   1.683   3.303  14.807 -0.1194 -0.3512 -0.8209
12474TIP3    H258838   1.781   3.196  14.764 -1.1975 -1.4466 -0.5835
12475TIP3   OH258839   5.144   5.056   1.528  0.2340 -0.4325  0.3620
12475TIP3    H158840   5.133   5.151   1.526 -0.8417 -0.5520  0.2440
12475TIP3    H258841   5.109   5.029   1.612  0.9173 -0.6894  0.5706
12476TIP3   OH258842   3.264   4.532   3.208  0.7670 -0.0311 -0.4860
12476TIP3    H158843   3.192   4.511   3.148  0.3362 -0.2168  0.0994
12476TIP3    H258844   3.232   4.508   3.294  0.9838  1.2619 -0.0320
12477TIP3   OH258845   6.620   2.819  12.892 -0.2273  0.3463 -0.6980
12477TIP3    H158846   6.657   2.772  12.818  1.4662 -0.9821  0.9505
12477TIP3    H258847   6.694   2.870  12.927  0.1099 -2.1820  2.5051
12478TIP3   OH258848   0.180   1.693   0.747 -0.0142  0.1039  0.3816
12478TIP3    H158849   0.251   1.755   0.729 -0.3379  0.7359  1.2392
12478TIP3    H258850   0.216   1.633   0.811 -0.1460  0.2398  0.5854
12479TIP3   OH258851   3.151   3.528   2.827 -0.0208 -0.0402 -0.0850
12479TIP3    H158852   3.151   3.433   2.819  0.3469  0.0580 -1.4371
12479TIP3    H258853   3.204   3.546   2.904 -2.0664 -1.0147  1.5887
12480TIP3   OH258854   3.856   7.014  13.881  0.3424  0.5133 -0.5037
12480TIP3    H158855   3.932   7.032  13.937 -1.1785  1.9216  1.2072
12480TIP3    H258856   3.890   7.014  13.792  2.5604 -0.1891  0.3249
12481TIP3   OH258857   3.137   5.770  14.821  0.6716 -0.0515 -0.6455
12481TIP3    H158858   3.211   5.798  14.876  0.7102  0.3844 -0.9169
12481TIP3    H258859   3.161   5.683  14.791  0.4420 -0.4852  0.4094
12482TIP3   OH258860   4.838   3.519   0.846 -0.0062 -0.2646  0.3756
12482TIP3    H158861   4.851   3.430   0.815 -1.5470 -1.3673  2.7072
12482TIP3    H258862   4.783   3.560   0.779  0.4852 -1.1529 -0.5783
12483TIP3   OH258863   1.066   4.983   1.317 -0.1492  0.4203  0.1357
12483TIP3    H158864   1.098   5.040   1.247  0.2704  2.3133  1.8084
12483TIP3    H258865   1.034   5.043   1.384 -3.1173 -1.3712  0.4319
12484TIP3   OH258866   4.563   3.195   2.114  0.4606 -0.4302 -0.1184
12484TIP3    H158867   4.500   3.126   2.097  2.1242 -1.9611 -0.1794
12484TIP3    H258868   4.565   3.202   2.210  0.1518 -0.3286 -0.1184
12485TIP3   OH258869   3.598   3.391   0.524 -0.2117  0.3738  0.3301
12485TIP3    H158870   3.646   3.407   0.443 -0.9348  1.3840  0.0960
12485TIP3    H258871   3.620   3.465   0.580 -3.7649  2.4301 -0.8431
12486TIP3   OH258872   0.173   3.919   1.706  0.1028 -0.3089 -0.1420
12486TIP3    H158873   0.102   3.856   1.712 -0.0829  0.0448  2.2295
12486TIP3    H258874   0.130   4.004   1.715  0.7881 -0.1005  1.4761
12487TIP3   OH258875   4.026   3.559   0.234 -0.2738  0.1036 -0.2293
12487TIP3    H158876   4.026   3.603   0.149 -0.3983 -0.6489 -0.6172
12487TIP3    H258877   4.118   3.551   0.257 -0.1010 -2.2859 -1.6379
12488TIP3   OH258878   5.058   2.072   2.094  0.2595  0.3654  0.0375
12488TIP3    H158879   4.963   2.065   2.085  0.4347  1.1349 -3.0498
12488TIP3    H258880   5.078   2.026   2.175 -2.7589  0.3214  0.8164
12489TIP3   OH258881   3.783   5.181  14.147 -0.4053  0.5004  0.2793
12489TIP3    H158882   3.843   5.118  14.106 -0.2619  1.2284 -0.6259
12489TIP3    H258883   3.840   5.234  14.203 -0.4299  0.2549  0.5409
12490TIP3   OH258884   0.588   4.226   2.393 -0.1014 -0.1898 -0.3209
12490TIP3    H158885   0.510   4.278   2.412 -0.8527 -1.4005 -0.0671
12490TIP3    H258886   0.555   4.150   2.345  0.8523 -0.9683  0.2515
12491TIP3   OH258887   6.933   1.404   1.245  0.7498  0.1892  0.3565
12491TIP3    H158888   6.987   1.397   1.324  2.2788  1.1679 -0.6022
12491TIP3    H258889   6.865   1.467   1.269 -0.9640 -2.2179  2.0900
12492TIP3   OH258890   0.142   2.501   0.570  0.5723 -0.5374  0.3456
12492TIP3    H158891   0.155   2.556   0.647 -0.6339 -0.5042  0.5314
12492TIP3    H258892   0.121   2.415   0.606  0.1573 -0.5597  0.0456
12493TIP3   OH258893   5.958   0.263   0.288  0.3729 -0.1251  0.0028
12493TIP3    H158894   5.965   0.171   0.314  2.8319 -0.1276 -0.4946
12493TIP3    H258895   6.009   0.311   0.353  0.3102  0.7290 -0.5646
12494TIP3   OH258896   3.985   5.227   3.299 -0.1151 -0.8952 -0.6456
12494TIP3    H158897   4.043   5.285   3.348 -1.7347 -0.9090  1.3141
12494TIP3    H258898   4.035   5.146   3.290 -0.2464 -1.3204  2.0687
12495TIP3   OH258899   2.495   0.041   1.231  0.0389 -0.0473  0.1201
12495TIP3    H158900   2.581   0.031   1.272 -1.0492 -1.0220  2.2662
12495TIP3    H258901   2.473  -0.048   1.201 -0.8837 -0.1139  0.9812
12496TIP3   OH258902   4.331   4.429   0.040 -0.1240  0.1923 -0.0300
12496TIP3    H158903   4.283   4.483  -0.023  0.7891  0.5185 -0.4610
12496TIP3    H258904   4.411   4.478   0.058 -0.2902  0.0069  1.2527
12497TIP3   OH258905   2.709   3.782   3.369 -0.7784 -0.6124  0.4305
12497TIP3    H158906   2.722   3.838   3.445 -0.4215 -1.0201  0.6702
12497TIP3    H258907   2.683   3.842   3.299  1.8110  0.1796  0.0960
12498TIP3   OH258908   0.386   4.856   0.951  0.4367 -0.0192  0.0650
12498TIP3    H158909   0.349   4.869   1.039  2.2426  1.4531  0.6426
12498TIP3    H258910   0.344   4.776   0.919 -1.8719  0.6143  1.3913
12499TIP3   OH258911   0.482   1.236  14.372 -0.3642  0.2996 -0.3258
12499TIP3    H158912   0.486   1.159  14.315 -0.4338  0.5015 -0.6038
12499TIP3    H258913   0.420   1.211  14.441  0.7855 -0.4704  0.4565
12500TIP3   OH258914   5.834   6.895  15.133 -0.1651  0.1758 -0.6637
12500TIP3    H158915   5.827   6.873  15.226  0.1878  0.6208 -0.5263
12500TIP3    H258916   5.770   6.839  15.090 -0.5458  0.1839 -0.1148
12501TIP3   OH258917   2.712   4.708  12.350 -0.3317 -0.7017  0.3077
12501TIP3    H158918   2.706   4.632  12.291 -1.8977 -0.2209 -0.2035
12501TIP3    H258919   2.804   4.712  12.376 -0.1078 -2.3816 -0.1854
12502TIP3   OH258920   5.355   6.035  13.682 -0.0972  0.2017 -0.1908
12502TIP3    H158921   5.321   6.041  13.771  1.9031  1.7465  0.5157
12502TIP3    H258922   5.400   6.118  13.668  0.9113 -0.6308 -2.1030
12503TIP3   OH258923   1.643   4.301   3.095  0.2947  0.3991  0.0873
12503TIP3    H158924   1.684   4.352   3.025  1.6054  1.9094  1.8989
12503TIP3    H258925   1.551   4.327   3.093 -0.5758 -2.4502 -3.5304
12504TIP3   OH258926   6.017   4.216   3.723 -0.0061 -0.3053  0.5710
12504TIP3    H158927   6.085   4.148   3.725  0.3651  0.0452  0.0397
12504TIP3    H258928   5.935   4.168   3.718  0.2727 -0.7113 -0.1943
12505TIP3   OH258929   3.495   3.867   0.771  0.6301 -0.0589 -0.1842
12505TIP3    H158930   3.577   3.879   0.722  1.0041  2.0783  0.9027
12505TIP3    H258931   3.513   3.794   0.830  1.8627  0.5780  0.2484
12506TIP3   OH258932   2.652   5.773   0.851  0.2663  0.1077 -0.2276
12506TIP3    H158933   2.573   5.746   0.898  0.8569 -1.9025 -0.3715
12506TIP3    H258934   2.657   5.715   0.776  1.4348  0.7886 -0.6953
12507TIP3   OH258935   6.588   2.466  12.129  0.1095 -0.3285  0.3483
12507TIP3    H158936   6.508   2.507  12.095  0.5868  3.3734  3.3664
12507TIP3    H258937   6.563   2.374  12.143 -1.8756 -0.5627 -3.9497
12508TIP3   OH258938   3.745   4.317  14.604 -0.3956 -0.2844 -0.1108
12508TIP3    H158939   3.655   4.346  14.588  0.1162  1.3876 -0.1232
12508TIP3    H258940   3.741   4.276  14.691 -1.0820  0.2551  0.1249
12509TIP3   OH258941   2.823   4.672   0.916  0.0423  0.8043 -0.4186
12509TIP3    H158942   2.833   4.765   0.937  0.7258  0.3285  1.5540
12509TIP3    H258943   2.904   4.649   0.871 -0.4165  1.3035 -1.5202
12510TIP3   OH258944   2.220   3.620   2.733  0.4320  0.1987 -0.2102
12510TIP3    H158945   2.125   3.627   2.748  0.0643 -1.7876 -1.4572
12510TIP3    H258946   2.247   3.709   2.710 -1.0787  0.8441  0.4439
12511TIP3   OH258947   0.400   6.350   0.458  0.1298 -0.3623  0.2442
12511TIP3    H158948   0.318   6.351   0.508 -0.5923  0.4729 -0.9514
12511TIP3    H258949   0.378   6.389   0.374  1.9308  0.5968  0.1851
12512TIP3   OH258950   2.782   2.640  13.686 -0.6973 -0.4664 -0.2723
12512TIP3    H158951   2.710   2.703  13.679  0.9358  1.2135 -2.6127
12512TIP3    H258952   2.776   2.588  13.607  0.8084 -0.1422 -0.6136
12513TIP3   OH258953   3.531   2.253   2.624  0.0641  0.1122  0.1464
12513TIP3    H158954   3.603   2.310   2.650  0.1900  0.6961 -1.4043
12513TIP3    H258955   3.477   2.244   2.702  1.2937  0.4722  1.0404
12514TIP3   OH258956   2.187   1.857   0.751  0.1631 -0.2047  0.4151
12514TIP3    H158957   2.260   1.914   0.774  0.7524 -0.5120 -0.6912
12514TIP3    H258958   2.149   1.896   0.673  0.2999 -1.0669 -0.0907
12515TIP3   OH258959   0.051   1.646   1.284 -0.3207  0.1403  0.4281
12515TIP3    H158960   0.056   1.673   1.192 -1.1094  1.7049  0.8135
12515TIP3    H258961  -0.032   1.683   1.315 -0.6920 -1.4902  1.4242
12516TIP3   OH258962   5.589   4.641   3.549 -0.5443  0.3858 -0.3184
12516TIP3    H158963   5.605   4.721   3.498 -0.1068  0.8021  0.4560
12516TIP3    H258964   5.513   4.601   3.508 -0.0735  0.6159 -1.4182
12517TIP3   OH258965   1.984   2.974  14.731  0.2464 -0.4673 -0.4942
12517TIP3    H158966   1.970   2.922  14.810  0.0868  0.9220  0.4309
12517TIP3    H258967   1.907   2.957  14.677 -0.7985  0.3503  0.6913
12518TIP3   OH258968   6.418   5.828  14.474  0.3758  0.7271  0.2983
12518TIP3    H158969   6.470   5.881  14.413  0.4745  1.3552  0.9177
12518TIP3    H258970   6.354   5.890  14.509 -0.0431  0.2294  0.4055
12519TIP3   OH258971   5.765   6.888  14.198  0.4537  0.3151 -0.1357
12519TIP3    H158972   5.695   6.900  14.134  1.0172  0.7479 -0.6874
12519TIP3    H258973   5.845   6.898  14.147  0.9225 -1.2369  0.2925
12520TIP3   OH258974   3.944   1.292   1.688  0.5620 -0.3675  0.6626
12520TIP3    H158975   3.908   1.263   1.604  1.5709 -2.8623  1.0421
12520TIP3    H258976   3.868   1.310   1.742 -0.1106  1.8871 -0.9615
12521TIP3   OH258977   4.660   2.660  12.336  0.7205 -0.5370 -0.2475
12521TIP3    H158978   4.580   2.653  12.283  1.2795 -0.7326 -1.0727
12521TIP3    H258979   4.644   2.603  12.411 -0.8222  1.1613  0.7575
12522TIP3   OH258980   6.130   4.510   0.033 -0.2724  0.0610 -0.2587
12522TIP3    H158981   6.113   4.582   0.094  0.9880  1.0734 -1.0831
12522TIP3    H258982   6.225   4.510   0.022 -0.3888 -0.8885 -1.2851
12523TIP3   OH258983   1.819   4.114   0.648  0.3283  0.5486 -0.3724
12523TIP3    H158984   1.913   4.113   0.669 -0.4741  2.0748  3.6393
12523TIP3    H258985   1.781   4.174   0.711 -4.1017 -3.7141  1.3143
12524TIP3   OH258986   6.075   3.268   1.870 -0.7086 -0.4965 -0.0952
12524TIP3    H158987   6.119   3.344   1.831 -0.6706 -0.2979  0.3259
12524TIP3    H258988   6.136   3.238   1.938 -1.2819 -0.1290  0.5880
12525TIP3   OH258989   2.319   3.722  12.883 -0.1008  0.0492  0.3651
12525TIP3    H158990   2.301   3.654  12.947 -1.4120 -0.4287 -0.4997
12525TIP3    H258991   2.404   3.697  12.846  0.3400 -0.0415  1.4104
12526TIP3   OH258992   1.613   5.028   0.820 -0.1983 -0.1110  0.5052
12526TIP3    H158993   1.669   4.951   0.812 -0.0860 -0.1021  1.1878
12526TIP3    H258994   1.524   4.994   0.817 -0.1637 -0.1286 -0.5436
12527TIP3   OH258995   4.802   1.967   2.196 -0.1864 -0.3380 -0.1031
12527TIP3    H158996   4.853   1.984   2.275 -2.7358 -2.0421  1.9904
12527TIP3    H258997   4.723   2.020   2.206  0.0927  0.5219 -2.2201
12528TIP3   OH258998   4.482   5.285  11.743  0.1655  0.1312  0.2081
12528TIP3    H158999   4.460   5.376  11.723  0.6553  0.4377  1.0460
12528TIP3    H259000   4.554   5.291  11.805 -1.4333 -0.7991  2.2045
12529TIP3   OH259001   4.079   0.979  13.658 -0.4163 -0.7141  0.0251
12529TIP3    H159002   4.126   1.045  13.607 -0.8587 -1.0809 -0.8700
12529TIP3    H259003   3.998   1.023  13.685  0.2137 -0.2320  1.1771
12530TIP3   OH259004   3.024   3.352   1.904  0.2812  0.2023 -0.5844
12530TIP3    H159005   3.036   3.276   1.962  0.8307 -0.6844 -1.8411
12530TIP3    H259006   2.967   3.411   1.953  0.1904 -0.8384  0.5808
12531TIP3   OH259007   4.248   6.314  14.225 -0.5530 -0.0243 -0.1257
12531TIP3    H159008   4.268   6.408  14.222 -0.5790 -0.0416 -0.8060
12531TIP3    H259009   4.176   6.302  14.162  1.3822 -0.9797 -2.2020
12532TIP3   OH259010   2.135   5.802   2.844 -0.4718 -0.3269  0.4084
12532TIP3    H159011   2.149   5.714   2.877 -1.5909 -0.9806 -0.8247
12532TIP3    H259012   2.213   5.851   2.872  0.0239 -1.6202  1.3330
12533TIP3   OH259013   0.316   2.840  14.677 -0.1230  0.7418 -0.3919
12533TIP3    H159014   0.315   2.747  14.699  0.4184  0.6307 -0.8195
12533TIP3    H259015   0.234   2.874  14.711 -0.5088  0.0160 -0.5889
12534TIP3   OH259016   0.520   4.329   2.857  0.1944 -0.0125  0.4247
12534TIP3    H159017   0.568   4.325   2.774  0.7312  1.1791  0.6614
12534TIP3    H259018   0.548   4.251   2.905  0.4433 -0.3206 -0.2116
12535TIP3   OH259019   5.314   3.301   5.354  0.6031 -0.4133  0.9334
12535TIP3    H159020   5.339   3.268   5.268 -0.3476  1.4659 -0.1087
12535TIP3    H259021   5.259   3.232   5.391 -0.1102 -0.6662 -0.5576
12536TIP3   OH259022   5.304   6.698   1.807 -0.6967 -0.1790  1.3633
12536TIP3    H159023   5.322   6.676   1.716  0.2638  0.2681  1.4333
12536TIP3    H259024   5.366   6.768   1.827  0.1726 -1.3368  2.8176
12537TIP3   OH259025   3.294   5.703   1.376 -0.0096 -0.1293 -0.5983
12537TIP3    H159026   3.322   5.625   1.424 -0.2222  0.1262 -0.0616
12537TIP3    H259027   3.322   5.686   1.286  2.3139  0.3371  0.0068
12538TIP3   OH259028   0.083   1.833  11.477 -0.1514  0.4482 -0.2294
12538TIP3    H159029   0.157   1.814  11.419 -0.3476 -0.0136 -0.3342
12538TIP3    H259030   0.122   1.881  11.550  0.3075 -0.0933 -0.1127
12539TIP3   OH259031   4.957   2.357  15.299  0.2145 -0.0497  0.0076
12539TIP3    H159032   5.028   2.395  15.351  1.0105 -1.6576  0.1126
12539TIP3    H259033   4.906   2.307  15.361  1.4821 -2.4262 -0.8102
12540TIP3   OH259034   2.917   4.711  12.546 -0.2855 -0.6006  0.2515
12540TIP3    H159035   2.937   4.794  12.588 -0.2900 -0.5327  0.1205
12540TIP3    H259036   2.836   4.682  12.588  0.8525 -1.6079  1.8470
12541TIP3   OH259037   0.740   6.144   4.153 -0.4595  0.0757  0.6238
12541TIP3    H159038   0.782   6.107   4.231  1.0809  0.1774 -0.1297
12541TIP3    H259039   0.655   6.100   4.148  0.7853 -2.4097  0.5212
12542TIP3   OH259040   3.959   5.028   1.434 -0.1430  0.1661  0.1582
12542TIP3    H159041   3.920   5.006   1.519 -2.4212 -0.1969 -0.9459
12542TIP3    H259042   3.986   5.120   1.444 -0.5330  0.1771  1.2232
12543TIP3   OH259043   5.115   2.926  11.589 -0.1649  0.6420  0.6527
12543TIP3    H159044   5.156   2.880  11.662  0.8090  0.5610  0.0664
12543TIP3    H259045   5.170   2.903  11.513 -0.5176  1.6087  0.1056
12544TIP3   OH259046   2.879   0.773   2.659  0.0633  0.2488 -0.1419
12544TIP3    H159047   2.843   0.847   2.611 -1.2139 -0.9120 -1.0070
12544TIP3    H259048   2.969   0.764   2.628  0.4163  1.7769  0.3928
12545TIP3   OH259049   0.401   0.808   5.365  0.1769  0.5649 -0.3397
12545TIP3    H159050   0.405   0.853   5.449 -0.3473  2.4813 -1.3148
12545TIP3    H259051   0.308   0.807   5.342  0.3095  0.0261 -0.8730
12546TIP3   OH259052   2.246   7.131   1.050 -0.2660  0.4634 -0.2637
12546TIP3    H159053   2.170   7.085   1.014 -0.7161 -1.0076  2.4295
12546TIP3    H259054   2.313   7.063   1.058  0.1398  0.9741  0.7044
12547TIP3   OH259055   6.288   3.303   1.389 -1.1003  0.8349 -0.2623
12547TIP3    H159056   6.293   3.285   1.295 -1.4827  2.1236 -0.5512
12547TIP3    H259057   6.379   3.308   1.418 -0.9871 -0.5359 -0.3580
12548TIP3   OH259058   4.422   4.954   4.407  0.0653  0.0301  0.0386
12548TIP3    H159059   4.468   4.870   4.410  0.5562  0.3369  2.9806
12548TIP3    H259060   4.352   4.946   4.472  0.4674  2.0632  0.7654
12549TIP3   OH259061   3.865   4.421   0.300  0.0364 -0.5484  0.3489
12549TIP3    H159062   3.944   4.384   0.340 -0.3942 -0.8681  0.9072
12549TIP3    H259063   3.898   4.488   0.240  0.8045 -1.4086 -0.2212
12550TIP3   OH259064   0.273   6.843  15.442 -0.2553 -0.2394  0.4737
12550TIP3    H159065   0.223   6.846  15.361  1.0712 -2.8665 -0.5001
12550TIP3    H259066   0.209   6.818  15.509 -1.1766  1.1055  0.1100
12551TIP3   OH259067   5.261   4.044  11.426  0.0339 -0.0739 -0.3415
12551TIP3    H159068   5.244   3.985  11.353  0.5632 -0.2784 -0.3003
12551TIP3    H259069   5.249   4.132  11.390  0.5270 -0.1660 -0.7396
12552TIP3   OH259070   2.083   1.636   5.182  0.2721 -0.4858  0.4581
12552TIP3    H159071   2.025   1.648   5.107 -0.0494  0.2220  0.8184
12552TIP3    H259072   2.025   1.628   5.257  0.6182 -0.4490  0.7322
12553TIP3   OH259073   6.815   6.298   3.660 -0.1191  0.5428  0.0445
12553TIP3    H159074   6.869   6.233   3.706 -0.4459  0.7130  0.6694
12553TIP3    H259075   6.868   6.378   3.662 -0.1021  0.5313  0.0619
12554TIP3   OH259076   0.356   4.588  15.240  0.8708  0.3370 -0.2781
12554TIP3    H159077   0.366   4.668  15.291  1.4054  0.5601 -0.7369
12554TIP3    H259078   0.418   4.597  15.168 -0.7768  0.5989 -1.6902
12555TIP3   OH259079   0.967   3.639  13.918 -0.2374  0.5244 -0.7187
12555TIP3    H159080   1.062   3.636  13.913 -0.0994  0.1663  1.7409
12555TIP3    H259081   0.939   3.658  13.828  2.0317 -1.4571 -1.9058
12556TIP3   OH259082   1.261   2.395   0.081 -0.6349  0.5381  0.6842
12556TIP3    H159083   1.303   2.391   0.167  0.8027 -2.6619 -0.0637
12556TIP3    H259084   1.230   2.305   0.066 -0.4078  0.9116 -2.3331
12557TIP3   OH259085   2.731   3.179  15.159  0.2015  0.1461 -0.6572
12557TIP3    H159086   2.714   3.212  15.247 -1.7282  0.4387 -1.1295
12557TIP3    H259087   2.714   3.253  15.101 -1.7543 -0.9561 -1.5272
12558TIP3   OH259088   6.617   5.829  14.250  0.2528 -0.4920  0.3549
12558TIP3    H159089   6.704   5.789  14.239  1.5575  2.2321  0.3785
12558TIP3    H259090   6.611   5.893  14.179 -2.2763 -1.5271 -0.3918
12559TIP3   OH259091   4.898   6.365  14.560 -0.3811  0.8108  0.3998
12559TIP3    H159092   4.818   6.311  14.564 -0.3448  0.6448 -0.7403
12559TIP3    H259093   4.956   6.326  14.624 -1.3231  1.1022  1.4397
12560TIP3   OH259094   3.112   1.454  14.712  0.1232  0.8229  0.1467
12560TIP3    H159095   3.131   1.527  14.651 -0.9208  1.5431  0.6785
12560TIP3    H259096   3.067   1.389  14.658  1.0911  0.5364 -0.3408
12561TIP3   OH259097   7.130   4.634  11.343 -0.2204  0.0126 -0.0822
12561TIP3    H159098   7.211   4.630  11.393 -1.0797 -0.3419  1.2998
12561TIP3    H259099   7.112   4.543  11.318  0.7437  0.3050 -1.9421
12562TIP3   OH259100   3.462   2.573   1.412  0.2332 -0.3212  0.2920
12562TIP3    H159101   3.547   2.566   1.368  0.1017 -3.6935  0.4722
12562TIP3    H259102   3.398   2.553   1.343 -0.4102  1.1794  0.4175
12563TIP3   OH259103   1.754   5.723  15.274 -0.2400  0.8262  0.0615
12563TIP3    H159104   1.773   5.773  15.195  1.8546  0.5573  0.3837
12563TIP3    H259105   1.832   5.671  15.290 -1.8702 -1.5666  0.5176
12564TIP3   OH259106   5.758   0.574  11.989  0.0808 -0.4554 -0.5794
12564TIP3    H159107   5.741   0.635  11.918  1.2810  0.1812 -0.3260
12564TIP3    H259108   5.681   0.580  12.045 -0.0487  0.4154 -0.8430
12565TIP3   OH259109   1.383   0.363   0.927 -0.3955 -0.2044 -0.4214
12565TIP3    H159110   1.296   0.333   0.952 -0.2590 -1.0775 -0.9746
12565TIP3    H259111   1.430   0.283   0.904  0.9002  0.1498  0.9344
12566TIP3   OH259112   6.998   1.473  14.296 -0.0443  0.7856 -0.3391
12566TIP3    H159113   7.093   1.475  14.297 -0.0835  3.5685  1.3144
12566TIP3    H259114   6.973   1.515  14.214  0.1181  0.6921 -0.4369
12567TIP3   OH259115   6.745   1.643   1.259 -0.2886 -0.6874  0.4447
12567TIP3    H159116   6.773   1.698   1.185 -0.2579 -0.0438  0.9333
12567TIP3    H259117   6.709   1.705   1.322  3.1421 -0.7833  2.6195
12568TIP3   OH259118   3.040   5.714   1.201  0.0446  0.4145 -0.3688
12568TIP3    H159119   3.104   5.785   1.193 -0.8748  1.2932  0.1251
12568TIP3    H259120   3.083   5.640   1.157  0.4441  1.6321 -2.1068
12569TIP3   OH259121   3.620   4.426   2.174 -0.1021  0.6294 -1.1048
12569TIP3    H159122   3.714   4.443   2.177 -0.2303  1.1964 -0.2967
12569TIP3    H259123   3.588   4.484   2.105  0.1284  0.4835 -1.3370
12570TIP3   OH259124   5.705   5.233   0.539  0.2516  0.2404 -0.2817
12570TIP3    H159125   5.742   5.250   0.626 -0.2227 -0.0997 -0.0121
12570TIP3    H259126   5.690   5.320   0.502  1.5990  0.3910 -0.5209
12571TIP3   OH259127   5.260   4.946   0.669  0.1438  0.1995  0.1998
12571TIP3    H159128   5.325   4.984   0.610  2.2158 -1.9233  1.0070
12571TIP3    H259129   5.296   4.960   0.757 -2.6374  2.8588  0.9901
12572TIP3   OH259130   7.071   2.530   0.893 -0.0611 -0.5844  0.7626
12572TIP3    H159131   7.164   2.537   0.875 -0.3042 -2.2688 -1.2622
12572TIP3    H259132   7.060   2.442   0.929 -1.1119 -1.0248 -0.6114
12573TIP3   OH259133   2.911   7.014  14.467  0.2847  0.3279 -0.3720
12573TIP3    H159134   2.829   7.010  14.516  0.7734 -0.7311  0.3581
12573TIP3    H259135   2.884   7.040  14.379 -0.8049  0.2824 -0.0652
12574TIP3   OH259136   4.166   5.844  13.116  0.3123 -0.0691 -1.2439
12574TIP3    H159137   4.193   5.929  13.080 -0.1406  0.8811  0.5750
12574TIP3    H259138   4.201   5.844  13.205 -2.8757 -0.1705  0.0907
12575TIP3   OH259139   1.406   5.152   3.195  0.1458  0.3239 -0.3692
12575TIP3    H159140   1.347   5.077   3.187 -1.5344  1.5204  0.4709
12575TIP3    H259141   1.382   5.209   3.121  0.1745  0.8522  0.0239
12576TIP3   OH259142   2.364   3.003  14.945 -0.4904  0.5673 -0.0407
12576TIP3    H159143   2.444   2.955  14.965 -0.2068  0.7008 -0.8213
12576TIP3    H259144   2.381   3.043  14.860 -0.8547  1.7543  0.4235
12577TIP3   OH259145   4.810   7.044   0.618  0.5871  0.0306  0.0549
12577TIP3    H159146   4.897   7.077   0.596  1.3775 -0.3199  2.5098
12577TIP3    H259147   4.816   6.949   0.607  0.0758  0.1334 -1.1795
12578TIP3   OH259148   2.635   6.323   1.191 -0.3603 -0.4203 -0.2010
12578TIP3    H159149   2.718   6.274   1.188 -0.5070 -0.9510  2.5514
12578TIP3    H259150   2.659   6.407   1.230 -0.8549 -0.0088 -0.7957
12579TIP3   OH259151   3.036   0.565   0.245 -0.2802  0.3914 -0.4232
12579TIP3    H159152   3.094   0.579   0.320 -0.5483 -0.5005 -0.0413
12579TIP3    H259153   2.956   0.612   0.269 -0.8535 -0.9721  0.4657
12580TIP3   OH259154   5.301   6.621  13.394 -0.5848 -0.1196  0.0678
12580TIP3    H159155   5.313   6.571  13.475  1.9438  0.2307 -0.0477
12580TIP3    H259156   5.281   6.710  13.424  0.4799  0.0390  0.3166
12581TIP3   OH259157   4.128   3.812  12.978  0.0477  0.7686 -0.0524
12581TIP3    H159158   4.189   3.884  12.997  2.3552 -1.1524  0.1299
12581TIP3    H259159   4.172   3.734  13.011 -2.9307 -0.6120  0.7985
12582TIP3   OH259160   5.765   1.499   2.768  0.3120  0.2151  0.2800
12582TIP3    H159161   5.714   1.543   2.836 -0.9182 -0.2897 -0.3158
12582TIP3    H259162   5.708   1.429   2.736  1.7132 -0.9356  0.2356
12583TIP3   OH259163   2.018   1.739   1.954 -0.4359 -0.0849 -0.1133
12583TIP3    H159164   2.082   1.681   1.913 -0.7614 -0.9420  0.5800
12583TIP3    H259165   2.051   1.753   2.043  0.3110  1.8379 -0.6686
12584TIP3   OH259166   1.112   4.152  13.074  0.6378  0.3072 -0.4726
12584TIP3    H159167   1.091   4.207  12.999  0.1850  0.4018 -0.2805
12584TIP3    H259168   1.208   4.152  13.078  0.6366  1.3433 -0.2770
12585TIP3   OH259169   3.669   5.045   0.513  0.4126  0.5476 -0.7517
12585TIP3    H159170   3.705   5.007   0.433 -1.7947  2.5822 -2.7837
12585TIP3    H259171   3.737   5.029   0.579  3.0821  0.3929 -3.4016
12586TIP3   OH259172   3.637   1.471  13.849 -0.0668  0.1983  0.0315
12586TIP3    H159173   3.632   1.381  13.883  0.5986 -0.5740 -1.8331
12586TIP3    H259174   3.724   1.501  13.875  0.9292 -0.8406 -2.0025
12587TIP3   OH259175   0.800   3.820   0.402  0.3159  0.7339  0.3435
12587TIP3    H159176   0.858   3.757   0.442 -1.3605 -0.8679  0.3160
12587TIP3    H259177   0.780   3.883   0.471 -1.0193 -0.9214  1.4981
12588TIP3   OH259178   6.551   0.803   1.912 -0.1041  0.4951  0.0631
12588TIP3    H159179   6.463   0.832   1.934  0.6289 -0.0846  4.0704
12588TIP3    H259180   6.609   0.867   1.952  1.3303 -1.0617  0.5497
12589TIP3   OH259181   2.958   4.970   0.210  0.1815  0.0805 -0.4065
12589TIP3    H159182   2.919   4.902   0.265  1.2109  0.2245  0.5208
12589TIP3    H259183   3.052   4.955   0.217  0.4721  2.1926  0.6036
12590TIP3   OH259184   4.025   5.723  15.259 -0.2924  0.4981  0.3048
12590TIP3    H159185   3.974   5.766  15.190 -1.0663 -0.5996  0.1725
12590TIP3    H259186   4.116   5.728  15.227 -0.6376  0.0227 -0.7953
12591TIP3   OH259187   6.546   5.747  14.708  0.4260  0.2097  0.2170
12591TIP3    H159188   6.475   5.727  14.646  0.1937 -1.0380  0.8788
12591TIP3    H259189   6.623   5.758  14.653  0.2696 -1.1172 -0.2733
12592TIP3   OH259190   6.401   4.752   0.949 -0.7245  0.0927  0.6585
12592TIP3    H159191   6.472   4.815   0.939 -0.2064 -0.4347  1.0244
12592TIP3    H259192   6.363   4.744   0.862 -1.1051  1.2770  0.7008
12593TIP3   OH259193   1.568   5.232   2.479 -0.1339  0.0106 -0.1955
12593TIP3    H159194   1.588   5.260   2.389  0.8300 -3.6330 -1.1958
12593TIP3    H259195   1.472   5.227   2.482 -0.1857  0.4539 -0.9113
12594TIP3   OH259196   6.400   3.371  14.472 -0.3731  0.3775 -0.2891
12594TIP3    H159197   6.323   3.326  14.508 -0.9963 -0.5721 -2.7121
12594TIP3    H259198   6.381   3.464  14.484 -0.1653  0.1177  2.5445
12595TIP3   OH259199   3.032   5.358   0.527 -0.2183  0.4259  0.0677
12595TIP3    H159200   3.025   5.434   0.469 -0.7542  0.1037 -0.2918
12595TIP3    H259201   3.120   5.364   0.564  0.0349  0.7689 -0.5953
12596TIP3   OH259202   5.390   3.537   2.433 -0.0809  0.3622  0.3241
12596TIP3    H159203   5.309   3.588   2.430 -0.2499  0.1126  0.6447
12596TIP3    H259204   5.415   3.537   2.525 -1.4236 -2.2497  0.7324
12597TIP3   OH259205   6.512   4.664   0.454 -0.0179 -0.2882  0.2448
12597TIP3    H159206   6.494   4.758   0.442  0.0960 -0.3770 -0.6001
12597TIP3    H259207   6.606   4.656   0.437 -0.0604 -0.5868  0.1560
12598TIP3   OH259208   1.058   5.755   0.903  0.2615  0.2822  0.3556
12598TIP3    H159209   1.119   5.774   0.975  0.7837 -0.0284 -0.0021
12598TIP3    H259210   0.990   5.701   0.944 -0.4964  1.7394  1.0567
12599TIP3   OH259211   0.887   6.903  13.630 -0.0013 -0.1277 -1.0070
12599TIP3    H159212   0.810   6.930  13.581 -0.0394 -0.7554 -1.2971
12599TIP3    H259213   0.912   6.819  13.592  1.6111  0.6866 -1.7898
12600TIP3   OH259214   5.693   5.087   2.536 -0.4109  0.6030 -1.2069
12600TIP3    H159215   5.773   5.066   2.584 -1.9918  1.3500  1.9730
12600TIP3    H259216   5.716   5.078   2.444  2.1792 -3.2281 -0.2960
12601TIP3   OH259217   1.172   2.975   0.185 -0.3632 -0.4625  0.0156
12601TIP3    H159218   1.099   2.969   0.246 -0.0010  1.2714  0.6395
12601TIP3    H259219   1.241   2.924   0.225 -0.7364 -0.8682  0.1497
12602TIP3   OH259220   4.273   6.287  13.570  0.2767 -0.4698  0.0372
12602TIP3    H159221   4.187   6.315  13.538  0.5557 -0.9519 -1.1630
12602TIP3    H259222   4.332   6.301  13.496  1.0659 -1.0044  0.5533
12603TIP3   OH259223   3.710   6.436  12.242  0.1122  0.0771 -0.1165
12603TIP3    H159224   3.798   6.456  12.275 -0.1078  1.5415 -0.3968
12603TIP3    H259225   3.713   6.462  12.150 -0.2117 -1.1130 -0.4642
12604TIP3   OH259226   1.068   3.992   1.910 -0.1575 -0.5704 -0.1584
12604TIP3    H159227   0.982   4.016   1.944  0.6844  2.9756 -0.3587
12604TIP3    H259228   1.120   3.973   1.987 -0.1392  0.7114  0.1375
12605TIP3   OH259229   6.792   0.433   2.263 -0.3539  0.0886 -0.0804
12605TIP3    H159230   6.750   0.513   2.234 -1.6309  0.0001  1.4420
12605TIP3    H259231   6.770   0.368   2.196  0.6845  0.9893 -1.3090
12606TIP3   OH259232   6.472   6.196   2.590  0.1243 -0.2989 -0.8647
12606TIP3    H159233   6.514   6.133   2.531  0.4413  0.8228 -1.8512
12606TIP3    H259234   6.431   6.142   2.657  0.1489 -1.5818 -1.8606
12607TIP3   OH259235   2.881   3.618   4.230  0.2261  0.1127  0.4665
12607TIP3    H159236   2.916   3.530   4.245  3.0956  1.2060  0.5685
12607TIP3    H259237   2.845   3.645   4.314  1.7287  0.0480  1.1361
12608TIP3   OH259238   1.819   1.488  15.232  0.0163 -0.5217 -0.3969
12608TIP3    H159239   1.846   1.399  15.257  1.0451 -0.1990 -0.3192
12608TIP3    H259240   1.853   1.543  15.303  1.2499  0.1812 -1.5253
12609TIP3   OH259241   4.629   4.491   1.964  0.8804 -0.5267  0.6936
12609TIP3    H159242   4.693   4.557   1.989  1.2498 -0.7648  0.3733
12609TIP3    H259243   4.671   4.408   1.983  0.6786 -0.6849  0.4538
12610TIP3   OH259244   5.307   3.912  12.817  1.0236  0.3851 -0.6183
12610TIP3    H159245   5.242   3.868  12.762  1.1284  1.2666 -1.4564
12610TIP3    H259246   5.380   3.850  12.823 -0.4604 -1.2602  1.5626
12611TIP3   OH259247   0.078   5.847   1.290  0.3999  0.7048 -0.4547
12611TIP3    H159248  -0.003   5.873   1.335  0.7621  1.8234 -0.4489
12611TIP3    H259249   0.048   5.785   1.224 -0.4053  0.7206 -0.1238
12612TIP3   OH259250   6.794   5.889   0.963  0.6234  0.1933 -0.0154
12612TIP3    H159251   6.871   5.885   0.907  0.9880  0.7759  0.4353
12612TIP3    H259252   6.821   5.945   1.037  0.0876 -0.3822  0.6239
12613TIP3   OH259253   5.630   4.678  14.567  0.2729  0.0834  0.0915
12613TIP3    H159254   5.564   4.614  14.541 -0.7211  1.2009 -0.1377
12613TIP3    H259255   5.613   4.755  14.512  0.1961  1.2834  1.7754
12614TIP3   OH259256   6.931   5.046   1.808 -0.0913  0.4213 -0.1801
12614TIP3    H159257   6.884   5.122   1.841 -0.8522 -0.1835  0.1650
12614TIP3    H259258   7.016   5.050   1.850 -1.0450 -0.3397  1.9036
12615TIP3   OH259259   2.463   6.934   0.988  0.5872 -0.3139  0.1343
12615TIP3    H159260   2.513   6.912   1.066  0.8369 -0.0318  0.0553
12615TIP3    H259261   2.529   6.964   0.925  0.3750 -0.4208 -0.1422
12616TIP3   OH259262   4.803   6.143   1.490  0.4236  0.3004 -0.6178
12616TIP3    H159263   4.893   6.176   1.484  0.2718  0.8423  0.0700
12616TIP3    H259264   4.803   6.088   1.568 -0.3685  1.9865  0.5855
12617TIP3   OH259265   2.436   5.412   0.122  0.1614  0.1800  0.2809
12617TIP3    H159266   2.527   5.438   0.108  0.0217  0.2633 -0.4481
12617TIP3    H259267   2.384   5.473   0.070 -0.1955 -1.1929 -1.0196
12618TIP3   OH259268   1.895   1.641   0.991 -0.2886 -0.3569  0.3530
12618TIP3    H159269   1.990   1.652   0.998 -0.2710 -0.1391 -0.2102
12618TIP3    H259270   1.861   1.729   0.979 -0.6690 -0.3101  1.6413
12619TIP3   OH259271   3.042   3.614   4.531 -0.3772 -0.1499 -0.6124
12619TIP3    H159272   2.949   3.627   4.515 -0.3628  0.0690 -0.5209
12619TIP3    H259273   3.086   3.651   4.454 -0.4258 -1.6343 -1.3803
12620TIP3   OH259274   1.488   0.531   0.698  0.0525  0.4021 -0.1296
12620TIP3    H159275   1.440   0.488   0.769 -0.7709 -0.2297 -1.0564
12620TIP3    H259276   1.574   0.489   0.700 -0.2046 -0.1305  0.0291
12621TIP3   OH259277   7.003   5.109  14.059  0.3393  0.0899  0.5194
12621TIP3    H159278   7.065   5.163  14.010 -3.5350  1.9256 -2.6742
12621TIP3    H259279   6.951   5.066  13.991  1.3456 -5.5112  3.0125
12622TIP3   OH259280   1.522   4.222   3.842  0.4393  0.3774  0.0900
12622TIP3    H159281   1.472   4.294   3.881  0.1028 -0.3271  0.9720
12622TIP3    H259282   1.516   4.151   3.906  0.7921 -0.4310 -0.7629
12623TIP3   OH259283   0.437   3.369   5.685 -0.4896 -0.4979 -0.9507
12623TIP3    H159284   0.406   3.381   5.775  0.0305 -1.5718 -0.6037
12623TIP3    H259285   0.532   3.381   5.691 -0.7063  1.8445 -1.8229
12624TIP3   OH259286   5.594   5.481  14.459 -0.0036 -0.2331  0.2646
12624TIP3    H159287   5.555   5.507  14.543  0.9192  1.0356  0.3218
12624TIP3    H259288   5.676   5.439  14.482 -0.0798 -0.5226  0.0178
12625TIP3   OH259289   1.673   3.633   4.834  0.2340 -0.1189 -0.0349
12625TIP3    H159290   1.704   3.693   4.767  1.0715  1.7680  1.9746
12625TIP3    H259291   1.638   3.558   4.786  0.3586  1.4076 -2.5515
12626TIP3   OH259292   6.281   4.187  14.155 -0.4390  0.1941 -0.4142
12626TIP3    H159293   6.260   4.279  14.139 -0.8358  0.0732 -0.6207
12626TIP3    H259294   6.272   4.176  14.250  2.0928  0.9591 -0.0498
12627TIP3   OH259295   5.777   4.776   2.180  0.8086 -0.9234  0.3723
12627TIP3    H159296   5.699   4.804   2.130  1.8127 -0.2076 -0.8221
12627TIP3    H259297   5.777   4.832   2.257  1.3587  0.6005 -0.7217
12628TIP3   OH259298   5.891   2.494   2.039  0.2799  0.1430 -0.1620
12628TIP3    H159299   5.902   2.579   2.080  1.6140 -0.1415  0.1072
12628TIP3    H259300   5.843   2.441   2.103  0.1861  0.4402  0.0103
12629TIP3   OH259301   5.413   4.038   2.092  0.2310  0.5400 -0.2590
12629TIP3    H159302   5.378   3.965   2.142  0.4513  0.0618 -0.8005
12629TIP3    H259303   5.460   4.091   2.157  0.5458 -0.0934  0.0391
12630TIP3   OH259304   3.851   6.211   3.021  0.2006 -0.0883 -0.0847
12630TIP3    H159305   3.778   6.189   3.079  0.9979 -1.0121  0.5855
12630TIP3    H259306   3.925   6.226   3.079  0.5316  0.9767 -0.7542
12631TIP3   OH259307   3.007   4.777   3.857  0.1519  0.3269  0.0899
12631TIP3    H159308   3.050   4.862   3.864 -0.0630  0.3736  0.8968
12631TIP3    H259309   2.913   4.797   3.867  0.1423 -0.0626  0.8429
12632TIP3   OH259310   6.348   6.835   2.967 -0.3324 -0.3659 -0.5012
12632TIP3    H159311   6.273   6.871   2.919 -0.5194  0.9358  0.7369
12632TIP3    H259312   6.312   6.808   3.051  0.3944 -0.7668 -0.3166
12633TIP3   OH259313   7.006   6.620   0.688 -0.2284  0.2102 -0.2100
12633TIP3    H159314   7.044   6.572   0.762 -0.1028  2.1109  0.9844
12633TIP3    H259315   7.079   6.635   0.628 -0.3946 -1.6243 -0.9080
12634TIP3   OH259316   1.403   4.403   1.188 -0.4860 -0.1993 -1.0101
12634TIP3    H159317   1.406   4.491   1.151  0.9105  0.3881  0.4935
12634TIP3    H259318   1.354   4.412   1.270  0.4770 -0.6453 -0.3791
12635TIP3   OH259319   6.757   0.701   0.574 -0.2147  0.1670  0.1007
12635TIP3    H159320   6.690   0.674   0.511  0.5769  0.0232 -0.6999
12635TIP3    H259321   6.733   0.791   0.598 -1.4263 -0.3403  0.8295
12636TIP3   OH259322   0.034   5.551  15.493 -0.6413  0.4089 -0.1435
12636TIP3    H159323  -0.015   5.634  15.489  0.7201  1.1769 -1.7438
12636TIP3    H259324  -0.027   5.486  15.457 -0.1901  1.5268 -3.0737
12637TIP3   OH259325   3.476   3.048   1.892  0.3978 -0.2077 -0.2202
12637TIP3    H159326   3.385   3.069   1.870  0.4987  0.5601  0.0982
12637TIP3    H259327   3.473   2.956   1.918 -0.9032  0.6764  3.0027
12638TIP3   OH259328   4.855   4.880  12.405 -0.1754 -0.0263 -0.8270
12638TIP3    H159329   4.875   4.809  12.466 -0.2909  0.1399 -0.5917
12638TIP3    H259330   4.768   4.910  12.431 -0.1553  0.1572 -0.9665
12639TIP3   OH259331   2.094   3.267  13.412 -0.3363  0.0736  0.0458
12639TIP3    H159332   2.171   3.310  13.449 -2.3294  3.5173  0.4681
12639TIP3    H259333   2.076   3.316  13.331 -1.4353 -1.3897 -0.6072
12640TIP3   OH259334   1.797   1.478  13.414 -0.2369 -0.0633 -0.2184
12640TIP3    H159335   1.815   1.572  13.420 -1.4174  0.1303  0.5579
12640TIP3    H259336   1.819   1.444  13.501 -1.9539 -0.1033  0.2157
12641TIP3   OH259337   3.288   3.660   1.192  0.0645 -0.5872 -0.5580
12641TIP3    H159338   3.214   3.716   1.167 -0.1013  0.5902  2.4020
12641TIP3    H259339   3.254   3.606   1.263  1.9622 -0.2459  0.6303
12642TIP3   OH259340   2.520   6.261   5.017  0.1331  0.3987  0.4558
12642TIP3    H159341   2.598   6.307   4.987 -0.7028  0.2711 -2.1144
12642TIP3    H259342   2.527   6.174   4.977  0.1550 -0.6412  2.6825
12643TIP3   OH259343   4.860   4.905   0.176  0.4609  0.4568 -0.1549
12643TIP3    H159344   4.955   4.913   0.189  0.8855 -0.6553 -2.2493
12643TIP3    H259345   4.845   4.944   0.089 -1.0941  1.1339  0.4036
12644TIP3   OH259346   3.915   4.101  14.873 -0.6793  0.0852  0.3789
12644TIP3    H159347   3.918   4.018  14.921 -0.4941 -0.4812 -0.5961
12644TIP3    H259348   3.956   4.081  14.789 -1.8925  0.8101 -0.3961
12645TIP3   OH259349   5.792   7.041  13.628  0.1060 -0.0681 -0.0337
12645TIP3    H159350   5.698   7.026  13.620 -0.2497  0.9798  1.7136
12645TIP3    H259351   5.824   7.044  13.538 -1.7297  0.7316 -0.6849
12646TIP3   OH259352   5.432   5.509   3.628  0.6996  0.3889  0.5888
12646TIP3    H159353   5.369   5.579   3.612  0.7293  0.0422 -1.2163
12646TIP3    H259354   5.383   5.428   3.612  1.9828  0.1448 -2.5401
12647TIP3   OH259355   2.049   4.855   3.571 -0.2057  0.4588  0.5663
12647TIP3    H159356   2.022   4.764   3.584  2.5338 -0.1040  2.8190
12647TIP3    H259357   1.993   4.905   3.629  0.8967 -0.2737  2.3124
12648TIP3   OH259358   5.289   3.021   4.249 -0.3521  0.1118 -0.4166
12648TIP3    H159359   5.245   3.040   4.332 -0.3265  1.1440 -0.6319
12648TIP3    H259360   5.318   3.106   4.218 -0.8819 -0.2060 -1.7895
12649TIP3   OH259361   0.974   0.875   5.525  0.6495  0.1014 -0.1315
12649TIP3    H159362   0.909   0.829   5.473 -1.1010  0.6122  1.5662
12649TIP3    H259363   1.042   0.809   5.542  0.3622 -0.5675 -1.4809
12650TIP3   OH259364   6.352   4.364   1.398  0.4614  0.0836 -0.0594
12650TIP3    H159365   6.447   4.366   1.409  0.4354  1.4938 -0.0412
12650TIP3    H259366   6.333   4.433   1.335 -0.5912  0.0373  0.1915
12651TIP3   OH259367   3.084   6.810   0.694  0.6280  0.1867  0.1455
12651TIP3    H159368   3.054   6.829   0.783  1.2056 -1.5760  0.7296
12651TIP3    H259369   3.003   6.801   0.643  0.2502 -0.5284  0.8642
12652TIP3   OH259370   0.582   4.716   0.298  0.1897  0.2082 -0.1120
12652TIP3    H159371   0.633   4.796   0.313  0.6879 -0.3473  1.2114
12652TIP3    H259372   0.528   4.737   0.221  1.5362  1.2197 -0.8183
12653TIP3   OH259373   0.861   2.337  12.089  0.2151 -0.1939  0.0656
12653TIP3    H159374   0.897   2.250  12.110  1.7942  0.6153  0.8091
12653TIP3    H259375   0.840   2.332  11.996  2.6686 -0.6040 -0.5179
12654TIP3   OH259376   0.780   0.873   0.476 -0.3264  0.2196  0.1655
12654TIP3    H159377   0.727   0.938   0.430 -0.0678  0.9400  0.8856
12654TIP3    H259378   0.818   0.920   0.550  0.5238 -0.5464  0.2271
12655TIP3   OH259379   2.162   0.388   2.902 -0.2450  0.9692 -0.0553
12655TIP3    H159380   2.077   0.429   2.919 -1.0304 -1.2154  1.4748
12655TIP3    H259381   2.151   0.344   2.818 -0.4644  1.1110 -0.1016
12656TIP3   OH259382   1.625   4.073  13.768  0.1589  0.3524 -0.0684
12656TIP3    H159383   1.630   4.153  13.717  0.9754  0.6743  0.4989
12656TIP3    H259384   1.636   4.101  13.859  2.8296 -0.6051 -0.0241
12657TIP3   OH259385   0.091   0.534   0.979  0.4964 -0.0420 -0.4012
12657TIP3    H159386   0.151   0.576   0.919  0.6345  0.8479  0.3503
12657TIP3    H259387   0.005   0.572   0.958  0.4756 -0.0466 -0.3248
12658TIP3   OH259388   5.622   1.282   3.038 -0.0008  0.8402 -0.0861
12658TIP3    H159389   5.536   1.258   3.073  0.4519  1.0672  1.2035
12658TIP3    H259390   5.667   1.198   3.026 -0.4758  0.7065 -0.9726
12659TIP3   OH259391   3.243   0.183  14.350  0.1252 -0.1012 -0.3563
12659TIP3    H159392   3.208   0.107  14.397  0.0723  1.0981  1.5877
12659TIP3    H259393   3.329   0.198  14.388  0.1198  0.8503 -0.6920
12660TIP3   OH259394   4.360   4.748   2.188 -0.5074 -0.1903 -0.4061
12660TIP3    H159395   4.334   4.700   2.267 -1.3341  0.1567 -0.4617
12660TIP3    H259396   4.279   4.785   2.155 -0.0929  0.0350 -1.1814
12661TIP3   OH259397   4.575   2.578   1.970  0.1700  0.2829  0.5823
12661TIP3    H159398   4.526   2.622   1.900  1.5088  4.5273  2.1651
12661TIP3    H259399   4.662   2.564   1.932 -0.4958 -2.0299 -0.2291
12662TIP3   OH259400   1.047   6.956   1.923  0.2196 -0.2296 -0.4999
12662TIP3    H159401   0.962   6.987   1.952  0.2448 -0.4596 -0.1792
12662TIP3    H259402   1.106   6.976   1.996  0.3699 -0.3983 -0.5749
12663TIP3   OH259403   7.080   3.140   0.984 -0.0703  0.0587  0.4455
12663TIP3    H159404   6.997   3.095   0.995 -1.9982  2.7029 -2.4065
12663TIP3    H259405   7.076   3.214   1.044  0.2899  0.0787  0.4469
12664TIP3   OH259406   4.600   5.056  15.426 -0.3472 -0.4595 -0.4999
12664TIP3    H159407   4.654   5.111  15.484 -0.9166 -1.8163  1.3802
12664TIP3    H259408   4.645   4.972  15.424 -1.3690 -1.0176 -0.4454
12665TIP3   OH259409   6.940   6.521   3.047 -0.2444 -0.2600  0.6545
12665TIP3    H159410   6.913   6.610   3.071 -0.7097 -0.1565 -0.2495
12665TIP3    H259411   6.945   6.475   3.131  0.3083  0.6969  1.1643
12666TIP3   OH259412   0.398   5.866   2.382  0.3868  0.3535 -0.2956
12666TIP3    H159413   0.438   5.940   2.335 -0.0644  0.5872 -0.3151
12666TIP3    H259414   0.305   5.871   2.359  0.4040 -0.4071 -0.5449
12667TIP3   OH259415   1.205   4.595   2.560  0.3184  0.7797  0.4006
12667TIP3    H159416   1.279   4.547   2.599  1.8971  2.6436 -0.2055
12667TIP3    H259417   1.245   4.671   2.518 -2.0108  2.0889  0.4519
12668TIP3   OH259418   1.514   3.520   1.457 -0.1697  0.5266  0.2037
12668TIP3    H159419   1.434   3.475   1.431  0.2355 -0.2035  0.2252
12668TIP3    H259420   1.492   3.613   1.449 -1.5490  0.3686  1.7569
12669TIP3   OH259421   4.958   4.809  11.748 -0.2769  0.0496  0.3239
12669TIP3    H159422   4.943   4.813  11.653 -0.2499  1.5506  0.3653
12669TIP3    H259423   4.877   4.772  11.783 -0.3743 -0.3038 -0.2669
12670TIP3   OH259424   2.038   4.187  14.493 -0.4719 -0.0240 -0.6802
12670TIP3    H159425   2.122   4.227  14.473 -0.1727  0.4289  1.3993
12670TIP3    H259426   2.045   4.098  14.461  1.2734 -0.3759  0.6188
12671TIP3   OH259427   4.529   6.856  13.417  0.3756 -0.1953  0.2226
12671TIP3    H159428   4.554   6.776  13.371 -0.1702 -0.0228 -0.3787
12671TIP3    H259429   4.442   6.877  13.382  0.2173  0.2671  0.8960
12672TIP3   OH259430   4.200   1.416   3.200  0.1713  0.1495  0.2578
12672TIP3    H159431   4.208   1.339   3.145  0.5457 -0.1532  0.7271
12672TIP3    H259432   4.198   1.490   3.139 -0.0554 -0.2250 -0.1832
12673TIP3   OH259433   4.279   4.806   3.739 -0.3941  0.5723 -0.0799
12673TIP3    H159434   4.303   4.869   3.807  2.1076  0.1527 -0.5141
12673TIP3    H259435   4.245   4.731   3.787  2.4860 -0.2122  0.8624
12674TIP3   OH259436   5.326   3.905  13.101  0.4748  0.6330 -0.1469
12674TIP3    H159437   5.263   3.971  13.130  2.0574  1.2747  1.9570
12674TIP3    H259438   5.322   3.909  13.006 -0.4944  2.7586 -0.0553
12675TIP3   OH259439   5.211   1.915   3.728 -0.0535 -0.2309  0.3497
12675TIP3    H159440   5.303   1.888   3.727  0.3713  1.1792  0.8251
12675TIP3    H259441   5.213   2.007   3.701 -1.3867 -0.3575 -0.2224
12676TIP3   OH259442   0.275   1.682  13.544  0.1424  0.0102 -0.2069
12676TIP3    H159443   0.185   1.661  13.569  0.5983 -0.3480  1.1808
12676TIP3    H259444   0.277   1.668  13.450 -0.3433 -3.4993  0.2255
12677TIP3   OH259445   4.801   6.088  14.461  0.0831 -0.1718  0.3565
12677TIP3    H159446   4.877   6.030  14.461 -1.3665 -2.1339  1.7853
12677TIP3    H259447   4.785   6.106  14.553 -0.5522  1.1197  0.0077
12678TIP3   OH259448   5.157   1.198   2.619 -0.1841 -0.7302  0.4214
12678TIP3    H159449   5.085   1.173   2.561  0.7472 -0.3912 -0.9151
12678TIP3    H259450   5.209   1.118   2.628  0.1349 -0.5590  0.1012
12679TIP3   OH259451   0.505   0.179  15.067  0.4092  0.6728 -0.3765
12679TIP3    H159452   0.518   0.268  15.100  2.3301 -0.2068  1.3606
12679TIP3    H259453   0.569   0.169  14.997 -0.3564  0.9156 -1.1175
12680TIP3   OH259454   6.216   0.048  11.905  0.2032  0.1136 -0.4995
12680TIP3    H159455   6.247  -0.042  11.918  1.1427  0.5730  0.5177
12680TIP3    H259456   6.190   0.051  11.813 -0.5532 -1.4179 -0.3572
12681TIP3   OH259457   1.542   5.566   1.315  0.6629  0.0173 -0.1052
12681TIP3    H159458   1.483   5.637   1.342 -0.8434  0.0315 -3.1689
12681TIP3    H259459   1.533   5.500   1.383 -1.0090  1.0747  0.7460
12682TIP3   OH259460   4.816   3.826   0.496 -0.1060 -0.0502 -0.0048
12682TIP3    H159461   4.897   3.783   0.521 -0.8814  0.1129  2.9061
12682TIP3    H259462   4.755   3.807   0.567 -1.1198  3.9657  0.3366
12683TIP3   OH259463   1.900   1.978   2.238  0.1375 -0.4758  0.4030
12683TIP3    H159464   1.923   2.055   2.186 -0.2549  1.6870  3.3048
12683TIP3    H259465   1.821   2.004   2.286  1.0314 -2.0326  2.8083
12684TIP3   OH259466   0.421   0.740   0.142  0.4095  0.3496  0.4902
12684TIP3    H159467   0.430   0.750   0.237 -0.3347  0.1663  0.5869
12684TIP3    H259468   0.509   0.718   0.111  0.2971 -1.4736  1.3835
12685TIP3   OH259469   1.221   6.809   0.796 -0.0323 -0.8024  0.7209
12685TIP3    H159470   1.233   6.719   0.768  1.9996 -0.4426  0.3701
12685TIP3    H259471   1.304   6.852   0.776 -0.9382  1.1244  0.9604
12686TIP3   OH259472   3.777   0.788   2.830 -0.6978  0.4028  0.2489
12686TIP3    H159473   3.848   0.750   2.780  2.5193  0.2484  4.6399
12686TIP3    H259474   3.777   0.881   2.806  1.2586  0.4816  0.5089
12687TIP3   OH259475   2.144   6.477   1.723 -0.3882 -0.1591  0.1059
12687TIP3    H159476   2.184   6.393   1.746 -0.5090 -0.2298  0.0594
12687TIP3    H259477   2.216   6.539   1.725  0.5316 -0.9643 -3.7683
12688TIP3   OH259478   3.176   4.713  14.154 -0.4345  0.1190 -0.0179
12688TIP3    H159479   3.130   4.658  14.218  1.5329  0.4053  1.6853
12688TIP3    H259480   3.207   4.652  14.087  1.0408 -0.7421  1.4378
12689TIP3   OH259481   5.558   5.093  14.089  0.1193  0.5224  0.1944
12689TIP3    H159482   5.495   5.164  14.104  1.2169  1.1316  2.0979
12689TIP3    H259483   5.631   5.136  14.045  1.2320  0.8393  2.2695
12690TIP3   OH259484   7.058   1.379   1.551  0.2820  0.2221 -0.4148
12690TIP3    H159485   7.061   1.448   1.618 -0.8763 -0.9028  0.8266
12690TIP3    H259486   7.040   1.299   1.601 -0.0900 -0.7101 -2.0319
12691TIP3   OH259487   0.859   4.423   0.974 -0.6771 -0.0723 -0.2094
12691TIP3    H159488   0.870   4.343   1.025  1.8080 -0.3844 -1.1360
12691TIP3    H259489   0.788   4.403   0.913 -0.8539 -1.1489  0.3385
12692TIP3   OH259490   7.117   0.470   2.142  0.0042  0.3541 -0.3412
12692TIP3    H159491   7.032   0.453   2.101 -0.4650  0.8076  0.4451
12692TIP3    H259492   7.145   0.554   2.106  0.2584  0.0626 -0.8269
12693TIP3   OH259493   1.215   5.186   0.624  0.7689 -0.1441 -0.1018
12693TIP3    H159494   1.229   5.238   0.704 -1.5108 -0.3260  0.4514
12693TIP3    H259495   1.124   5.158   0.629  0.6923 -0.4635 -2.6237
12694TIP3   OH259496   6.599   5.424  14.340  0.2109  0.5385  0.0920
12694TIP3    H159497   6.586   5.478  14.262 -0.6003 -0.2151 -0.2971
12694TIP3    H259498   6.521   5.440  14.393 -0.9342 -1.6737 -0.8750
12695TIP3   OH259499   2.714   6.226   3.358  0.0263 -0.9340 -0.3443
12695TIP3    H159500   2.650   6.173   3.310  0.7024 -0.7777 -1.4636
12695TIP3    H259501   2.671   6.310   3.371 -0.5814 -1.3486  0.3065
12696TIP3   OH259502   4.373   1.774  15.057  0.3590  0.3783  0.2117
12696TIP3    H159503   4.356   1.685  15.086  0.5804 -0.7044 -2.8356
12696TIP3    H259504   4.467   1.786  15.069  0.2325  0.4600  1.2084
12697TIP3   OH259505   4.246   1.804   1.747 -0.8633 -0.1815 -0.4444
12697TIP3    H159506   4.210   1.742   1.811 -0.2012 -0.5188 -0.3966
12697TIP3    H259507   4.170   1.855   1.718 -1.1983 -0.1311  0.4940
12698TIP3   OH259508   0.985   2.811   1.474 -0.4671 -0.0586  0.3607
12698TIP3    H159509   1.056   2.747   1.480  1.2556  1.8022  0.2503
12698TIP3    H259510   0.983   2.853   1.560 -1.5507 -0.2197  0.4176
12699TIP3   OH259511   7.005   4.433  10.489 -0.1339 -0.0656  0.0290
12699TIP3    H159512   7.008   4.495  10.562  0.2706 -0.1905  0.1208
12699TIP3    H259513   7.091   4.442  10.448 -0.1931 -0.3349 -0.1515
12700TIP3   OH259514   2.001   1.806   0.441  0.0206  0.0258  0.0550
12700TIP3    H159515   2.019   1.751   0.517  3.8181 -0.1641 -0.8916
12700TIP3    H259516   1.981   1.892   0.478  0.6082 -0.3648  1.2926
12701TIP3   OH259517   0.703   3.529   1.308  0.2382  0.5436 -0.0390
12701TIP3    H159518   0.751   3.460   1.261 -0.3935  0.1978 -0.1822
12701TIP3    H259519   0.611   3.509   1.291  0.0212  0.6983  0.9476
12702TIP3   OH259520   5.735   5.207  14.471  0.4169  0.1602 -0.1498
12702TIP3    H159521   5.792   5.135  14.499 -0.9714 -0.7790  0.3141
12702TIP3    H259522   5.743   5.273  14.540  1.6136  0.4147 -0.5234
12703TIP3   OH259523   6.572   6.099   1.318 -0.4470 -0.4104 -0.1171
12703TIP3    H159524   6.485   6.074   1.350 -0.4726 -0.8068 -0.4850
12703TIP3    H259525   6.559   6.183   1.275 -0.3404  0.3113  1.2506
12704TIP3   OH259526   4.864   6.453   1.773 -0.0054 -0.1575 -0.1496
12704TIP3    H159527   4.925   6.411   1.713  0.6273 -0.4781  0.7153
12704TIP3    H259528   4.804   6.501   1.716  1.0402  0.1462 -1.0097
12705TIP3   OH259529   4.013   0.562   2.248  0.2798 -0.2485 -0.3621
12705TIP3    H159530   4.095   0.555   2.199  1.7824 -0.0917  2.0154
12705TIP3    H259531   4.022   0.643   2.298 -1.4521 -0.1017 -0.2551
12706TIP3   OH259532   1.761   2.207  13.347 -0.4451 -0.6306 -0.4280
12706TIP3    H159533   1.691   2.268  13.372  1.1965  1.7724 -1.4359
12706TIP3    H259534   1.755   2.203  13.251 -0.1105 -1.5777 -0.4133
12707TIP3   OH259535   2.558   3.333   0.342  0.1015  0.5523 -0.2082
12707TIP3    H159536   2.544   3.428   0.339 -0.2035  0.5139  0.0396
12707TIP3    H259537   2.496   3.298   0.279 -0.1610  0.4754  0.0890
12708TIP3   OH259538   1.086   1.345   0.089  0.0596 -0.4132  0.5740
12708TIP3    H159539   1.016   1.296   0.048 -1.7673  1.1017  1.7974
12708TIP3    H259540   1.100   1.303   0.174  1.2189 -1.2111  0.0048
12709TIP3   OH259541   3.240   4.283  10.712  0.1596  0.1700 -0.2195
12709TIP3    H159542   3.147   4.264  10.711  0.3355 -0.7451  0.1272
12709TIP3    H259543   3.282   4.197  10.714  1.0269  0.5470 -1.5419
12710TIP3   OH259544   1.620   1.961   4.001 -0.5311 -0.2245  0.7475
12710TIP3    H159545   1.616   1.977   3.907 -1.1072 -0.4227  0.7363
12710TIP3    H259546   1.564   2.029   4.039 -0.3199 -0.1594  0.9452
12711TIP3   OH259547   3.061   2.605  11.182 -0.2447  0.2840 -0.3166
12711TIP3    H159548   3.043   2.567  11.096  0.2179 -0.0636 -0.2577
12711TIP3    H259549   3.046   2.534  11.244  1.6410 -0.1036 -0.2887
12712TIP3   OH259550   1.428   5.273   2.730 -0.9723 -0.0917  0.3947
12712TIP3    H159551   1.417   5.349   2.673 -1.4479 -0.2356  0.2940
12712TIP3    H259552   1.504   5.227   2.694 -1.1469 -0.0741  0.0024
12713TIP3   OH259553   2.094   2.327  14.869 -0.1107  0.0699 -0.1020
12713TIP3    H159554   2.152   2.401  14.890  2.8358 -2.9050  2.9884
12713TIP3    H259555   2.142   2.277  14.803 -0.7984 -0.5607 -0.1250
12714TIP3   OH259556   2.809   6.693  15.081  0.2761 -0.1487 -0.2062
12714TIP3    H159557   2.897   6.667  15.109  0.4811 -0.0056 -0.7254
12714TIP3    H259558   2.763   6.711  15.163  1.1534  1.1324  0.0239
12715TIP3   OH259559   6.231   5.638  13.462  0.2000 -0.4952  0.3108
12715TIP3    H159560   6.293   5.651  13.534 -2.1456  0.7497  2.1942
12715TIP3    H259561   6.219   5.543  13.457  0.9527 -0.6344  1.0293
12716TIP3   OH259562   6.125   4.768   5.232 -0.5800  0.3180  0.4488
12716TIP3    H159563   6.092   4.694   5.182  0.1723  0.3682 -0.1300
12716TIP3    H259564   6.118   4.740   5.324  2.1915 -1.5468  0.1609
12717TIP3   OH259565   0.822   6.752   1.963  0.3557 -0.5490 -0.0268
12717TIP3    H159566   0.818   6.838   2.006 -1.4957 -1.0515  0.9013
12717TIP3    H259567   0.788   6.691   2.029  4.6870 -2.5508  0.5448
12718TIP3   OH259568   1.031   6.417   2.142  0.3246 -0.2471 -0.6348
12718TIP3    H159569   1.078   6.474   2.082  2.2849  0.6185  1.6197
12718TIP3    H259570   0.950   6.464   2.162  0.3432  0.1279 -1.4290
12719TIP3   OH259571   0.595   1.260   2.037  0.1121 -0.1676  0.5662
12719TIP3    H159572   0.584   1.197   1.965  0.4977 -0.5751  0.8585
12719TIP3    H259573   0.640   1.334   1.996 -0.3907 -0.0638  0.2080
12720TIP3   OH259574   1.332   5.726   3.453  0.0929 -0.0086 -1.0789
12720TIP3    H159575   1.417   5.769   3.455  0.3310 -0.4585 -1.4299
12720TIP3    H259576   1.352   5.633   3.452 -0.4506 -0.1459  0.6289
12721TIP3   OH259577   2.447   0.516   0.803 -0.3457 -0.3538 -0.5603
12721TIP3    H159578   2.517   0.570   0.840  0.6376 -1.6096 -0.5621
12721TIP3    H259579   2.453   0.433   0.849 -1.0449 -0.8948 -1.4213
12722TIP3   OH259580   0.535   7.075  15.142  0.6016 -0.2427 -0.4143
12722TIP3    H159581   0.585   7.055  15.221  0.3283  0.2559 -0.1110
12722TIP3    H259582   0.532   7.170  15.139 -1.9793 -0.2473  0.6595
12723TIP3   OH259583   6.503   6.243  15.208 -0.2975 -0.3255  0.1668
12723TIP3    H159584   6.433   6.265  15.146  1.8681  0.8605 -1.8981
12723TIP3    H259585   6.532   6.327  15.243  0.2483 -0.7874  0.8251
12724TIP3   OH259586   0.998   3.442   3.349 -0.3289  0.8908  0.0911
12724TIP3    H159587   0.940   3.484   3.413 -1.3814 -0.3971  0.0049
12724TIP3    H259588   1.016   3.356   3.387  0.5083  0.8126 -0.4883
12725TIP3   OH259589   4.414   6.771   1.009 -0.3470 -0.7498 -0.0105
12725TIP3    H159590   4.410   6.786   0.915 -2.6510 -0.6820  0.0624
12725TIP3    H259591   4.451   6.683   1.018  0.3056 -0.5758 -0.9706
12726TIP3   OH259592   6.331   0.527   0.289 -0.2276 -0.3384  0.0275
12726TIP3    H159593   6.291   0.451   0.247  0.1926 -0.1145 -0.8010
12726TIP3    H259594   6.333   0.594   0.220  2.7453 -0.7685 -0.4035
12727TIP3   OH259595   2.384   0.678  14.188 -0.1453  0.2403 -0.3445
12727TIP3    H159596   2.344   0.726  14.116  1.6873 -1.5289 -2.5929
12727TIP3    H259597   2.473   0.712  14.193 -0.3435  0.5614  1.3081
12728TIP3   OH259598   3.367   7.123   3.108 -0.1392  0.3070  0.2790
12728TIP3    H159599   3.410   7.141   3.024 -2.5239 -1.3902 -1.3816
12728TIP3    H259600   3.391   7.033   3.128 -3.4072 -0.9278 -1.0665
12729TIP3   OH259601   4.398   0.883   1.151 -0.0214 -0.3482  0.0551
12729TIP3    H159602   4.320   0.878   1.207 -0.4105  2.8107 -0.1247
12729TIP3    H259603   4.471   0.892   1.212 -0.0614 -0.6707  0.1515
12730TIP3   OH259604   2.617   6.727   1.427  0.6652  0.3412  0.2322
12730TIP3    H159605   2.687   6.733   1.492  1.9214 -1.4969 -0.8928
12730TIP3    H259606   2.550   6.673   1.470  0.4249  1.1236  0.8670
12731TIP3   OH259607   2.796   0.727   5.155  0.6946  0.3295 -0.6808
12731TIP3    H159608   2.793   0.796   5.222  1.8623 -0.6000  0.3473
12731TIP3    H259609   2.704   0.700   5.145  0.4035  1.0797 -0.0811
12732TIP3   OH259610   0.496   5.593   1.154 -0.6338 -0.4772  0.2967
12732TIP3    H159611   0.422   5.536   1.175 -0.9784  0.4857  1.8476
12732TIP3    H259612   0.466   5.647   1.081 -1.2518 -0.5031  0.5321
12733TIP3   OH259613   2.529   7.026   1.828  0.0169 -0.5404  0.2059
12733TIP3    H159614   2.458   7.003   1.889 -0.7644  0.5651 -0.2739
12733TIP3    H259615   2.485   7.068   1.754  1.0965 -0.5975 -0.4794
12734TIP3   OH259616   5.593   6.214   2.513  0.0396 -0.6345  0.4820
12734TIP3    H159617   5.613   6.300   2.476  1.2516 -0.7369  0.8559
12734TIP3    H259618   5.553   6.165   2.441 -0.8693  0.3243  0.3405
12735TIP3   OH259619   6.673   0.123   2.895  0.1738 -0.6199 -0.4180
12735TIP3    H159620   6.705   0.176   2.968 -0.1845 -0.3632 -0.4465
12735TIP3    H259621   6.753   0.097   2.848  0.3139  0.8637 -1.0689
12736TIP3   OH259622   6.692   6.998   3.166 -0.6093 -0.0215 -0.6024
12736TIP3    H159623   6.639   7.078   3.173 -0.5208 -0.1123  1.3727
12736TIP3    H259624   6.666   6.946   3.242 -0.7712 -1.9538 -1.9460
12737TIP3   OH259625   0.179   0.091  13.793  0.3359  0.8241 -0.1704
12737TIP3    H159626   0.115   0.095  13.722  0.2804 -2.2365 -0.3591
12737TIP3    H259627   0.263   0.087  13.749  0.3878  0.3293 -0.0241
12738TIP3   OH259628   3.833   5.689  14.724 -0.2786  0.3967  0.2898
12738TIP3    H159629   3.853   5.752  14.655 -3.1011  0.7811 -0.2374
12738TIP3    H259630   3.795   5.614  14.679 -2.0390  0.6011  1.3773
12739TIP3   OH259631   0.862   6.177   3.730 -0.5430 -0.1293  0.7045
12739TIP3    H159632   0.798   6.164   3.660  0.3394  0.2212 -0.1772
12739TIP3    H259633   0.822   6.243   3.787 -1.0791 -0.1032  0.2986
12740TIP3   OH259634   7.060   1.750   0.705 -0.0324 -0.7136  0.4312
12740TIP3    H159635   7.022   1.667   0.732  2.4989 -2.2854 -0.6889
12740TIP3    H259636   7.153   1.744   0.729  0.6460  0.9133 -1.5860
12741TIP3   OH259637   0.885   6.174  14.058  0.7869 -0.1192 -0.5644
12741TIP3    H159638   0.923   6.260  14.080  1.2340 -0.4818  0.0764
12741TIP3    H259639   0.833   6.151  14.135  0.9324 -0.5771 -0.6078
12742TIP3   OH259640   1.945   0.559   1.878  0.2909  0.1759  0.1981
12742TIP3    H159641   2.022   0.502   1.876  0.7029  0.6348  2.0518
12742TIP3    H259642   1.976   0.641   1.839  1.0426  0.6932  1.8540
12743TIP3   OH259643   2.203   0.102   1.903  0.2708 -0.1698 -0.0750
12743TIP3    H159644   2.190   0.197   1.901 -1.3507 -0.3920 -0.6538
12743TIP3    H259645   2.298   0.091   1.910  0.3339  1.5004  1.9767
12744TIP3   OH259646   1.796   2.275   5.334  0.0537 -0.2364 -0.2729
12744TIP3    H159647   1.811   2.308   5.423  0.9862 -0.2585 -0.4174
12744TIP3    H259648   1.862   2.319   5.281  1.0164 -1.9751 -0.5462
12745TIP3   OH259649   1.587   3.104  13.739  0.4247  0.0245  1.0012
12745TIP3    H159650   1.492   3.097  13.729  0.6483  0.7347 -2.0772
12745TIP3    H259651   1.617   3.013  13.747 -0.3530 -0.3047  0.2603
12746TIP3   OH259652   7.109   1.163   1.735  0.3548  0.5536  0.1953
12746TIP3    H159653   7.145   1.096   1.677 -0.6475  0.2253 -0.0591
12746TIP3    H259654   7.176   1.231   1.737  0.8181  0.1359 -0.5881
12747TIP3   OH259655   6.565   7.157   2.507 -0.4709 -0.2848  0.2623
12747TIP3    H159656   6.594   7.166   2.417  0.1926 -0.5016  0.4545
12747TIP3    H259657   6.623   7.092   2.545 -0.3755  0.2269  1.0065
12748TIP3   OH259658   4.301   1.596   2.764  0.3996  0.8343 -0.8295
12748TIP3    H159659   4.376   1.611   2.822 -0.1145  0.3807 -0.0353
12748TIP3    H259660   4.305   1.502   2.744 -1.0697  0.3984  0.7960
12749TIP3   OH259661   0.946   4.921   0.459  0.1270 -0.2980  0.6107
12749TIP3    H159662   0.996   4.965   0.390 -0.0829 -0.7736  0.1515
12749TIP3    H259663   0.856   4.923   0.428  0.1819 -1.4658  0.3571
12750TIP3   OH259664   1.193   5.245  11.804  0.6754 -0.0717  0.3503
12750TIP3    H159665   1.216   5.175  11.743  0.0373 -1.8270  2.0767
12750TIP3    H259666   1.208   5.325  11.754  1.3744 -1.4138 -1.6929
12751TIP3   OH259667   0.771   6.213   1.248 -0.2389 -0.2015 -0.3361
12751TIP3    H159668   0.712   6.253   1.184  1.1536  2.4913 -0.0023
12751TIP3    H259669   0.736   6.125   1.261 -1.5202 -0.2086 -3.5167
12752TIP3   OH259670   2.056   4.401  15.511  0.0806 -0.5954 -0.1033
12752TIP3    H159671   2.110   4.342  15.458  0.3877 -0.2056 -0.2246
12752TIP3    H259672   2.100   4.404  15.596  1.0760  0.8784 -0.6575
12753TIP3   OH259673   1.791   6.182  11.985  0.5545  0.1609 -0.2650
12753TIP3    H159674   1.798   6.152  12.076 -1.7164  0.9194  0.1818
12753TIP3    H259675   1.768   6.103  11.936  0.0803  0.0905  0.0706
12754TIP3   OH259676   3.055   0.176   2.550  0.2862 -0.3030  0.2200
12754TIP3    H159677   3.006   0.172   2.632  0.5632 -2.5462  0.3100
12754TIP3    H259678   2.993   0.150   2.482  0.2439  0.8701 -0.2013
12755TIP3   OH259679   4.109   5.427  13.788  0.3047  0.0675  0.1482
12755TIP3    H159680   4.073   5.492  13.848  0.5890 -0.3504  0.7792
12755TIP3    H259681   4.123   5.350  13.842  0.1767 -0.4502 -0.5491
12756TIP3   OH259682   5.074   6.200  12.738 -0.4781 -0.2436 -0.3562
12756TIP3    H159683   5.069   6.293  12.759 -0.3410  0.0852 -1.7354
12756TIP3    H259684   4.992   6.163  12.770 -0.2388  0.2123  0.8158
12757TIP3   OH259685   2.336   5.187   2.127  0.1825 -0.4696 -0.2091
12757TIP3    H159686   2.427   5.214   2.133 -0.0778  0.8739 -1.9932
12757TIP3    H259687   2.336   5.117   2.062 -0.3210  0.7805 -1.5588
12758TIP3   OH259688   6.256   4.377   1.108  0.1610  0.2341 -0.3520
12758TIP3    H159689   6.296   4.449   1.157  1.6648 -0.0593 -1.0967
12758TIP3    H259690   6.266   4.403   1.016 -0.4835 -0.3182 -0.5803
12759TIP3   OH259691   6.010   6.390  12.425 -0.4471 -0.0839 -0.3916
12759TIP3    H159692   5.962   6.442  12.490 -0.4504 -1.9985  1.1938
12759TIP3    H259693   5.969   6.412  12.341 -1.9910  0.7106  0.5552
12760TIP3   OH259694   0.060   1.042   0.455 -0.2477 -0.4715  0.5200
12760TIP3    H159695   0.020   0.988   0.524 -0.4510 -1.2802 -0.2249
12760TIP3    H259696  -0.014   1.092   0.419 -0.4469 -1.3481 -0.2934
12761TIP3   OH259697   4.820   5.207   0.109  0.6529 -0.3261  0.1848
12761TIP3    H159698   4.868   5.183   0.030 -2.4423  0.7936 -2.1765
12761TIP3    H259699   4.822   5.302   0.111 -1.8740 -0.2092 -0.3456
12762TIP3   OH259700   2.356   6.911   1.536  0.0243 -0.3931 -0.2085
12762TIP3    H159701   2.375   7.003   1.554 -0.6505 -0.3386  0.2350
12762TIP3    H259702   2.396   6.863   1.608 -0.7179 -0.3438  0.2475
12763TIP3   OH259703   3.991   2.399   0.210 -0.5819 -0.3638 -0.2282
12763TIP3    H159704   3.942   2.431   0.286 -2.1474 -1.5850 -0.7139
12763TIP3    H259705   3.977   2.466   0.143 -1.8293 -0.8492 -0.4580
12764TIP3   OH259706   6.198   0.278   2.515  0.6781  0.2053 -0.0066
12764TIP3    H159707   6.146   0.356   2.534  1.2670  0.4579  0.5426
12764TIP3    H259708   6.201   0.230   2.598 -0.6430 -0.9764 -0.6085
12765TIP3   OH259709   0.005   5.761   3.238  0.1158  0.7216 -0.5790
12765TIP3    H159710  -0.026   5.791   3.323  1.6935  0.7669 -0.0060
12765TIP3    H259711   0.030   5.841   3.192 -2.3092  0.8604 -1.7699
12766TIP3   OH259712   1.344   5.625  14.764  0.2536 -0.0749 -0.6653
12766TIP3    H159713   1.361   5.704  14.815  0.3184 -0.3103 -0.3204
12766TIP3    H259714   1.250   5.628  14.745 -0.0872 -0.8020  0.8449
12767TIP3   OH259715   3.890   1.711   4.655 -0.7047  0.7378 -0.0418
12767TIP3    H159716   3.916   1.644   4.591 -0.6548  1.0044 -0.3003
12767TIP3    H259717   3.933   1.684   4.736  1.2215  1.7253 -0.7126
12768TIP3   OH259718   7.006   4.712  13.518  0.1844 -0.0734 -0.5279
12768TIP3    H159719   6.991   4.804  13.539  0.8671 -0.0074 -0.3332
12768TIP3    H259720   7.012   4.669  13.603  1.0798 -0.1023 -0.5996
12769TIP3   OH259721   2.489   0.850   3.590 -0.0844  0.3203  0.2008
12769TIP3    H159722   2.482   0.876   3.498  2.5692  1.7787  0.3357
12769TIP3    H259723   2.413   0.889   3.632 -0.6478  0.7060 -1.1430
12770TIP3   OH259724   2.118   0.387   2.222 -0.0471  0.0041 -0.1934
12770TIP3    H159725   2.210   0.396   2.246 -0.1165  2.3982 -0.7206
12770TIP3    H259726   2.074   0.363   2.304  0.9389 -0.4895  0.1990
12771TIP3   OH259727   6.702   5.407   2.328 -0.2361 -0.4658 -0.4379
12771TIP3    H159728   6.731   5.380   2.416 -0.7658  0.2177 -0.0497
12771TIP3    H259729   6.621   5.359   2.314 -0.9742  0.5987  0.0949
12772TIP3   OH259730   0.637   5.684   2.149 -0.1402 -0.3453 -0.0469
12772TIP3    H159731   0.574   5.624   2.108  0.2818 -0.5098 -0.4586
12772TIP3    H259732   0.718   5.670   2.100 -0.1847  0.9561 -0.4944
12773TIP3   OH259733   2.421   6.896  15.284  0.8851  0.2953  0.0943
12773TIP3    H159734   2.480   6.841  15.234  0.6992 -0.1072  0.3161
12773TIP3    H259735   2.334   6.858  15.271  0.6707  0.8866 -0.2388
12774TIP3   OH259736   0.966   3.891  13.013 -0.5579  0.4830  0.1961
12774TIP3    H159737   0.978   3.849  12.928 -2.0386  0.0631  0.1779
12774TIP3    H259738   0.957   3.984  12.994  0.4327  0.5529  0.0280
12775TIP3   OH259739   6.170   7.155  15.277  0.1164  0.3301 -0.7576
12775TIP3    H159740   6.105   7.145  15.347 -2.0093 -1.2135 -2.8457
12775TIP3    H259741   6.172   7.249  15.259 -2.0410  0.3498 -1.0718
12776TIP3   OH259742   6.086   6.735   2.821  0.3657  0.0063  0.9531
12776TIP3    H159743   6.012   6.716   2.878  0.2044  0.7160  0.9868
12776TIP3    H259744   6.141   6.657   2.826  0.2192 -0.0394  1.8638
12777TIP3   OH259745   1.338   0.512   0.268  0.2827 -0.3455 -0.2049
12777TIP3    H159746   1.280   0.436   0.261  1.6431 -1.5607  1.3509
12777TIP3    H259747   1.310   0.556   0.347  0.5347 -0.1252 -0.2387
12778TIP3   OH259748   3.067   6.958   4.357  0.8531  0.5839  0.4083
12778TIP3    H159749   3.162   6.962   4.345  0.9977 -2.0919  0.4099
12778TIP3    H259750   3.055   6.918   4.443 -0.2966  3.2145  1.5236
12779TIP3   OH259751   2.101   3.006   0.810  0.1324 -0.2141 -0.0432
12779TIP3    H159752   2.151   2.948   0.753  2.3152 -0.2555  1.8357
12779TIP3    H259753   2.024   2.955   0.835  1.7452 -2.1415  1.1432
12780TIP3   OH259754   2.318   2.075  13.268  0.8222 -0.1388 -0.2477
12780TIP3    H159755   2.223   2.071  13.282  0.8331  0.4297  0.0174
12780TIP3    H259756   2.327   2.113  13.181  0.8059 -0.0877 -0.2272
12781TIP3   OH259757   5.950   5.646  15.519 -0.0037 -0.0185 -0.0132
12781TIP3    H159758   5.959   5.551  15.518 -0.4827 -0.0630  0.1774
12781TIP3    H259759   6.017   5.676  15.457  0.2037 -0.4724 -0.0136
12782TIP3   OH259760   6.962   6.813   0.508  0.6278  0.1029 -0.0697
12782TIP3    H159761   6.976   6.759   0.586  1.0260 -0.7876 -0.7419
12782TIP3    H259762   6.871   6.842   0.514  0.0757 -1.5290 -0.2306
12783TIP3   OH259763   6.121   3.467   2.737 -0.3016 -0.1637 -0.2997
12783TIP3    H159764   6.121   3.426   2.651  0.0435 -2.2916  0.6808
12783TIP3    H259765   6.116   3.394   2.798  2.0412  1.1634  1.5633
12784TIP3   OH259766   3.760   0.208   0.812 -0.2246 -0.2440 -0.1039
12784TIP3    H159767   3.808   0.194   0.894  1.6267 -2.2602 -1.4964
12784TIP3    H259768   3.824   0.193   0.743 -1.5185  2.4318 -1.9632
12785TIP3   OH259769   6.599   5.582   0.203  0.5246  0.7293  0.0138
12785TIP3    H159770   6.648   5.644   0.257  0.9945  0.1243  0.2831
12785TIP3    H259771   6.646   5.579   0.120  1.3709 -0.4029  0.5258
12786TIP3   OH259772   1.556   0.872   3.102 -0.3358  0.7814 -0.2491
12786TIP3    H159773   1.470   0.880   3.143  0.2246 -0.6072  1.2482
12786TIP3    H259774   1.605   0.948   3.133 -0.9985  1.5645 -1.0900
12787TIP3   OH259775   2.931   2.012  14.438  0.2889 -0.3803  0.4475
12787TIP3    H159776   2.873   2.083  14.409 -0.0533 -1.4878 -1.6073
12787TIP3    H259777   2.884   1.932  14.417  1.8398 -1.2716  0.3057
12788TIP3   OH259778   0.815   0.037   3.451  0.2185  0.8020  0.0552
12788TIP3    H159779   0.761  -0.038   3.476  0.7002  0.2186 -0.6170
12788TIP3    H259780   0.846   0.073   3.534  1.2776 -0.7133  0.3533
12789TIP3   OH259781   5.238   2.958   3.854 -0.5300 -0.1576  0.1112
12789TIP3    H159782   5.316   2.996   3.893  0.7666 -0.7185 -1.8766
12789TIP3    H259783   5.178   3.032   3.844 -0.2561  0.2833  1.5590
12790TIP3   OH259784   0.233   6.416   2.132  0.0051 -0.3467  0.6566
12790TIP3    H159785   0.167   6.433   2.064  0.2143  0.7010  0.7119
12790TIP3    H259786   0.296   6.357   2.091  0.3345  0.5868 -0.1886
12791TIP3   OH259787   6.457   4.938   0.432 -0.4290 -0.0000  0.0451
12791TIP3    H159788   6.384   4.944   0.494 -0.6735  0.6877 -0.3028
12791TIP3    H259789   6.417   4.954   0.347  0.4085  2.2068  0.0381
12792TIP3   OH259790   1.583   2.995  14.490  0.0242 -0.0872 -0.0628
12792TIP3    H159791   1.582   2.979  14.584 -2.5499 -0.7450 -0.1582
12792TIP3    H259792   1.490   2.996  14.465  0.7140 -2.1808 -2.9584
12793TIP3   OH259793   6.488   5.955   0.962 -0.3175  0.4414  0.7778
12793TIP3    H159794   6.571   5.958   0.914 -1.0419  1.3103 -0.4428
12793TIP3    H259795   6.425   5.918   0.899 -1.1819  1.1779  1.1990
12794TIP3   OH259796   0.479   6.833  14.850 -0.3251 -0.5742 -0.2552
12794TIP3    H159797   0.505   6.818  14.941 -0.1825  0.2566 -0.1498
12794TIP3    H259798   0.386   6.856  14.856  0.4013  2.6004  0.0413
12795TIP3   OH259799   1.198   4.167   4.066 -0.1272 -0.3057  0.0290
12795TIP3    H159800   1.116   4.196   4.026  0.2572  0.2887 -0.3406
12795TIP3    H259801   1.227   4.241   4.119  1.1791  0.2328 -1.4142
12796TIP3   OH259802   3.239   5.789   3.969  0.3956 -0.1243 -0.0234
12796TIP3    H159803   3.171   5.800   4.035 -0.5239 -3.3992 -0.3248
12796TIP3    H259804   3.222   5.858   3.905 -2.1847 -0.4126  0.3132
12797TIP3   OH259805   0.002   5.196   1.915 -0.5574 -0.0509 -0.0339
12797TIP3    H159806   0.092   5.162   1.911 -0.2420  0.8283 -0.6017
12797TIP3    H259807  -0.009   5.227   2.005 -0.5230 -0.7780  0.2214
12798TIP3   OH259808   4.515   2.328   1.648  0.4248 -0.0101  0.2879
12798TIP3    H159809   4.504   2.420   1.675 -0.1788 -1.0394  3.7560
12798TIP3    H259810   4.426   2.295   1.638  0.6462 -0.1561 -1.2185
12799TIP3   OH259811   1.959   0.344   4.652 -0.2026  0.3369 -0.1872
12799TIP3    H159812   1.890   0.390   4.699 -0.9058 -2.2054  1.3813
12799TIP3    H259813   1.983   0.402   4.580 -3.0640  1.8269  0.0241
12800TIP3   OH259814   0.018   4.593   3.492  0.9224  0.1518 -0.2444
12800TIP3    H159815   0.071   4.636   3.425  0.5724 -0.7287 -1.0824
12800TIP3    H259816  -0.038   4.664   3.526 -1.8353 -0.1933 -3.7530
12801TIP3   OH259817   2.272   3.549   4.378  0.2639 -0.0323  0.0395
12801TIP3    H159818   2.276   3.629   4.326  1.6851 -0.6538 -0.8153
12801TIP3    H259819   2.272   3.478   4.314 -2.1415 -0.7325  0.7296
12802TIP3   OH259820   1.014   0.119   4.717 -0.6768 -0.4606  0.0901
12802TIP3    H159821   1.095   0.168   4.701 -0.1347 -0.4717  2.5972
12802TIP3    H259822   1.044   0.039   4.761 -1.9069 -1.2122 -0.4436
12803TIP3   OH259823   5.958   3.855  14.104  0.4326 -0.1836 -0.1371
12803TIP3    H159824   5.872   3.880  14.071  0.3928 -2.1138 -1.5334
12803TIP3    H259825   6.007   3.828  14.027  1.3022 -1.9323  1.0006
12804TIP3   OH259826   6.829   1.873   0.788  0.5884  0.3227 -0.2426
12804TIP3    H159827   6.819   1.876   0.883 -0.9261 -1.0322 -0.3418
12804TIP3    H259828   6.907   1.820   0.773  0.7005  0.3532  0.2351
12805TIP3   OH259829   5.503   2.243   1.427 -0.7385  0.2912 -0.6617
12805TIP3    H159830   5.581   2.290   1.458 -1.0519 -0.2128  0.9392
12805TIP3    H259831   5.432   2.307   1.434 -0.6093  0.5311 -1.4552
12806TIP3   OH259832   1.649   2.665   2.359  0.3536  0.2728 -0.1701
12806TIP3    H159833   1.611   2.607   2.293  0.8749  1.7364 -1.7971
12806TIP3    H259834   1.573   2.704   2.403 -0.0010 -0.3538 -0.2197
12807TIP3   OH259835   6.411   2.431   3.668 -0.7799 -0.2330  0.4672
12807TIP3    H159836   6.374   2.391   3.590  0.6512 -0.2376 -0.2308
12807TIP3    H259837   6.470   2.499   3.634  0.4224 -0.7360  1.5203
12808TIP3   OH259838   4.602   6.613  13.307  0.3174 -0.5919 -0.3396
12808TIP3    H159839   4.685   6.576  13.339 -0.8448 -2.5384  0.5160
12808TIP3    H259840   4.613   6.617  13.212  1.6674 -0.1261 -0.1804
12809TIP3   OH259841   0.585   3.946   3.493 -0.9540  0.1900  0.3160
12809TIP3    H159842   0.513   3.987   3.445 -1.3090 -0.0459  0.6460
12809TIP3    H259843   0.545   3.916   3.575 -1.0230 -2.1552 -0.5615
12810TIP3   OH259844   3.979   4.194   0.932  0.1651 -0.0390  0.1976
12810TIP3    H159845   3.924   4.254   0.982  1.0069  1.3385 -0.5054
12810TIP3    H259846   4.049   4.170   0.992  0.7629  1.0322 -0.0504
12811TIP3   OH259847   3.897   0.909   1.520  0.5610 -0.0287  0.5041
12811TIP3    H159848   3.946   0.828   1.508  1.7228  0.0367  4.2501
12811TIP3    H259849   3.932   0.947   1.601 -1.9702  2.7541  0.3852
12812TIP3   OH259850   2.013   7.065   3.834 -0.4680  0.0036  0.0792
12812TIP3    H159851   1.976   6.986   3.874 -1.6815 -0.6758 -2.3095
12812TIP3    H259852   1.963   7.137   3.872 -1.0303 -0.5610  0.4178
12813TIP3   OH259853   5.430   4.147  15.312  0.2950 -0.3973 -0.0524
12813TIP3    H159854   5.361   4.114  15.370  0.3104 -2.1198 -0.9777
12813TIP3    H259855   5.441   4.078  15.247  0.9946  1.0733 -1.5198
12814TIP3   OH259856   1.611   6.514   3.618 -0.1059  0.2028  0.2153
12814TIP3    H159857   1.595   6.460   3.540 -0.9023 -0.1754  0.6409
12814TIP3    H259858   1.695   6.482   3.651 -0.5012 -0.6958  0.3848
12815TIP3   OH259859   3.737   0.609  15.166  0.5207 -0.3852  0.0435
12815TIP3    H159860   3.788   0.690  15.164 -1.1768  0.7468  1.0883
12815TIP3    H259861   3.709   0.595  15.076  0.5452  0.3925 -0.0858
12816TIP3   OH259862   5.184   3.986   1.694  0.5721  0.4097 -0.1869
12816TIP3    H159863   5.277   3.977   1.716  0.4470  0.5616  0.4272
12816TIP3    H259864   5.167   4.080   1.696  0.4487  0.3934 -0.4803
12817TIP3   OH259865   6.443   6.543   0.993 -0.2952 -0.0038  0.2634
12817TIP3    H159866   6.406   6.599   1.061 -0.6690 -0.9230  0.8269
12817TIP3    H259867   6.532   6.574   0.982 -0.5212  0.7439  0.5271
12818TIP3   OH259868   2.847   5.588   1.370 -0.2315  0.3145 -0.0225
12818TIP3    H159869   2.776   5.611   1.309 -0.8406  0.8636  0.8825
12818TIP3    H259870   2.924   5.632   1.335 -0.0840 -1.1221 -1.6016
12819TIP3   OH259871   7.088   3.053   1.393 -0.8231  0.1803 -0.5349
12819TIP3    H159872   7.114   3.076   1.482 -1.1543  0.7678 -0.5913
12819TIP3    H259873   7.170   3.052   1.344 -0.1992 -3.1859  0.4214
12820TIP3   OH259874   6.921   0.277   3.717 -0.4183 -0.2599 -0.3129
12820TIP3    H159875   6.933   0.202   3.775 -0.9856  0.8552  1.3142
12820TIP3    H259876   7.008   0.315   3.708 -0.6586  0.9106  1.7684
12821TIP3   OH259877   0.498   6.906   3.938  0.3883 -0.7568  0.3323
12821TIP3    H159878   0.586   6.883   3.970  0.9214  1.0552  0.2683
12821TIP3    H259879   0.511   6.988   3.890 -1.0894 -1.3289 -1.0848
12822TIP3   OH259880   6.702   5.437   2.814 -0.5202  0.3118 -0.0329
12822TIP3    H159881   6.773   5.390   2.769  0.3953  0.0814  1.6255
12822TIP3    H259882   6.627   5.379   2.807  0.1367 -0.6034  0.4472
12823TIP3   OH259883   1.056   5.676   1.831 -0.6730  0.7543 -0.3189
12823TIP3    H159884   1.042   5.763   1.793  1.8531  2.3253  2.1221
12823TIP3    H259885   1.134   5.686   1.886 -0.7135 -2.9148  0.5594
12824TIP3   OH259886   5.743   5.678   0.651  0.4429 -0.1035 -0.1621
12824TIP3    H159887   5.833   5.712   0.650  0.4291  0.0379  1.6891
12824TIP3    H259888   5.713   5.689   0.561  2.2095  0.0371 -0.7663
12825TIP3   OH259889   4.308   1.004   0.420 -0.0241  0.6381  0.6454
12825TIP3    H159890   4.348   0.939   0.478 -0.2535  0.6670  0.8362
12825TIP3    H259891   4.325   0.970   0.332 -2.1745 -0.9258  0.7892
12826TIP3   OH259892   1.755   5.938   1.848  0.2508  0.3663  0.0148
12826TIP3    H159893   1.740   5.885   1.927  0.2288 -0.7143 -0.6923
12826TIP3    H259894   1.680   5.917   1.792  0.5956  0.6263 -0.5467
12827TIP3   OH259895   3.011   1.714   1.138 -0.3639  0.3195 -0.7511
12827TIP3    H159896   3.019   1.753   1.051 -0.6284 -0.1689 -0.9935
12827TIP3    H259897   3.081   1.649   1.141  0.5482  1.3003 -0.0775
12828TIP3   OH259898   3.605   1.395   2.028 -0.1995 -0.3902  0.6068
12828TIP3    H159899   3.647   1.381   1.943 -1.7061  0.5272 -0.3334
12828TIP3    H259900   3.609   1.489   2.041 -1.7052 -0.3055  0.5960
12829TIP3   OH259901   3.222   2.432   2.544 -0.0043 -0.4028  0.1347
12829TIP3    H159902   3.195   2.500   2.481  0.1487 -1.5299 -1.1627
12829TIP3    H259903   3.211   2.350   2.497 -0.8659 -1.3498  1.9435
12830TIP3   OH259904   2.886   6.012  14.926  0.0495  0.2502  0.4092
12830TIP3    H159905   2.793   6.006  14.949  0.0469 -0.2141  0.2741
12830TIP3    H259906   2.894   5.962  14.844  0.1904  1.2874 -0.2229
12831TIP3   OH259907   2.138   0.073  14.292 -0.8162 -0.2827 -0.2487
12831TIP3    H159908   2.186  -0.009  14.287 -1.4328 -0.5788 -1.5638
12831TIP3    H259909   2.151   0.114  14.207 -1.2205  0.5816  0.0988
12832TIP3   OH259910   4.169   5.762  10.544  0.3451 -0.2373  0.0145
12832TIP3    H159911   4.227   5.830  10.578  1.4578 -1.0319 -0.2984
12832TIP3    H259912   4.106   5.809  10.490 -1.2524  1.0273  2.8540
12833TIP3   OH259913   0.620   5.512   0.405  0.0783 -0.2534 -0.1762
12833TIP3    H159914   0.658   5.600   0.405 -2.2876  0.8295  0.0505
12833TIP3    H259915   0.625   5.484   0.314  1.8836 -0.3771 -0.0525
12834TIP3   OH259916   3.930   0.825   3.487 -0.6195 -0.2012  0.5078
12834TIP3    H159917   3.842   0.793   3.508 -0.6902 -1.5184 -1.6600
12834TIP3    H259918   3.963   0.764   3.421  1.1953  1.3636 -0.0774
12835TIP3   OH259919   1.953   0.331  15.194 -0.0212 -0.1613  0.0281
12835TIP3    H159920   2.039   0.359  15.223 -0.4446  0.5019  0.6585
12835TIP3    H259921   1.906   0.308  15.274 -0.9998  1.1459 -0.1512
12836TIP3   OH259922   0.924   4.571   2.542  0.2068  0.3302 -0.3336
12836TIP3    H159923   0.912   4.635   2.472  1.1794  0.8279 -0.0568
12836TIP3    H259924   1.019   4.568   2.556  0.0309  0.1575  0.8831
12837TIP3   OH259925   2.262   6.899  14.692  0.3168  0.8595 -0.1477
12837TIP3    H159926   2.237   6.989  14.717 -0.1025  0.8028 -0.3546
12837TIP3    H259927   2.336   6.878  14.749 -0.0764  1.0545  0.4446
12838TIP3   OH259928   7.013   3.553   0.140 -0.5873  0.3492 -0.1832
12838TIP3    H159929   7.089   3.597   0.103  1.1004 -0.8755  1.7050
12838TIP3    H259930   6.938   3.603   0.109  0.9516  1.2272 -2.5694
12839TIP3   OH259931   5.685   2.224   0.020  0.3145  0.1598 -0.2982
12839TIP3    H159932   5.715   2.137  -0.006 -1.4648  0.1082 -2.3594
12839TIP3    H259933   5.619   2.208   0.087  0.3763 -0.0403 -0.2854
12840TIP3   OH259934   3.172   2.060   1.185  0.0088 -0.1226 -0.2708
12840TIP3    H159935   3.203   2.139   1.230  1.3693  1.0888 -3.1727
12840TIP3    H259936   3.111   2.093   1.119  0.0551 -1.5639 -1.0503
12841TIP3   OH259937   2.467   0.250   3.758  0.6649 -0.1283  0.6529
12841TIP3    H159938   2.542   0.223   3.705  0.3957  0.0597  0.1758
12841TIP3    H259939   2.502   0.315   3.819  0.7377  0.5156 -0.0721
12842TIP3   OH259940   5.495   0.819  12.808 -0.0718 -0.1412  0.1040
12842TIP3    H159941   5.470   0.886  12.871 -0.5856  0.0111 -0.2519
12842TIP3    H259942   5.554   0.864  12.747  0.1572 -0.2000  0.2830
12843TIP3   OH259943   0.125   4.531  14.828  1.0760  0.0506  0.2238
12843TIP3    H159944   0.094   4.457  14.777 -1.8962  1.3957 -0.0118
12843TIP3    H259945   0.085   4.519  14.914 -0.2693  1.8940 -0.1218
12844TIP3   OH259946   1.335   0.694   1.856 -0.1461  0.5260  0.0624
12844TIP3    H159947   1.424   0.691   1.821 -0.2420  0.1252 -0.1518
12844TIP3    H259948   1.343   0.662   1.946 -0.1525  0.0025 -0.1221
12845TIP3   OH259949   0.249   6.529   3.078 -0.1604  0.9566  0.5191
12845TIP3    H159950   0.261   6.615   3.117  0.8119  1.0678 -0.0214
12845TIP3    H259951   0.324   6.478   3.108 -1.4608 -0.1437  1.9962
12846TIP3   OH259952   5.790   6.569   0.955 -0.0904  0.0235  0.2822
12846TIP3    H159953   5.837   6.576   1.038  0.8316  0.0747 -0.2315
12846TIP3    H259954   5.850   6.606   0.891 -0.6103 -0.4348 -0.4765
12847TIP3   OH259955   1.965   6.136   2.771  0.1951 -0.3822 -0.0467
12847TIP3    H159956   1.977   6.115   2.678  3.3473 -2.6596  0.7954
12847TIP3    H259957   2.047   6.178   2.797 -0.2680 -0.6637  1.9454
12848TIP3   OH259958   1.819   4.974   4.060  0.0230 -0.4979 -0.2295
12848TIP3    H159959   1.764   5.033   4.111 -0.0904 -1.0272  0.2622
12848TIP3    H259960   1.776   4.971   3.974  0.4087  0.6588 -0.4682
12849TIP3   OH259961   6.048   5.515   0.853 -0.2425  0.4298 -0.0186
12849TIP3    H159962   5.975   5.557   0.898 -0.7220 -0.7676  0.3453
12849TIP3    H259963   6.125   5.536   0.906 -0.1617  2.4771 -0.9149
12850TIP3   OH259964   3.949   6.291  14.329 -0.4884  0.6411 -0.4529
12850TIP3    H159965   3.952   6.387  14.332  0.4445  0.5891  0.5400
12850TIP3    H259966   3.882   6.266  14.391  0.2994  0.5993  0.3886
12851TIP3   OH259967   0.158   0.675  14.502 -1.1679 -0.1491  0.2837
12851TIP3    H159968   0.164   0.661  14.408 -1.2517 -1.0038  0.4008
12851TIP3    H259969   0.235   0.727  14.524  1.3442 -3.7173  0.4412
12852TIP3   OH259970   1.219   6.598   1.593  0.1324 -0.2087  0.4464
12852TIP3    H159971   1.282   6.573   1.660  1.2791  1.7701  0.1451
12852TIP3    H259972   1.196   6.689   1.613 -1.4672 -0.4036 -0.3450
12853TIP3   OH259973   6.514   4.760  13.834  0.3095  0.1089 -0.3058
12853TIP3    H159974   6.429   4.717  13.827  1.6602 -3.1078  1.7665
12853TIP3    H259975   6.508   4.812  13.914 -0.3612  1.5801 -1.2831
12854TIP3   OH259976   6.923   5.668   2.977  0.0359 -0.1222 -0.3174
12854TIP3    H159977   6.924   5.742   2.917 -0.4168  1.5492  1.6730
12854TIP3    H259978   6.987   5.607   2.941  0.8028  1.4570 -1.7234
12855TIP3   OH259979   1.395   5.461   0.212 -0.0337 -0.1471  0.1119
12855TIP3    H159980   1.343   5.397   0.260  0.2383 -0.0084  0.5900
12855TIP3    H259981   1.330   5.517   0.168 -0.2597 -1.2978 -1.0385
12856TIP3   OH259982   0.970   5.727  13.023 -0.7271  0.6052 -0.0136
12856TIP3    H159983   1.053   5.691  12.991 -1.4120  1.3785 -2.8420
12856TIP3    H259984   0.978   5.726  13.118  1.2545 -2.2987 -0.1608
12857TIP3   OH259985   5.589   6.608   1.263 -0.3071 -0.4552  0.7760
12857TIP3    H159986   5.591   6.514   1.243 -0.5603  0.0608 -1.7805
12857TIP3    H259987   5.678   6.638   1.241 -1.1141  0.4546 -1.3592
12858TIP3   OH259988   3.408   0.959   0.482  0.2749 -0.0446  0.0867
12858TIP3    H159989   3.423   1.020   0.555  1.5719  1.2220 -1.1816
12858TIP3    H259990   3.484   0.901   0.484  0.5169  0.2410 -0.4635
12859TIP3   OH259991   2.121   5.918   0.652 -0.0614 -0.0802  0.7784
12859TIP3    H159992   2.088   5.846   0.705 -0.7214 -1.0710 -0.9494
12859TIP3    H259993   2.216   5.908   0.653 -0.1577 -1.0495  0.4495
12860TIP3   OH259994   7.062   2.052  12.431 -0.3800  0.0125 -0.4121
12860TIP3    H159995   7.152   2.036  12.461 -0.2773  0.5341 -0.4338
12860TIP3    H259996   7.011   1.979  12.468 -0.2384  0.5822  0.9459
12861TIP3   OH259997   6.695   7.088  15.332  0.0459  0.5442 -0.2249
12861TIP3    H159998   6.642   7.104  15.410  1.4231  1.2285  0.5969
12861TIP3    H259999   6.706   7.174  15.292  0.6100  0.4162 -0.3463
12862TIP3   OH260000   4.472   1.667   2.958  0.1477 -0.5187 -0.6673
12862TIP3    H160001   4.542   1.607   2.983 -0.2185 -0.6765 -0.0064
12862TIP3    H260002   4.422   1.680   3.038  0.7850  1.4267 -0.5470
12863TIP3   OH260003   6.797   4.861  14.198  0.0414  0.2855  0.0553
12863TIP3    H160004   6.793   4.789  14.262  0.5887  0.1636 -0.0510
12863TIP3    H260005   6.887   4.893  14.203 -0.6117  2.0529  1.3093
12864TIP3   OH260006   4.423   1.022   1.888  0.3219  0.0448  0.2750
12864TIP3    H160007   4.351   0.967   1.921 -2.0063  1.5685 -2.0643
12864TIP3    H260008   4.384   1.109   1.879  1.6037  0.3068 -3.7772
12865TIP3   OH260009   2.396   6.772  12.923 -0.2887 -0.4400  0.2893
12865TIP3    H160010   2.333   6.845  12.925 -0.4539 -0.5379 -0.7878
12865TIP3    H260011   2.392   6.734  13.011  1.6489  2.3998  1.6744
12866TIP3   OH260012   4.581   1.164  14.257  0.3360  0.3714  0.1446
12866TIP3    H160013   4.652   1.101  14.244 -0.8038 -1.0473  0.6708
12866TIP3    H260014   4.611   1.220  14.329 -0.0117 -1.6483  1.9207
12867TIP3   OH260015   3.930   6.696  14.717 -0.0064  0.7218 -0.8702
12867TIP3    H160016   3.869   6.765  14.744 -1.7335 -0.7552 -0.9388
12867TIP3    H260017   3.935   6.638  14.793 -0.3889 -0.3385 -1.6495
12868TIP3   OH260018   2.196   4.875  12.008  0.1967 -0.0858  0.2358
12868TIP3    H160019   2.263   4.912  11.951 -0.2329  1.0008  0.4282
12868TIP3    H260020   2.133   4.834  11.948  1.0673 -1.1963  0.0587
12869TIP3   OH260021   7.079   4.457   1.680 -0.0542  0.3989 -0.2817
12869TIP3    H160022   7.007   4.514   1.654 -0.2590  0.1765 -0.2062
12869TIP3    H260023   7.157   4.509   1.667 -0.2525  0.7525 -0.0577
12870TIP3   OH260024   6.014   5.200  13.378 -0.4274 -0.3744  0.0785
12870TIP3    H160025   5.971   5.224  13.460 -2.1197 -1.0127 -0.6012
12870TIP3    H260026   6.037   5.108  13.390  1.2632  0.0933  0.6336
12871TIP3   OH260027   7.110   6.240   2.714  0.0472 -0.1985  0.3715
12871TIP3    H160028   7.131   6.303   2.783  0.1516 -0.5762  0.6845
12871TIP3    H260029   7.020   6.212   2.733  0.0278 -0.2056  0.2756
12872TIP3   OH260030   6.207   6.210   1.880 -0.4287  0.6162  0.2914
12872TIP3    H160031   6.236   6.121   1.902 -0.5035  0.4788 -0.1659
12872TIP3    H260032   6.139   6.198   1.814  1.8802  1.1196 -2.3140
12873TIP3   OH260033   2.242   6.419   4.831  0.1504  0.3039  0.1484
12873TIP3    H160034   2.160   6.467   4.846  2.5250  3.9577  2.2564
12873TIP3    H260035   2.237   6.344   4.891 -1.1422  1.1508  1.1425
12874TIP3   OH260036   4.330   6.349  15.263 -0.9221 -0.2526  0.3995
12874TIP3    H160037   4.415   6.384  15.289  0.1488 -0.2116 -2.8474
12874TIP3    H260038   4.278   6.349  15.343  2.5526 -1.5426  2.7673
12875TIP3   OH260039   7.134   0.286   2.699 -0.3962  0.2716 -0.0391
12875TIP3    H160040   7.217   0.311   2.659  0.6283 -0.4915  1.5844
12875TIP3    H260041   7.147   0.196   2.729 -0.6503  1.2138  3.1669
12876TIP3   OH260042   1.956   4.373  15.225  0.1632  0.2719  0.1046
12876TIP3    H160043   1.916   4.352  15.309  1.1325 -1.7119  0.1016
12876TIP3    H260044   2.048   4.388  15.246  0.3739 -0.0601 -0.5749
12877TIP3   OH260045   4.797   5.467   0.169 -0.0778 -0.4485 -0.6833
12877TIP3    H160046   4.709   5.505   0.169  0.3005  0.4758 -2.3668
12877TIP3    H260047   4.818   5.455   0.262 -1.0138  1.6010 -0.1883
12878TIP3   OH260048   0.096   5.372   2.477  0.1516  0.1803  0.3002
12878TIP3    H160049   0.106   5.424   2.397  0.8940  1.3692  1.1302
12878TIP3    H260050   0.010   5.332   2.470  0.9851 -1.2616 -1.9613
12879TIP3   OH260051   1.229   6.879  12.387  0.1061  0.7319  0.1877
12879TIP3    H160052   1.146   6.919  12.360  0.5069  1.3254 -0.1783
12879TIP3    H260053   1.204   6.793  12.422 -0.6105  0.7108 -0.3642
12880TIP3   OH260054   4.351   6.555   2.185  0.4218  0.1738 -0.3101
12880TIP3    H160055   4.397   6.623   2.234  1.2802 -0.5298 -0.1250
12880TIP3    H260056   4.395   6.552   2.100 -0.2123  0.4901 -0.6481
12881TIP3   OH260057   6.237   1.666  12.547 -0.3747  0.1741 -0.4489
12881TIP3    H160058   6.247   1.612  12.468 -1.1743 -2.0081  0.8899
12881TIP3    H260059   6.327   1.685  12.574 -0.0749 -0.5455 -0.9121
12882TIP3   OH260060   6.055   1.480   0.143 -0.0744  0.0202 -0.0299
12882TIP3    H160061   6.013   1.491   0.228 -0.7541 -0.4848 -0.2981
12882TIP3    H260062   6.137   1.529   0.150 -0.8935  1.3560  0.3573
12883TIP3   OH260063   3.937   5.879   2.297 -0.2577  0.2241 -0.1704
12883TIP3    H160064   4.011   5.933   2.272  0.8864 -1.1200  0.2496
12883TIP3    H260065   3.911   5.911   2.384 -1.1173  1.6461 -0.9279
12884TIP3   OH260066   3.873   2.692   0.865  0.0579 -0.0276  0.1424
12884TIP3    H160067   3.800   2.739   0.824  0.8780  0.9602 -0.1949
12884TIP3    H260068   3.858   2.600   0.842 -1.4860  0.0739  0.7005
12885TIP3   OH260069   3.504   1.161  14.670 -0.6091  0.5069 -0.2596
12885TIP3    H160070   3.416   1.189  14.646 -0.9292  2.4194  2.8179
12885TIP3    H260071   3.554   1.242  14.677  0.9975 -0.4447 -0.3820
12886TIP3   OH260072   5.113   0.183  14.531  0.4827  0.1859  0.7213
12886TIP3    H160073   5.086   0.120  14.464  0.2602  0.2781  0.7216
12886TIP3    H260074   5.115   0.132  14.612 -1.2967  0.5339  1.0075
12887TIP3   OH260075   5.323   3.702  14.692 -0.1951  0.4196 -0.6057
12887TIP3    H160076   5.401   3.735  14.647 -0.8979  0.1580 -2.0197
12887TIP3    H260077   5.259   3.687  14.623 -1.2165 -0.2048  0.4523
12888TIP3   OH260078   1.780   0.306   1.925 -0.2948 -0.5016 -0.1355
12888TIP3    H160079   1.833   0.252   1.866  2.4148  1.0962  0.7450
12888TIP3    H260080   1.779   0.257   2.007 -1.4181 -1.1929 -0.5357
12889TIP3   OH260081   1.105   5.384   3.167 -0.2817  0.2411  0.2239
12889TIP3    H160082   1.131   5.412   3.254  0.6008 -0.3180  0.1461
12889TIP3    H260083   1.147   5.447   3.108  1.2200 -0.8637  0.0804
12890TIP3   OH260084   4.927   6.559   2.813  0.1947  0.1854  0.6769
12890TIP3    H160085   4.870   6.520   2.746  1.8086  2.9962 -2.5112
12890TIP3    H260086   5.014   6.522   2.795  0.8667  1.8361  0.4098
12891TIP3   OH260087   0.688   0.090  11.250 -0.6827  0.0844  0.4634
12891TIP3    H160088   0.710   0.177  11.283  0.3349 -0.4284  1.1440
12891TIP3    H260089   0.654   0.043  11.326 -1.4081 -0.0681  0.0561
12892TIP3   OH260090   6.235   2.360   0.056  0.3690 -0.1267  0.5187
12892TIP3    H160091   6.315   2.307   0.049  0.5801  0.3254 -0.5770
12892TIP3    H260092   6.171   2.315   0.002  0.2756  0.2403  0.3246
12893TIP3   OH260093   3.853   6.921  14.295 -0.1332 -0.5197  0.0973
12893TIP3    H160094   3.948   6.926  14.283 -0.3318  2.3729 -0.4796
12893TIP3    H260095   3.817   6.928  14.206 -0.9302 -1.2071  0.3543
12894TIP3   OH260096   3.628   1.699   0.975 -0.0727  0.1904 -0.4553
12894TIP3    H160097   3.706   1.681   1.027 -0.1910 -0.6094 -0.5436
12894TIP3    H260098   3.660   1.733   0.892  0.1763  0.0345 -0.4214
12895TIP3   OH260099   5.546   6.019   0.369  0.2382  0.2973  0.1253
12895TIP3    H160100   5.621   5.977   0.412  0.0533 -0.0134  0.1483
12895TIP3    H260101   5.561   6.005   0.276 -1.9629 -3.6100  0.2314
12896TIP3   OH260102   1.721   0.888   1.282 -0.1925 -0.2461  0.0948
12896TIP3    H160103   1.764   0.885   1.197 -0.1350 -0.4072  0.1296
12896TIP3    H260104   1.630   0.910   1.262 -1.0851 -4.0352 -0.3339
12897TIP3   OH260105   1.913   5.967   2.328 -0.4457  0.0588 -0.7292
12897TIP3    H160106   1.919   5.959   2.232  0.0679  1.8515 -0.8755
12897TIP3    H260107   1.838   6.026   2.341 -0.0635  0.3982 -0.0670
12898TIP3   OH260108   4.131   0.123   1.146  0.3444 -0.2342 -0.0250
12898TIP3    H160109   4.181   0.203   1.128 -1.6123  0.6937 -1.4933
12898TIP3    H260110   4.198   0.057   1.168  2.1506  1.1130 -1.3619
12899TIP3   OH260111   0.044   5.731  14.056 -0.0251  0.1642 -0.3182
12899TIP3    H160112   0.021   5.789  14.129  0.7819 -1.0439  0.9210
12899TIP3    H260113   0.091   5.788  13.995  0.3614  0.9212  0.6619
12900TIP3   OH260114   5.478   6.857   2.677  0.8078 -0.1641  0.0987
12900TIP3    H160115   5.386   6.846   2.652  0.5003  1.0599  0.6411
12900TIP3    H260116   5.527   6.814   2.608 -0.1643 -0.3329 -0.4965
12901TIP3   OH260117   6.464   1.396   0.080  0.1508 -0.1760  0.0026
12901TIP3    H160118   6.449   1.332   0.011 -0.3480 -0.9614  0.8246
12901TIP3    H260119   6.519   1.350   0.144 -2.0570 -0.5536  1.6775
12902TIP3   OH260120   2.748   2.129   1.385 -0.0084  0.2112 -0.5204
12902TIP3    H160121   2.712   2.095   1.303  2.0975  2.5765 -2.5127
12902TIP3    H260122   2.680   2.187   1.419  0.1464  1.2717 -1.9929
12903TIP3   OH260123   5.032   6.372   4.006 -0.5791 -0.3046 -0.5020
12903TIP3    H160124   5.044   6.278   3.996  0.6658 -0.2727  0.5652
12903TIP3    H260125   5.027   6.386   4.101  0.2023  0.8170 -0.6071
12904TIP3   OH260126   1.136   6.555   0.403  0.0317  0.2065  0.1176
12904TIP3    H160127   1.159   6.523   0.315  0.8901 -1.4677  0.9097
12904TIP3    H260128   1.059   6.504   0.427  0.5756 -0.2772  0.8478
12905TIP3   OH260129   0.857   6.844   3.684  0.0799  0.4049  0.0207
12905TIP3    H160130   0.818   6.756   3.683  0.1799  0.3610 -0.0170
12905TIP3    H260131   0.940   6.834   3.638 -0.1201  0.6206 -0.3906
12906TIP3   OH260132   4.495   0.430  15.389  0.4134  0.1640 -0.8473
12906TIP3    H160133   4.567   0.448  15.329  2.0316  1.3848  1.4086
12906TIP3    H260134   4.492   0.506  15.447 -2.1546 -0.2545 -0.3679
12907TIP3   OH260135   4.002   2.962   0.981 -0.1121 -0.6615  0.1518
12907TIP3    H160136   4.044   2.891   0.931  1.1346  0.9360 -1.1107
12907TIP3    H260137   3.974   2.920   1.062 -0.1250 -2.7953 -0.9093
12908TIP3   OH260138   5.969   4.493   0.619  0.1202 -0.3161  0.0908
12908TIP3    H160139   5.957   4.587   0.606 -1.4535 -0.4125  0.7103
12908TIP3    H260140   5.884   4.455   0.600  0.5990 -1.5634  0.3854
12909TIP3   OH260141   6.984   5.881   1.932  0.7393 -0.2861  0.4079
12909TIP3    H160142   6.966   5.949   1.997 -3.0056 -2.3841  1.7502
12909TIP3    H260143   6.947   5.915   1.851 -1.9281 -0.9921  1.2739
12910TIP3   OH260144   6.848   0.601  13.684  0.1014 -1.0073  0.1607
12910TIP3    H160145   6.773   0.543  13.694 -1.6182  1.0364 -0.4074
12910TIP3    H260146   6.917   0.545  13.649 -1.5033 -2.6856 -0.4121
12911TIP3   OH260147   0.263   1.476   3.485 -0.2228 -0.3113  0.3606
12911TIP3    H160148   0.201   1.406   3.465  0.0320 -0.0181 -1.4961
12911TIP3    H260149   0.349   1.435   3.480 -0.1022  0.0019 -0.1181
12912TIP3   OH260150   3.738   3.436   1.243  0.2289 -0.1690 -0.0357
12912TIP3    H160151   3.752   3.472   1.330  0.3245 -2.7062  1.0297
12912TIP3    H260152   3.817   3.385   1.225  0.5569  0.9545 -1.9543
12913TIP3   OH260153   6.042   1.854   0.258  0.0870 -0.3373 -0.0174
12913TIP3    H160154   6.111   1.920   0.262  0.6288 -0.8384 -0.8551
12913TIP3    H260155   5.964   1.898   0.291  0.8849  0.1287  1.3061
12914TIP3   OH260156   5.909   3.341   0.236  0.3720 -0.0635  0.1885
12914TIP3    H160157   5.857   3.357   0.314 -0.5808  1.8895 -0.8118
12914TIP3    H260158   5.989   3.392   0.249 -0.5520  1.6947 -0.8584
12915TIP3   OH260159   5.547   5.953   0.095  0.5629 -0.7106  0.2887
12915TIP3    H160160   5.604   5.898   0.041  0.0626 -1.1971  0.2557
12915TIP3    H260161   5.472   5.897   0.117 -0.4482  0.2716 -0.6012
12916TIP3   OH260162   1.373   3.909  14.578  0.0766  0.1909  0.3470
12916TIP3    H160163   1.295   3.965  14.569 -0.5604 -0.4912  1.4732
12916TIP3    H260164   1.338   3.825  14.607  1.1707 -0.3581  0.0842
12917TIP3   OH260165   5.269   0.314  15.305 -0.1771 -0.5015  0.0099
12917TIP3    H160166   5.299   0.395  15.265  1.4289 -1.0739 -0.0086
12917TIP3    H260167   5.190   0.290  15.257 -1.0104  1.3638  0.4280
12918TIP3   OH260168   4.794   5.312  12.622 -0.0993 -0.1400 -0.5206
12918TIP3    H160169   4.774   5.224  12.653  1.0049 -0.0682  0.4361
12918TIP3    H260170   4.766   5.369  12.693  1.5914  0.0906 -0.0080
12919TIP3   OH260171   6.645   5.026   0.613 -0.0920  0.2448 -0.1744
12919TIP3    H160172   6.664   5.117   0.589  0.8720  0.5541  1.7391
12919TIP3    H260173   6.588   4.995   0.542  2.3094  1.2719 -2.6503
12920TIP3   OH260174   1.591   2.668   1.250  0.0678 -0.5821 -0.2103
12920TIP3    H160175   1.589   2.748   1.303  0.6058  0.0519 -1.1392
12920TIP3    H260176   1.517   2.617   1.282  1.6082 -1.1661  2.6539
12921TIP3   OH260177   7.026   1.263   2.214 -0.5210  0.3070 -0.0292
12921TIP3    H160178   7.061   1.193   2.268  0.1445 -0.0270 -0.8801
12921TIP3    H260179   7.053   1.344   2.258 -1.5062  0.0351  1.0858
12922TIP3   OH260180   4.194   0.281   1.668 -0.0590  0.3401  0.2758
12922TIP3    H160181   4.261   0.326   1.616 -0.0819 -0.4953 -0.4870
12922TIP3    H260182   4.244   0.231   1.733  0.1012 -1.0124 -0.8818
12923TIP3   OH260183   4.639   0.147  14.988  0.1156 -0.4512  0.2490
12923TIP3    H160184   4.706   0.213  14.970 -1.3375  0.9617 -0.0600
12923TIP3    H260185   4.677   0.092  15.056  1.4947  0.4663  0.2419
12924TIP3   OH260186   2.034   3.823   2.391 -0.0610  0.4404  0.0503
12924TIP3    H160187   2.118   3.863   2.369 -0.4168  0.4838 -1.3024
12924TIP3    H260188   1.980   3.896   2.422 -0.0234  0.6519 -0.3712
12925TIP3   OH260189   3.586   0.884  15.347 -0.4362 -0.0665  0.6744
12925TIP3    H160190   3.547   0.971  15.354 -1.5538 -0.6539  2.1040
12925TIP3    H260191   3.625   0.868  15.433  0.7357 -0.5384  0.0695
12926TIP3   OH260192   4.074   4.067  14.642  0.3689 -0.2973 -0.9084
12926TIP3    H160193   4.057   4.147  14.591  0.8305  0.1452 -0.3837
12926TIP3    H260194   4.151   4.028  14.600  0.9953  0.2813 -0.3137
12927TIP3   OH260195   3.724   6.055   4.672  0.1846 -0.8467 -0.0123
12927TIP3    H160196   3.772   5.972   4.677  0.9496 -0.3040  2.3753
12927TIP3    H260197   3.640   6.038   4.714  1.0840  0.0475  2.2359
12928TIP3   OH260198   4.086   3.065  14.068 -0.3828 -0.2458 -0.1245
12928TIP3    H160199   4.161   3.018  14.103  0.7870  1.0910 -0.8048
12928TIP3    H260200   4.033   3.085  14.145  0.7117  0.1202  0.5461
12929TIP3   OH260201   1.168   7.077   0.784 -0.4883  0.1961  0.4067
12929TIP3    H160202   1.158   6.982   0.783  1.9366 -0.0884  0.0701
12929TIP3    H260203   1.231   7.093   0.855  0.1473  1.4300 -0.4256
12930TIP3   OH260204   1.418   0.106  15.539  0.4988  0.1497 -0.0827
12930TIP3    H160205   1.326   0.078  15.542 -0.1537  2.2774  0.5631
12930TIP3    H260206   1.428   0.145  15.452 -0.2068  3.0610  1.0773
12931TIP3   OH260207   3.215   6.629   0.306 -0.7465  0.0051  0.0408
12931TIP3    H160208   3.262   6.710   0.285 -0.5005  0.4474  2.0926
12931TIP3    H260209   3.242   6.610   0.396 -1.9093 -1.5916  0.0607
12932TIP3   OH260210   0.379   3.571  15.475 -0.0955  0.1860 -0.6637
12932TIP3    H160211   0.376   3.485  15.434  1.7761 -0.7153  1.0474
12932TIP3    H260212   0.448   3.565  15.540  0.9137  3.3657 -1.3358
12933TIP3   OH260213   2.056   5.957   0.395  0.3741 -0.1933 -0.6164
12933TIP3    H160214   2.130   5.913   0.353  1.3886  0.9082  0.0053
12933TIP3    H260215   2.085   5.973   0.485  0.0490  1.7596 -0.8308
12934TIP3   OH260216   1.668   6.284   1.252 -0.4547  0.4644  0.3721
12934TIP3    H160217   1.610   6.315   1.322  1.0314  0.3834  1.6614
12934TIP3    H260218   1.639   6.194   1.235 -1.1206  0.6395  0.5619
12935TIP3   OH260219   3.136   3.434   4.873  0.5604 -0.0038 -0.5556
12935TIP3    H160220   3.067   3.463   4.933 -0.1073  0.3141 -1.4566
12935TIP3    H260221   3.167   3.515   4.832  1.4052 -0.1568 -0.2309
12936TIP3   OH260222   5.579   6.330  14.517  0.5212  0.0210 -0.2826
12936TIP3    H160223   5.671   6.339  14.494  0.5158 -0.2411 -0.4061
12936TIP3    H260224   5.538   6.411  14.485  0.4961 -0.3905 -1.2805
12937TIP3   OH260225   3.276   1.451   1.768 -0.2317 -0.0801 -0.2499
12937TIP3    H160226   3.214   1.485   1.833  0.1605 -0.2745  0.2317
12937TIP3    H260227   3.270   1.512   1.695 -1.5202 -0.4948 -0.5105
12938TIP3   OH260228   3.294   0.527   0.708  0.0021  0.1823  0.2878
12938TIP3    H160229   3.325   0.613   0.736  3.0238 -0.9627  0.6766
12938TIP3    H260230   3.321   0.519   0.617 -1.3181  0.0755 -0.1141
12939TIP3   OH260231   3.018   6.553   0.136  0.3055 -0.6508  0.5575
12939TIP3    H160232   2.962   6.630   0.125 -1.6673 -2.1299 -0.1270
12939TIP3    H260233   3.090   6.583   0.192 -0.8944  1.4472  1.0335
12940TIP3   OH260234   1.636   1.957   0.898 -0.1731  0.8166  0.1796
12940TIP3    H160235   1.709   2.014   0.875  1.0401 -0.4689  0.7039
12940TIP3    H260236   1.629   1.965   0.994  0.1598 -0.0695  0.2838
12941TIP3   OH260237   3.558   5.170   1.515 -0.4768  0.1672 -0.1052
12941TIP3    H160238   3.522   5.137   1.598 -0.3736 -1.2219 -0.5943
12941TIP3    H260239   3.647   5.198   1.538 -0.8447  0.8900  0.4883
12942TIP3   OH260240   6.107   1.364  13.197 -0.4561 -0.4886 -0.4633
12942TIP3    H160241   6.082   1.341  13.108 -0.9619  0.5358 -0.5912
12942TIP3    H260242   6.036   1.330  13.252 -1.4589  1.1603 -0.6970
12943TIP3   OH260243   3.694   5.064   3.300  0.0125  0.3216  0.5161
12943TIP3    H160244   3.766   5.006   3.324  0.0050  1.2357  2.8546
12943TIP3    H260245   3.734   5.150   3.290 -0.7216  0.8257  1.7827
12944TIP3   OH260246   3.418   0.727   4.718  0.2351 -0.2905  0.5274
12944TIP3    H160247   3.436   0.648   4.667 -1.8455  0.4765 -1.4942
12944TIP3    H260248   3.329   0.715   4.750  0.9933 -0.0883  2.7774
12945TIP3   OH260249   0.858   4.023  15.165 -0.2982 -0.5067  0.0972
12945TIP3    H160250   0.772   4.049  15.196  1.4175  2.3975  2.6766
12945TIP3    H260251   0.887   4.096  15.109  0.4112 -1.5473 -0.9253
12946TIP3   OH260252   0.636   7.043   1.254 -0.0992  0.0673  0.0374
12946TIP3    H160253   0.584   7.056   1.175  0.5676  0.3801 -0.3534
12946TIP3    H260254   0.654   6.949   1.256 -0.7654 -0.0619  0.2363
12947TIP3   OH260255   3.533   0.398  13.338  0.6223 -0.1133  0.5062
12947TIP3    H160256   3.464   0.339  13.370  0.9260 -1.7454 -1.6783
12947TIP3    H260257   3.613   0.346  13.343  1.0043  0.3102 -0.8386
12948TIP3   OH260258   2.973   3.156  15.013 -0.1246 -0.5411  0.1424
12948TIP3    H160259   2.921   3.236  14.999  0.8877  0.0938 -0.0735
12948TIP3    H260260   2.973   3.144  15.108 -0.5313 -0.4425  0.1532
12949TIP3   OH260261   6.611   5.003   3.625  0.0618  0.3046  0.1785
12949TIP3    H160262   6.540   5.024   3.685  0.3336 -0.1530  0.6698
12949TIP3    H260263   6.595   5.058   3.548 -0.1793  1.0444  0.7512
12950TIP3   OH260264   5.921   2.653   1.560 -0.1263 -0.2237 -0.1462
12950TIP3    H160265   5.826   2.655   1.565 -0.1608 -0.0294 -0.7666
12950TIP3    H260266   5.951   2.701   1.638 -0.5110 -1.0771  0.5303
12951TIP3   OH260267   3.158   4.193  12.991  0.1139 -0.2314 -0.5758
12951TIP3    H160268   3.096   4.185  13.063 -0.8618 -1.1495 -1.4899
12951TIP3    H260269   3.116   4.254  12.930  0.7958  0.3158 -0.5021
12952TIP3   OH260270   6.159   0.611   5.145  0.2079  0.0911  0.2187
12952TIP3    H160271   6.178   0.610   5.239  2.4618  3.3704 -0.1550
12952TIP3    H260272   6.064   0.597   5.140  0.0847 -0.2571  2.9658
12953TIP3   OH260273   4.448   2.006   2.061 -0.0612 -0.2835 -0.1977
12953TIP3    H160274   4.385   2.067   2.024 -1.5318 -1.5762  0.1233
12953TIP3    H260275   4.505   1.983   1.988 -1.1262 -0.5366 -0.9692
12954TIP3   OH260276   6.342   3.607   3.220  0.9312  0.3985  0.4973
12954TIP3    H160277   6.415   3.579   3.277  0.7642  0.8501  0.9396
12954TIP3    H260278   6.264   3.599   3.275  0.7075  0.3789  0.1778
12955TIP3   OH260279   3.772   0.276  15.498  0.1280  0.1598 -0.5652
12955TIP3    H160280   3.762   0.255  15.405 -0.2790 -0.1900 -0.4453
12955TIP3    H260281   3.813   0.198  15.536  1.0533  0.6259 -0.5996
12956TIP3   OH260282   0.056   4.172  13.474  0.1998 -0.3763 -0.4176
12956TIP3    H160283   0.007   4.099  13.511  1.6155 -0.7459  0.7773
12956TIP3    H260284   0.042   4.244  13.535  0.8185 -0.3752 -0.2675
12957TIP3   OH260285   3.210   0.662   0.972 -0.0420  0.6103 -0.1556
12957TIP3    H160286   3.170   0.678   0.887 -1.9910  0.6788  0.7584
12957TIP3    H260287   3.216   0.567   0.978 -0.9035  0.5733  0.0920
12958TIP3   OH260288   0.015   6.203  14.447 -0.1806  0.2943 -0.4169
12958TIP3    H160289   0.000   6.194  14.353 -0.1092  2.3331 -0.6488
12958TIP3    H260290   0.017   6.297  14.462 -1.3423 -0.0123  1.8231
12959TIP3   OH260291   1.671   0.285   1.058  0.6670 -0.2290 -0.3663
12959TIP3    H160292   1.629   0.254   0.978 -1.6122 -0.2344  0.8012
12959TIP3    H260293   1.699   0.205   1.103  1.8324 -0.2309 -1.0851
12960TIP3   OH260294   1.892   1.395   1.568 -0.2784  0.2692  0.1216
12960TIP3    H160295   1.895   1.334   1.641  0.6379  0.1505 -0.0074
12960TIP3    H260296   1.834   1.465   1.597 -1.2592 -0.6068  0.3096
12961TIP3   OH260297   0.126   6.211   1.688  0.0924  0.4178  0.2670
12961TIP3    H160298   0.214   6.198   1.722  0.5252  0.6367 -0.7523
12961TIP3    H260299   0.137   6.270   1.613 -0.4527 -2.2485 -2.0125
12962TIP3   OH260300   3.005   2.241  13.938  0.2006  0.8289  0.2107
12962TIP3    H160301   3.006   2.147  13.956  1.4696  0.6908 -0.5354
12962TIP3    H260302   2.948   2.250  13.861 -2.1349  0.9988  1.9053
12963TIP3   OH260303   2.940   3.589   0.520 -0.4369  0.1852  0.0203
12963TIP3    H160304   3.010   3.524   0.521  0.8108  1.4331 -2.3664
12963TIP3    H260305   2.861   3.539   0.540  0.7551 -1.7480 -0.0113
12964TIP3   OH260306   2.568   3.463   1.356 -0.2522  0.1450  0.2933
12964TIP3    H160307   2.574   3.368   1.349 -0.4722  0.1483  0.0710
12964TIP3    H260308   2.477   3.481   1.380  0.1055  0.2253  1.6532
12965TIP3   OH260309   4.191   2.408   0.644  0.2807 -0.0904 -0.1063
12965TIP3    H160310   4.261   2.373   0.589  0.0050 -1.5305  0.4363
12965TIP3    H260311   4.235   2.434   0.725  0.4583  0.6765 -0.4444
12966TIP3   OH260312   4.215   1.486  14.448 -0.1042 -0.2641  0.1138
12966TIP3    H160313   4.250   1.399  14.468  3.8218  1.2478  0.2076
12966TIP3    H260314   4.191   1.481  14.355  3.7453 -0.3857 -0.9626
12967TIP3   OH260315   5.892   2.406  14.695 -0.0443  0.2632  0.2792
12967TIP3    H160316   5.972   2.416  14.643  0.6473 -0.9073  1.1007
12967TIP3    H260317   5.907   2.327  14.747 -1.7503  0.0243  0.4297
12968TIP3   OH260318   5.442   5.575  11.616 -0.0738  0.0041  0.2792
12968TIP3    H160319   5.452   5.590  11.710 -0.4210 -0.2222  0.3516
12968TIP3    H260320   5.513   5.627  11.576  1.7932 -2.0666  0.8112
12969TIP3   OH260321   0.896   3.426  13.048 -0.1657  0.2766 -0.3413
12969TIP3    H160322   0.851   3.354  13.004 -0.1697  0.4983 -0.7022
12969TIP3    H260323   0.981   3.432  13.004 -0.0723  0.3406 -0.1540
12970TIP3   OH260324   6.210   5.624   1.049  0.8163  0.2074 -0.5045
12970TIP3    H160325   6.274   5.555   1.067  1.0867  0.5418 -0.1754
12970TIP3    H260326   6.157   5.629   1.128  0.2649 -0.1904 -0.8450
12971TIP3   OH260327   2.059   3.032  13.857 -0.2407  0.2472  0.1445
12971TIP3    H160328   2.067   3.120  13.820 -2.3013  0.5205  0.2878
12971TIP3    H260329   2.145   3.013  13.894  0.7411  1.4890 -1.4516
12972TIP3   OH260330   1.242   0.203   0.452  0.3997 -0.0628 -0.1417
12972TIP3    H160331   1.302   0.213   0.526  1.7171  0.2652 -1.2472
12972TIP3    H260332   1.187   0.281   0.455 -1.1722 -1.2032  1.9349
12973TIP3   OH260333   4.061   2.497  14.890 -0.4159 -0.0752  0.0335
12973TIP3    H160334   4.043   2.483  14.983  1.0853  3.8535  1.0022
12973TIP3    H260335   4.137   2.442  14.872  0.4573  0.6026  1.6069
12974TIP3   OH260336   6.413   4.581  11.910  0.0491  0.3106 -0.6796
12974TIP3    H160337   6.426   4.632  11.990 -0.7335  0.3094 -0.5491
12974TIP3    H260338   6.358   4.637  11.854 -3.9108 -1.7910  0.8997
12975TIP3   OH260339   3.273   6.667  14.617  0.0027  0.1863 -0.2221
12975TIP3    H160340   3.222   6.744  14.642  0.0252 -0.0930  0.7058
12975TIP3    H260341   3.209   6.603  14.589 -0.1604 -0.1188  0.8189
12976TIP3   OH260342   4.030   1.028   0.072  0.0380 -0.5969 -0.5294
12976TIP3    H160343   4.046   1.122   0.087 -2.3144 -0.4303  1.2015
12976TIP3    H260344   4.050   0.987   0.156  2.2573 -1.8650 -1.6270
12977TIP3   OH260345   4.775   4.197  14.653  0.2929  0.3308 -0.2898
12977TIP3    H160346   4.784   4.266  14.587  0.5808 -1.0099 -1.6783
12977TIP3    H260347   4.863   4.158  14.659  0.3372  0.6239  1.0955
12978TIP3   OH260348   2.077   6.481   0.187  0.5516  0.4992  0.8491
12978TIP3    H160349   2.126   6.475   0.105 -0.7360  2.4160 -0.1066
12978TIP3    H260350   2.142   6.469   0.255  1.7804 -0.3310 -0.4581
12979TIP3   OH260351   5.803   0.582  15.203  0.2526  0.2166  0.0627
12979TIP3    H160352   5.845   0.579  15.117  1.0041 -1.7292  0.4917
12979TIP3    H260353   5.766   0.495  15.215  0.4072  0.3826  1.8553
12980TIP3   OH260354   6.108   1.140   1.540 -0.1050 -0.1531 -0.1729
12980TIP3    H160355   6.075   1.217   1.494  1.0001 -1.5103 -3.4015
12980TIP3    H260356   6.029   1.095   1.570 -0.8866  0.6205 -1.0357
12981TIP3   OH260357   2.786   0.032   2.836  0.3465 -0.2650  0.3408
12981TIP3    H160358   2.782   0.109   2.780  0.3804 -1.9425 -2.0708
12981TIP3    H260359   2.879   0.012   2.844  0.3877  0.4296  1.6727
12982TIP3   OH260360   1.813   1.474   0.178 -0.3565 -0.3482 -0.7272
12982TIP3    H160361   1.899   1.441   0.153 -0.2387  0.6311 -1.6671
12982TIP3    H260362   1.754   1.442   0.111 -0.3992  0.5425 -1.1237
12983TIP3   OH260363   0.484   4.392   3.494 -0.1246 -0.6171 -0.0659
12983TIP3    H160364   0.469   4.463   3.431  0.8751 -1.1217 -0.8924
12983TIP3    H260365   0.433   4.417   3.571  0.6516  1.2707 -0.1339
12984TIP3   OH260366   4.619   2.471   3.232  0.5356  0.2764 -0.5818
12984TIP3    H160367   4.537   2.422   3.226  0.6295  0.2069 -1.3477
12984TIP3    H260368   4.667   2.429   3.303 -0.9461  1.6134  1.2317
12985TIP3   OH260369   3.425   4.517  11.792 -0.2814  0.2633 -0.3343
12985TIP3    H160370   3.514   4.541  11.816 -0.1568 -1.4282  0.9471
12985TIP3    H260371   3.409   4.435  11.837 -1.5085 -0.9025 -2.8093
12986TIP3   OH260372   6.998   4.663   0.269 -0.2014 -0.0418  0.0400
12986TIP3    H160373   6.940   4.687   0.196 -0.0526 -0.4174 -0.2085
12986TIP3    H260374   7.056   4.738   0.281 -0.5323  0.2064  0.0759
12987TIP3   OH260375   1.489   5.403   5.597 -0.0243 -0.1506  0.0933
12987TIP3    H160376   1.400   5.378   5.573 -0.7685  1.4855  1.0315
12987TIP3    H260377   1.488   5.499   5.595  1.6165 -0.1153  0.4739
12988TIP3   OH260378   1.035   6.755   1.139 -0.2171 -0.3802  0.1311
12988TIP3    H160379   1.007   6.691   1.205  0.9263  0.5063  1.4887
12988TIP3    H260380   0.999   6.721   1.057 -0.2798 -2.3637  0.9424
12989TIP3   OH260381   4.769   5.943  11.637  0.4020 -0.2162 -0.3938
12989TIP3    H160382   4.855   5.986  11.635  0.0211  0.4538 -2.7961
12989TIP3    H260383   4.790   5.849  11.642  1.2298  0.0206  1.3731
12990TIP3   OH260384   1.433   3.936   1.908  0.1254  0.2636 -0.2253
12990TIP3    H160385   1.511   3.964   1.860  0.1299 -2.8066 -2.1499
12990TIP3    H260386   1.384   3.883   1.845 -2.2562  0.0269  1.7481
12991TIP3   OH260387   2.652   5.951   3.180  0.3349 -0.0954 -0.0835
12991TIP3    H160388   2.710   5.957   3.104 -1.2902 -0.5194 -1.3887
12991TIP3    H260389   2.669   5.865   3.217  0.7084 -0.1204 -0.3090
12992TIP3   OH260390   4.844   5.401  13.830  0.2791  0.4410 -0.0383
12992TIP3    H160391   4.816   5.344  13.901 -0.8395  1.3027  0.2417
12992TIP3    H260392   4.914   5.353  13.785 -1.9087 -1.9675 -0.9807
12993TIP3   OH260393   6.146   0.925  12.964  0.2146  0.4557 -0.3496
12993TIP3    H160394   6.128   0.970  13.046  1.0402 -0.2694  0.2344
12993TIP3    H260395   6.201   0.986  12.915  0.4486  0.5294  0.0027
12994TIP3   OH260396   6.989   4.716   5.034  0.9968 -0.0123  0.1163
12994TIP3    H160397   6.906   4.763   5.028  0.0073 -1.8826 -1.7173
12994TIP3    H260398   7.042   4.751   4.962 -0.1631 -2.3868 -1.9770
12995TIP3   OH260399   6.707   5.435   0.716  0.0020 -0.0154  0.7815
12995TIP3    H160400   6.687   5.520   0.755 -1.9208 -0.2300  0.3234
12995TIP3    H260401   6.755   5.457   0.635 -1.1220  0.6693  0.2889
12996TIP3   OH260402   3.038   6.710  12.617 -0.6981  1.0118  0.4011
12996TIP3    H160403   3.061   6.700  12.525  0.1716 -2.4156  0.9485
12996TIP3    H260404   3.079   6.793  12.643  0.4778  1.1499 -1.8247
12997TIP3   OH260405   2.088   6.550   5.689  0.0748 -0.1881 -0.6472
12997TIP3    H160406   2.123   6.461   5.699  0.1525 -0.0449  0.4163
12997TIP3    H260407   2.164   6.603   5.665  0.5613  0.0742  1.3893
12998TIP3   OH260408   2.959   5.657   0.666  0.2377  0.1506  0.5570
12998TIP3    H160409   3.050   5.666   0.637  0.5021  0.6807  1.5262
12998TIP3    H260410   2.963   5.664   0.761 -0.8149  0.1513  0.6106
12999TIP3   OH260411   3.947   0.282   2.336 -0.2884  0.3635 -0.1545
12999TIP3    H160412   4.017   0.247   2.392 -2.2367 -1.9992  0.8858
12999TIP3    H260413   3.979   0.368   2.309  1.6083  0.7178  2.9396
13000TIP3   OH260414   5.156   1.037  12.656 -0.1521 -0.1865  0.0229
13000TIP3    H160415   5.090   1.090  12.611 -0.9960 -1.3467 -0.1607
13000TIP3    H260416   5.239   1.078  12.634 -0.7777  0.9690 -0.2226
13001TIP3   OH260417   1.805   6.347   4.203  0.2037 -0.2028  0.6677
13001TIP3    H160418   1.717   6.320   4.228  0.2555 -1.4607 -0.4611
13001TIP3    H260419   1.816   6.315   4.114  0.6287  2.7816 -0.4018
13002TIP3   OH260420   1.964   6.226   3.404 -0.4019  0.0895 -0.3399
13002TIP3    H160421   1.911   6.152   3.375 -0.4203  0.0294 -0.1495
13002TIP3    H260422   2.050   6.210   3.366 -0.5903  0.3321 -0.8837
13003TIP3   OH260423   4.556   5.677   0.524 -0.4817  0.0991 -0.3103
13003TIP3    H160424   4.640   5.655   0.565  0.7430  1.1376 -2.1470
13003TIP3    H260425   4.495   5.611   0.557  0.8850 -0.2855  1.5863
13004TIP3   OH260426   1.941   5.509  13.481  0.2055  0.3608  0.2121
13004TIP3    H160427   1.983   5.547  13.559  0.1903  2.2303 -0.6703
13004TIP3    H260428   2.014   5.478  13.428  0.2423 -0.3442  0.6574
13005TIP3   OH260429   5.408   5.495   0.996 -0.1225 -0.5959  0.1920
13005TIP3    H160430   5.411   5.400   1.008 -1.6661 -0.8067 -1.0181
13005TIP3    H260431   5.335   5.510   0.935  1.0166  1.2468 -0.7692
13006TIP3   OH260432   1.591   3.710   3.414  0.5535  0.7579 -0.4646
13006TIP3    H160433   1.513   3.755   3.446  0.6407  0.8168 -0.3307
13006TIP3    H260434   1.559   3.650   3.347  0.4887  1.3282 -0.9468
13007TIP3   OH260435   1.010   2.184  13.553  0.6202 -0.4005 -0.1759
13007TIP3    H160436   1.012   2.089  13.564  0.9351 -0.4583 -0.7431
13007TIP3    H260437   1.067   2.217  13.623  1.8299 -0.7220 -0.9842
13008TIP3   OH260438   0.809   7.063   3.840 -0.1034 -0.1839  0.2607
13008TIP3    H160439   0.809   6.994   3.773 -0.8480 -0.5040  0.5741
13008TIP3    H260440   0.899   7.068   3.870  0.1184 -0.4507 -0.3509
13009TIP3   OH260441   4.403   5.934   1.529 -0.6685 -0.4190 -0.1634
13009TIP3    H160442   4.413   5.904   1.619 -0.6018 -0.8002 -0.2957
13009TIP3    H260443   4.415   6.029   1.533  0.1754 -0.5366  0.1001
13010TIP3   OH260444   4.637   0.074   1.637  0.2189 -0.1552  0.2394
13010TIP3    H160445   4.557   0.029   1.609  0.5846 -2.0771  2.0787
13010TIP3    H260446   4.693   0.004   1.671  2.0661  1.3500  0.3711
13011TIP3   OH260447   4.382   6.954   1.937 -0.3549 -0.6873  0.4267
13011TIP3    H160448   4.296   6.958   1.896 -0.8402  1.3088  1.5206
13011TIP3    H260449   4.441   6.998   1.876 -0.2098 -1.5687 -0.0736
13012TIP3   OH260450   2.327   0.264   0.463  0.8457  0.1124 -0.2772
13012TIP3    H160451   2.254   0.326   0.476  0.4750 -0.2372 -0.6792
13012TIP3    H260452   2.330   0.214   0.544 -0.0768 -0.6151 -0.6807
13013TIP3   OH260453   6.483   0.928  13.469  0.7462 -0.2375  0.8284
13013TIP3    H160454   6.549   0.859  13.469  0.7074 -0.2746  0.8943
13013TIP3    H260455   6.524   1.001  13.424  0.2041 -0.8612 -0.6982
13014TIP3   OH260456   5.467   5.208   1.060  0.1794  0.1589 -0.1437
13014TIP3    H160457   5.545   5.205   1.116  0.6629 -0.9102 -0.8482
13014TIP3    H260458   5.394   5.212   1.122  0.8364  3.0504  0.5022
13015TIP3   OH260459   4.395   6.316   9.972 -0.4201  0.1416  0.4132
13015TIP3    H160460   4.412   6.264   9.893  0.8567 -2.0821  2.1187
13015TIP3    H260461   4.474   6.367   9.985  0.2381 -1.1045  1.4397
13016TIP3   OH260462   0.461   6.557   2.871  0.5528 -0.2506  0.0108
13016TIP3    H160463   0.377   6.517   2.895 -1.0655  1.4024 -2.6652
13016TIP3    H260464   0.497   6.499   2.803 -0.8919  1.7043 -2.4977
13017TIP3   OH260465   5.105   5.243   3.371 -0.2250 -0.7025 -0.1669
13017TIP3    H160466   5.153   5.239   3.454 -0.8748 -1.4721  0.1829
13017TIP3    H260467   5.019   5.276   3.395  0.0701  0.5099 -0.7690
13018TIP3   OH260468   4.593   4.774   2.316 -0.2114  0.8945  0.5671
13018TIP3    H160469   4.563   4.820   2.394  1.2996  2.1704  0.4136
13018TIP3    H260470   4.520   4.785   2.254 -0.8775  0.9820  1.3503
13019TIP3   OH260471   1.341   5.473  13.427  0.3414  0.0099  0.6323
13019TIP3    H160472   1.300   5.425  13.500 -0.4469 -0.3669 -0.0472
13019TIP3    H260473   1.424   5.428  13.413 -0.1699 -0.8481  0.3319
13020TIP3   OH260474   3.606   6.367   1.655 -1.2529 -0.4399  0.5565
13020TIP3    H160475   3.686   6.419   1.664 -1.4105 -0.2718  1.0103
13020TIP3    H260476   3.552   6.415   1.592 -1.1439 -0.3672  0.5184
13021TIP3   OH260477   1.389   4.805   2.094  0.1250  0.0066 -0.2084
13021TIP3    H160478   1.427   4.737   2.038  0.3942 -0.8919  1.0304
13021TIP3    H260479   1.303   4.769   2.119  0.4767 -0.1072  0.8512
13022TIP3   OH260480   3.596   4.052   2.813  0.3007  0.0118  0.2749
13022TIP3    H160481   3.571   4.133   2.768 -0.4104 -0.4052 -0.0886
13022TIP3    H260482   3.528   4.040   2.880 -1.7698 -2.2896 -2.1505
13023TIP3   OH260483   2.288   6.227   0.094  0.0937  0.1811  0.2264
13023TIP3    H160484   2.251   6.145   0.061  0.4519  0.2009 -0.2311
13023TIP3    H260485   2.247   6.295   0.041  0.6347  0.2179 -0.1417
13024TIP3   OH260486   6.273   3.162   3.660 -0.1229  0.1542  0.4983
13024TIP3    H160487   6.217   3.085   3.668 -0.0636  0.1890  1.2459
13024TIP3    H260488   6.234   3.213   3.589  1.1148 -1.6527 -1.5625
13025TIP3   OH260489   3.854   6.946   2.813 -0.2363 -0.3675  0.0686
13025TIP3    H160490   3.899   6.906   2.738  0.7058  1.3303 -0.3224
13025TIP3    H260491   3.889   6.900   2.889  3.3696  1.8467 -0.1033
13026TIP3   OH260492   2.666   0.612   3.637 -0.2196 -0.5446 -0.0212
13026TIP3    H160493   2.662   0.577   3.727 -1.0301 -2.1636 -0.6606
13026TIP3    H260494   2.582   0.656   3.624 -0.8388 -1.8590 -0.5771
13027TIP3   OH260495   2.576   6.583  15.397 -0.2947  0.0728 -0.2109
13027TIP3    H160496   2.616   6.533  15.468 -0.2659  0.7650  0.2640
13027TIP3    H260497   2.644   6.645  15.371 -0.2757 -0.2284 -0.9036
13028TIP3   OH260498   4.773   0.632   1.134 -0.3503  0.0250  0.5013
13028TIP3    H160499   4.820   0.707   1.098 -1.2815  1.2129  1.6975
13028TIP3    H260500   4.782   0.563   1.068 -1.4823  1.9371 -1.7190
13029TIP3   OH260501   2.709   6.048  10.547 -0.6044 -0.0300  0.1762
13029TIP3    H160502   2.649   6.121  10.561 -0.9791 -0.3621  0.2890
13029TIP3    H260503   2.670   5.998  10.475 -0.1330  0.1109 -0.1809
13030TIP3   OH260504   1.364   3.415   4.489  0.7499 -0.3815 -0.5444
13030TIP3    H160505   1.343   3.503   4.456 -0.9586 -0.9259 -0.9675
13030TIP3    H260506   1.408   3.430   4.572 -0.7455  0.8579  0.0426
13031TIP3   OH260507   4.801   2.661   3.553 -0.3841 -0.1466 -0.0978
13031TIP3    H160508   4.781   2.754   3.562  0.3133  0.1308 -1.3630
13031TIP3    H260509   4.716   2.618   3.557 -0.6820  0.4995  0.8979
13032TIP3   OH260510   3.911   1.062   4.204  0.3489  0.1944 -0.2967
13032TIP3    H160511   3.864   1.138   4.237  0.5946  0.8044 -1.3376
13032TIP3    H260512   3.849   0.989   4.213 -0.1064  0.6341  0.1219
13033TIP3   OH260513   4.866   5.935   2.673  0.2844  0.3934  0.5219
13033TIP3    H160514   4.861   6.016   2.621 -1.0949  0.5618  0.8852
13033TIP3    H260515   4.880   5.866   2.608  2.5910  1.0343  0.3127
13034TIP3   OH260516   2.786   1.008   0.109  0.0275  0.3442 -0.1079
13034TIP3    H160517   2.878   0.982   0.115  0.0439  0.3247 -0.4307
13034TIP3    H260518   2.776   1.076   0.176  0.1338 -0.0609  0.3173
13035TIP3   OH260519   4.743   6.819   0.876  0.2686 -0.1335 -0.1237
13035TIP3    H160520   4.696   6.820   0.793 -0.2894 -0.6287  0.1857
13035TIP3    H260521   4.735   6.729   0.907 -2.9682  0.9537  2.4444
13036TIP3   OH260522   6.036   0.239   1.536 -0.6151 -0.2794 -0.2761
13036TIP3    H160523   5.953   0.285   1.544  0.8765  2.1234  1.9096
13036TIP3    H260524   6.092   0.277   1.603  2.4691 -1.4297 -2.0751
13037TIP3   OH260525   5.629   0.315  13.945  0.3656 -0.3073 -0.4029
13037TIP3    H160526   5.676   0.343  13.866 -1.6622  1.2859 -1.0876
13037TIP3    H260527   5.598   0.226  13.925  1.4930 -0.6471 -0.6551
13038TIP3   OH260528   1.967   2.318   5.025 -0.0830 -0.3461 -0.2981
13038TIP3    H160529   1.893   2.263   5.050 -0.7966  0.5984 -0.3097
13038TIP3    H260530   1.947   2.404   5.063  0.0903  0.4151 -1.9097
13039TIP3   OH260531   2.990   0.103   1.355 -0.0611 -0.2939 -0.3011
13039TIP3    H160532   3.064   0.059   1.396 -1.3038 -1.1784  1.0532
13039TIP3    H260533   3.029   0.159   1.288  2.0367  1.1889  2.0624
13040TIP3   OH260534   0.362   6.735   0.928  0.0231 -0.3189 -0.0871
13040TIP3    H160535   0.340   6.648   0.961  3.4319 -0.9925  0.6421
13040TIP3    H260536   0.379   6.787   1.006  3.0571 -0.4892 -0.5564
13041TIP3   OH260537   5.885   0.535   1.995  0.1670 -0.2947 -0.5069
13041TIP3    H160538   5.911   0.450   1.959 -0.8764 -1.0552  0.4981
13041TIP3    H260539   5.923   0.536   2.083  0.3186  0.3556 -0.5805
13042TIP3   OH260540   5.997   5.169  14.684  0.1972  0.1685 -0.2131
13042TIP3    H160541   5.903   5.184  14.687  0.0439 -0.7379 -0.4019
13042TIP3    H260542   6.018   5.129  14.768  0.5382  1.0532  0.1269
13043TIP3   OH260543   7.062   2.175  13.297  0.8808 -0.0292  0.5278
13043TIP3    H160544   7.124   2.219  13.238 -0.7513  3.5527  1.3744
13043TIP3    H260545   6.976   2.202  13.266 -0.1693 -2.1050  1.5381
13044TIP3   OH260546   4.948   4.552   0.446  0.3322  0.0105  0.1740
13044TIP3    H160547   4.961   4.524   0.537 -1.4874 -0.4645  0.3190
13044TIP3    H260548   5.029   4.596   0.422  0.9852 -0.2116  1.9062
13045TIP3   OH260549   5.426   4.862  14.031 -0.0525 -0.1728 -0.5299
13045TIP3    H160550   5.436   4.866  13.936 -0.2500 -1.9468 -0.6331
13045TIP3    H260551   5.465   4.944  14.063  1.6878 -0.4253 -1.9880
13046TIP3   OH260552   3.438   6.237   0.434  0.2745 -0.2402 -0.2167
13046TIP3    H160553   3.375   6.169   0.409 -0.8609  0.7240 -0.0062
13046TIP3    H260554   3.472   6.270   0.350 -2.1659  1.7079 -0.5055
13047TIP3   OH260555   1.855   5.112   2.435 -0.2812 -0.7787 -0.7031
13047TIP3    H160556   1.853   5.206   2.453  1.9871 -0.6743 -0.9204
13047TIP3    H260557   1.790   5.100   2.365 -1.1731  0.4948 -0.1059
13048TIP3   OH260558   5.381   0.023   1.171  0.0286  0.4147  0.0416
13048TIP3    H160559   5.435   0.100   1.186  1.2814 -0.2079 -1.1186
13048TIP3    H260560   5.421  -0.046   1.225  0.8110 -0.2128 -1.3063
13049TIP3   OH260561   5.233   2.050   1.672  0.2180  0.2057 -0.0625
13049TIP3    H160562   5.203   2.084   1.588 -2.0935 -0.5832  0.4185
13049TIP3    H260563   5.289   1.976   1.648 -3.0585 -2.1286 -0.9312
13050TIP3   OH260564   1.001   1.739   0.319  0.2611 -0.1909 -0.4604
13050TIP3    H160565   1.034   1.649   0.326 -0.1211 -0.2548  0.5496
13050TIP3    H260566   0.965   1.759   0.405  1.0874  1.2259 -0.4086
13051TIP3   OH260567   1.952   2.501  13.182  0.5058 -0.1222 -0.7612
13051TIP3    H160568   1.932   2.579  13.235 -0.8855  0.0866 -1.5522
13051TIP3    H260569   2.041   2.477  13.207  1.3673  2.3706 -1.2566
13052TIP3   OH260570   0.480   1.746  14.741  0.1545 -0.2270  0.4061
13052TIP3    H160571   0.416   1.810  14.773  0.8090  0.0607  1.1542
13052TIP3    H260572   0.565   1.788  14.752  0.4724 -0.5226 -0.7928
13053TIP3   OH260573   5.501   1.195   1.989  0.0371  0.1185 -0.1777
13053TIP3    H160574   5.448   1.138   2.046 -0.9045 -0.1615 -1.2938
13053TIP3    H260575   5.437   1.252   1.946  0.5075 -0.8423 -2.2502
13054TIP3   OH260576   3.189   4.835  15.350 -0.3373  0.0880 -0.8989
13054TIP3    H160577   3.189   4.926  15.381 -1.4283 -0.5297  1.0344
13054TIP3    H260578   3.102   4.802  15.374  1.1314 -2.3721  1.2629
13055TIP3   OH260579   4.879   7.079   1.487  0.2396 -0.4955  0.2837
13055TIP3    H160580   4.918   7.103   1.403  0.5268 -0.8500  0.3150
13055TIP3    H260581   4.927   7.001   1.514 -1.0863 -1.4519 -0.0991
13056TIP3   OH260582   1.957   5.749   0.820  0.6348  0.3619  0.4541
13056TIP3    H160583   1.941   5.665   0.864  1.8044  0.1353  0.4908
13056TIP3    H260584   1.888   5.756   0.755  0.5016 -0.6199  0.4795
13057TIP3   OH260585   6.049   5.055   3.236 -0.3971  0.0286 -0.3200
13057TIP3    H160586   6.089   5.047   3.322 -0.6540  1.1065 -0.0895
13057TIP3    H260587   6.097   4.993   3.181  0.2812 -0.1028  0.4205
13058TIP3   OH260588   3.096   4.601   2.450 -0.2762  0.2894 -0.2503
13058TIP3    H160589   3.038   4.524   2.453  1.3604 -1.0215 -1.1660
13058TIP3    H260590   3.096   4.635   2.539  0.4677 -1.9239  0.6359
13059TIP3   OH260591   2.525   3.896  15.179 -0.2196 -0.1968  0.1251
13059TIP3    H160592   2.592   3.930  15.239 -0.5073 -0.0100  0.3457
13059TIP3    H260593   2.554   3.923  15.092 -1.1159  1.7750  0.4094
13060TIP3   OH260594   6.599   6.649   1.243  0.6374 -0.2440  0.7567
13060TIP3    H160595   6.621   6.622   1.153 -1.3337 -0.9378  0.4658
13060TIP3    H260596   6.504   6.653   1.244  0.6644  0.1067  2.7465
13061TIP3   OH260597   4.674   0.041   3.053  0.5591  0.2222 -0.0044
13061TIP3    H160598   4.754  -0.009   3.034 -1.0015 -2.1551 -0.5527
13061TIP3    H260599   4.619   0.030   2.976 -0.6345  1.1388  0.6941
13062TIP3   OH260600   0.279   6.885   2.278 -0.1056  0.3290 -0.0540
13062TIP3    H160601   0.347   6.832   2.319 -0.0708 -0.0553 -0.6054
13062TIP3    H260602   0.205   6.825   2.266  0.6588 -0.1436 -2.5541
13063TIP3   OH260603   5.745   4.955  13.191 -0.6855  0.6349  0.2662
13063TIP3    H160604   5.705   4.896  13.127  0.7769  1.8133 -1.8080
13063TIP3    H260605   5.836   4.926  13.196 -1.0780 -0.2608  2.8207
13064TIP3   OH260606   5.196   3.613   3.407 -0.3393  0.2184  0.0146
13064TIP3    H160607   5.139   3.686   3.383 -1.1035 -0.7291 -1.0884
13064TIP3    H260608   5.159   3.537   3.362  0.2859 -0.9143  1.3596
13065TIP3   OH260609   3.525   4.722   2.998  0.7633  0.4287 -0.0834
13065TIP3    H160610   3.498   4.702   3.088  1.8223 -0.0056  0.1464
13065TIP3    H260611   3.569   4.807   3.006 -1.0419  1.4373 -0.5570
13066TIP3   OH260612   4.697   6.313   2.317  0.1441  0.3165 -0.1533
13066TIP3    H160613   4.758   6.344   2.383 -1.5602  0.4224  1.4390
13066TIP3    H260614   4.732   6.345   2.234  1.9421  0.7996  0.7676
13067TIP3   OH260615   6.763   3.509   3.092 -0.4667  0.4242  0.1393
13067TIP3    H160616   6.764   3.414   3.105  1.2415  0.1264 -1.8048
13067TIP3    H260617   6.687   3.525   3.036 -0.7686  0.2135  0.4847
13068TIP3   OH260618   4.430   3.059   1.727 -0.4130  0.5253  0.0066
13068TIP3    H160619   4.338   3.082   1.710 -0.5393  0.4068  0.5303
13068TIP3    H260620   4.476   3.142   1.728 -0.7052  0.6808  0.9044
13069TIP3   OH260621   4.824   5.113   3.559  0.6368  0.3067  0.2916
13069TIP3    H160622   4.811   5.200   3.598 -0.9516  0.3855 -0.3663
13069TIP3    H260623   4.735   5.079   3.547  1.2290 -1.1529 -0.0385
13070TIP3   OH260624   3.083   1.398  15.256  0.0104  0.5324 -0.4824
13070TIP3    H160625   3.125   1.476  15.220 -0.4317 -0.2103 -2.7276
13070TIP3    H260626   2.993   1.401  15.222 -0.9145  0.5884  1.8674
13071TIP3   OH260627   0.016   4.280  14.736 -0.4313 -0.7486 -0.1204
13071TIP3    H160628  -0.030   4.199  14.713 -0.9700 -0.4131 -0.2213
13071TIP3    H260629   0.082   4.289  14.667  0.8976 -2.1055  0.9313
13072TIP3   OH260630   2.157   6.311  15.183 -0.1380 -0.2332  0.9461
13072TIP3    H160631   2.235   6.363  15.201 -1.5934  1.6816  2.0682
13072TIP3    H260632   2.173   6.227  15.226  2.3145 -0.7903 -0.9953
13073TIP3   OH260633   3.147   4.086   4.996  0.0771  0.0478 -0.4147
13073TIP3    H160634   3.122   4.001   4.959 -1.8865  0.7985 -0.8674
13073TIP3    H260635   3.164   4.068   5.088 -1.4502 -0.6541 -0.2464
13074TIP3   OH260636   3.069   5.817   1.568  0.5258  0.4157 -0.1496
13074TIP3    H160637   3.141   5.785   1.515  0.9504  1.1767 -0.0396
13074TIP3    H260638   3.015   5.740   1.586  1.3722 -0.1699 -0.1346
13075TIP3   OH260639   5.129   0.586  14.822  0.0360 -0.3417 -0.2091
13075TIP3    H160640   5.200   0.629  14.870  0.7089 -2.2227  0.5336
13075TIP3    H260641   5.165   0.566  14.736  0.5812 -1.7348  0.3349
13076TIP3   OH260642   5.925   4.465   1.749  0.1568 -0.5200 -0.5404
13076TIP3    H160643   5.980   4.531   1.705  2.4249 -0.0126  2.8283
13076TIP3    H260644   5.978   4.386   1.749 -1.0651 -1.3525 -1.3445
13077TIP3   OH260645   0.643   4.388   0.809 -0.0814 -0.5731 -0.1560
13077TIP3    H160646   0.564   4.349   0.847 -0.4895 -0.7246 -1.1536
13077TIP3    H260647   0.611   4.466   0.763  0.2022 -1.2307 -1.4800
13078TIP3   OH260648   4.589   7.087   0.160 -0.6965  0.1215 -0.3396
13078TIP3    H160649   4.613   7.051   0.075  1.7499 -0.0917  0.3968
13078TIP3    H260650   4.615   7.020   0.224 -2.7823  0.1390  0.5857
13079TIP3   OH260651   2.699   6.825   3.415 -0.7396  0.9267 -0.1244
13079TIP3    H160652   2.672   6.760   3.350 -0.1417  1.1933 -0.6525
13079TIP3    H260653   2.628   6.889   3.417 -0.9721  0.6697 -0.1752
13080TIP3   OH260654   2.975   3.359   3.594  0.0801  0.1272 -0.2245
13080TIP3    H160655   2.988   3.342   3.501  1.1627  0.6134 -0.1725
13080TIP3    H260656   2.979   3.273   3.635  1.0223  0.0421 -0.4732
13081TIP3   OH260657   5.142   1.335   4.810  0.2176 -0.4811  0.0358
13081TIP3    H160658   5.052   1.307   4.832 -0.0426  0.5814  0.3417
13081TIP3    H260659   5.130   1.417   4.763  1.1128  0.5215  1.5325
13082TIP3   OH260660   0.330   1.091   0.994 -0.4566 -0.7191 -0.0694
13082TIP3    H160661   0.237   1.109   1.012 -0.8891 -1.9552 -0.9744
13082TIP3    H260662   0.352   1.018   1.052  0.6374  1.1336  1.8972
13083TIP3   OH260663   0.943   3.744   3.267 -0.1434 -0.2469  0.1794
13083TIP3    H160664   1.031   3.726   3.301 -0.1158 -0.1450  0.1635
13083TIP3    H260665   0.942   3.704   3.181  0.5193  1.3208 -0.5916
13084TIP3   OH260666   3.931   2.442  15.137 -0.3723 -0.5958 -0.0183
13084TIP3    H160667   3.957   2.533  15.146  1.8198 -1.5437  4.2577
13084TIP3    H260668   3.854   2.433  15.193  0.0086 -1.5991  0.3566
13085TIP3   OH260669   5.455   3.234   3.019 -0.1205 -0.0690 -0.0755
13085TIP3    H160670   5.542   3.220   2.981 -0.0173 -1.1139  0.5055
13085TIP3    H260671   5.466   3.307   3.079  0.0492  0.6641 -0.9966
13086TIP3   OH260672   4.780   3.343   1.133  0.0776 -0.1044 -0.1642
13086TIP3    H160673   4.811   3.405   1.199  1.4192  1.1485 -1.9211
13086TIP3    H260674   4.766   3.396   1.054 -4.0066 -1.1204 -0.2159
13087TIP3   OH260675   5.045   4.032   3.574  0.6286  0.5195  0.2246
13087TIP3    H160676   5.089   4.021   3.659 -0.5048 -0.8783  0.6592
13087TIP3    H260677   4.958   4.065   3.597 -0.2700 -1.4772 -0.2773
13088TIP3   OH260678   4.147   0.637  14.690  0.0177  0.0273  0.1013
13088TIP3    H160679   4.185   0.596  14.612  0.9102  1.3981 -0.2129
13088TIP3    H260680   4.216   0.696  14.721 -0.7834  0.3717  1.2427
13089TIP3   OH260681   4.600   2.423  15.224 -0.1357 -0.6503 -0.7710
13089TIP3    H160682   4.669   2.393  15.164 -0.8647 -0.8843 -1.5067
13089TIP3    H260683   4.595   2.518  15.208  2.0343 -0.1147  1.4153
13090TIP3   OH260684   1.765   6.839   4.442 -0.0936 -0.3888 -0.0346
13090TIP3    H160685   1.781   6.751   4.408 -2.2001 -0.8428  0.0687
13090TIP3    H260686   1.780   6.897   4.367  0.8179 -0.8574 -0.2269
13091TIP3   OH260687   4.140   4.534  14.961 -0.3699  0.1517 -0.1178
13091TIP3    H160688   4.132   4.444  14.930  0.0799  0.3889 -0.9410
13091TIP3    H260689   4.135   4.587  14.881 -1.0168  0.8762  0.4012
13092TIP3   OH260690   3.203   0.176  12.883  0.3998 -0.2825 -0.0078
13092TIP3    H160691   3.143   0.151  12.813  0.8903  1.3788 -1.0679
13092TIP3    H260692   3.284   0.129  12.862  0.1633 -0.7729  0.1651
13093TIP3   OH260693   2.049   4.955   2.261  0.0573 -0.2954 -0.0787
13093TIP3    H160694   2.113   4.889   2.288 -0.2925 -0.3892  0.5171
13093TIP3    H260695   1.966   4.924   2.297 -0.5065 -0.6803 -1.6611
13094TIP3   OH260696   0.619   6.260   0.988 -0.5652  0.2101 -0.0979
13094TIP3    H160697   0.575   6.208   1.056  1.3354  0.5453  1.4425
13094TIP3    H260698   0.568   6.244   0.909 -2.2384 -1.0096  1.1754
13095TIP3   OH260699   4.366   0.415  14.238 -0.7050  0.2609  0.8983
13095TIP3    H160700   4.448   0.464  14.232 -1.7212  1.6462 -2.8572
13095TIP3    H260701   4.394   0.323  14.234  0.6828  0.7173 -1.1482
13096TIP3   OH260702   4.600   0.907   3.868  0.0724  0.1023 -0.1553
13096TIP3    H160703   4.572   0.966   3.798 -0.2417 -1.2144 -1.1555
13096TIP3    H260704   4.542   0.928   3.942 -1.1605 -0.1010 -1.0478
13097TIP3   OH260705   5.519   2.472   0.979 -0.1448  0.2763  0.3109
13097TIP3    H160706   5.446   2.423   1.016  0.5194 -0.4885  0.6410
13097TIP3    H260707   5.596   2.441   1.028  0.4391  0.8572 -0.2227
13098TIP3   OH260708   6.482   0.660  15.235  0.1611 -0.0092 -0.1537
13098TIP3    H160709   6.561   0.624  15.193  0.3932  0.2132  0.0916
13098TIP3    H260710   6.443   0.585  15.280  1.2069  0.2579  1.2242
13099TIP3   OH260711   0.744   6.621  15.328  0.3579 -1.0412 -0.3707
13099TIP3    H160712   0.799   6.691  15.294 -0.6706  0.8613  1.7870
13099TIP3    H260713   0.797   6.581  15.398 -0.7220  0.4176  1.3172
13100TIP3   OH260714   1.341   6.708   2.059  0.1971  0.6064 -0.2778
13100TIP3    H160715   1.264   6.684   2.110  2.1029 -1.2555  1.8460
13100TIP3    H260716   1.404   6.738   2.125  2.5676 -1.4085 -1.5526
13101TIP3   OH260717   4.591   0.638   2.295 -0.6002 -1.0050 -0.2948
13101TIP3    H160718   4.528   0.655   2.365 -1.2372 -0.4997 -0.9864
13101TIP3    H260719   4.593   0.719   2.244  0.0481 -1.2845 -0.7177
13102TIP3   OH260720   1.889   6.590   2.788  0.3189  0.4635  0.0776
13102TIP3    H160721   1.883   6.545   2.872  1.7337  0.3046  0.1136
13102TIP3    H260722   1.799   6.597   2.757  0.1193 -2.9480 -0.2195
13103TIP3   OH260723   6.022   3.022  15.101 -0.4625  0.1251 -0.2709
13103TIP3    H160724   5.933   2.992  15.120 -0.0010 -0.0981  1.6612
13103TIP3    H260725   6.047   2.972  15.023 -1.4547 -0.9817  0.0870
13104TIP3   OH260726   0.975   6.234   1.822  0.0521 -0.1239  0.2099
13104TIP3    H160727   0.945   6.309   1.772 -0.4582 -0.4767 -0.0124
13104TIP3    H260728   0.915   6.164   1.799 -0.7380 -0.0538  1.9974
13105TIP3   OH260729   2.965   4.067   4.665 -0.2526 -0.1175  0.5326
13105TIP3    H160730   3.031   4.007   4.700 -0.6319 -0.1305  1.2263
13105TIP3    H260731   2.966   4.141   4.725  0.7308  0.9286 -0.7186
13106TIP3   OH260732   3.083   1.929   2.674 -0.1420 -0.1123  0.3411
13106TIP3    H160733   3.079   2.013   2.719 -0.0015 -0.1061  0.3427
13106TIP3    H260734   3.155   1.938   2.611  0.6933 -0.6434  1.1925
13107TIP3   OH260735   7.108   0.980  14.981  0.2901  0.2964 -0.6558
13107TIP3    H160736   7.103   0.889  14.951  0.3809  0.0999 -0.0914
13107TIP3    H260737   7.183   1.016  14.933  0.2496  0.0735 -0.8890
13108TIP3   OH260738   4.864   6.840   2.855 -0.6071 -0.4373  0.0647
13108TIP3    H160739   4.906   6.904   2.797 -1.0087 -0.4677 -0.2606
13108TIP3    H260740   4.877   6.756   2.811 -0.4612 -0.5239  0.2752
13109TIP3   OH260741   7.003   1.621  14.062  0.5345  0.1137 -0.1229
13109TIP3    H160742   6.926   1.614  14.006  0.8803  0.3991 -0.6408
13109TIP3    H260743   6.989   1.700  14.114  0.9542  0.7369 -0.9536
13110TIP3   OH260744   7.128   3.073   0.345  0.5812 -0.6537  0.6750
13110TIP3    H160745   7.073   3.134   0.297 -0.2559 -0.7288  1.5276
13110TIP3    H260746   7.214   3.115   0.348  1.0318 -1.3050 -2.1292
13111TIP3   OH260747   5.043   5.206  14.906  0.2371  0.5001  0.3100
13111TIP3    H160748   4.963   5.171  14.944  0.4173  0.0817  0.2989
13111TIP3    H260749   5.074   5.139  14.846 -0.3329  1.3741 -0.9793
13112TIP3   OH260750   3.432   5.196  14.894  0.8942 -0.0503 -0.2496
13112TIP3    H160751   3.479   5.264  14.847  2.6589 -1.7130 -0.9280
13112TIP3    H260752   3.498   5.155  14.950 -0.6834  0.4389  2.0776
13113TIP3   OH260753   2.766   6.733   3.681 -0.3416  0.4330 -0.4148
13113TIP3    H160754   2.819   6.790   3.625 -1.7433  2.4732  0.2919
13113TIP3    H260755   2.685   6.782   3.696 -0.5405 -0.6417  2.3075
13114TIP3   OH260756   1.193   7.105  13.533  0.7061 -0.3101  0.1674
13114TIP3    H160757   1.221   7.091  13.442 -0.1031 -1.7028  0.1177
13114TIP3    H260758   1.215   7.024  13.578 -2.8672 -1.3625  0.1893
13115TIP3   OH260759   0.192   3.241   0.677  0.0360  0.4754  0.5681
13115TIP3    H160760   0.239   3.323   0.692 -1.4326  1.2623  0.8717
13115TIP3    H260761   0.190   3.199   0.763 -0.6737  0.8976  0.7585
13116TIP3   OH260762   6.035   3.948   2.853 -0.0054 -0.1841 -0.7196
13116TIP3    H160763   6.053   3.861   2.889  0.6741  0.3210  0.1575
13116TIP3    H260764   6.016   4.003   2.929 -0.1015  0.5205 -1.2414
13117TIP3   OH260765   0.105   5.655   0.271 -0.4550 -0.1941 -0.6789
13117TIP3    H160766   0.037   5.596   0.238 -0.0778 -1.4113  0.6955
13117TIP3    H260767   0.149   5.687   0.192 -0.3699 -2.1020 -1.4288
13118TIP3   OH260768   4.558   5.869   5.646 -0.2121  0.3406  0.5326
13118TIP3    H160769   4.622   5.825   5.590 -0.1234  0.2262  0.7231
13118TIP3    H260770   4.597   5.866   5.734  0.3853  1.9004  0.3378
13119TIP3   OH260771   6.199   6.503   2.547 -0.2650 -0.3196  0.2161
13119TIP3    H160772   6.241   6.588   2.528  0.3966 -0.8420 -0.7207
13119TIP3    H260773   6.175   6.509   2.640  0.5753  0.5560  0.3955
13120TIP3   OH260774   1.347   1.414   2.075 -0.3898  0.5235  0.4534
13120TIP3    H160775   1.360   1.508   2.064 -0.9363  0.7559  1.7561
13120TIP3    H260776   1.264   1.396   2.031  0.3976  0.3939 -1.0157
13121TIP3   OH260777   1.198   4.924   0.274 -0.1635 -0.1211  0.2083
13121TIP3    H160778   1.234   5.009   0.252  2.7605 -1.2837  0.2549
13121TIP3    H260779   1.168   4.888   0.190  2.6720 -0.8100 -0.5969
13122TIP3   OH260780   3.592   6.519  15.299 -0.0779 -0.2018  0.0243
13122TIP3    H160781   3.553   6.546  15.382  0.1777 -0.6232  0.2827
13122TIP3    H260782   3.680   6.556  15.300 -0.4261  0.6518 -0.5111
13123TIP3   OH260783   1.787   6.660   0.145 -0.3016  0.3505 -0.6591
13123TIP3    H160784   1.792   6.728   0.212  2.6056  2.2211 -2.6692
13123TIP3    H260785   1.878   6.636   0.128 -1.1594 -2.3917 -1.6635
13124TIP3   OH260786   4.465   1.864   0.414 -0.0615  0.1140  0.4207
13124TIP3    H160787   4.389   1.911   0.447  0.9540  0.2612  2.6065
13124TIP3    H260788   4.433   1.776   0.397 -1.3442  0.8694 -1.2365
13125TIP3   OH260789   2.453   6.055   1.114 -0.4876  0.0089 -0.5604
13125TIP3    H160790   2.524   6.119   1.128  0.8815 -1.3806 -1.0757
13125TIP3    H260791   2.373   6.106   1.126  0.5764  2.0588 -1.9126
13126TIP3   OH260792   3.184   3.703  15.450 -0.1505  1.0962  0.0157
13126TIP3    H160793   3.269   3.730  15.415  0.1813  0.7175  0.5250
13126TIP3    H260794   3.198   3.698  15.544 -0.7366  1.0251  0.0970
13127TIP3   OH260795   6.036   3.890   2.379 -0.4418 -1.0083 -0.1838
13127TIP3    H160796   6.035   3.873   2.473  0.3660  0.5265  0.1125
13127TIP3    H260797   5.959   3.945   2.364 -0.2003 -0.6990 -0.3044
13128TIP3   OH260798   3.764   3.766   1.332  0.2692  0.6443 -0.1321
13128TIP3    H160799   3.766   3.695   1.396 -1.9527  2.2232  1.7844
13128TIP3    H260800   3.834   3.824   1.359  0.1057  0.7054  0.1694
13129TIP3   OH260801   3.380   4.904  14.213  0.1623 -0.8122 -0.3960
13129TIP3    H160802   3.365   4.974  14.150 -0.8920  0.8695  1.6421
13129TIP3    H260803   3.305   4.846  14.202 -1.6623  1.1298  1.3979
13130TIP3   OH260804   6.961   3.162  15.506  0.1222 -0.3072 -0.3169
13130TIP3    H160805   6.964   3.067  15.510 -1.3849 -0.3436  0.1947
13130TIP3    H260806   7.022   3.185  15.436 -1.3786 -1.8034 -2.1637
13131TIP3   OH260807   5.965   6.038   4.241  0.1801 -0.6195  0.1756
13131TIP3    H160808   6.055   6.066   4.260 -0.0094 -0.5500  0.9785
13131TIP3    H260809   5.910   6.100   4.288 -0.2487 -1.8505  1.3354
13132TIP3   OH260810   5.403   6.172  15.509 -0.5440 -0.0909 -0.0138
13132TIP3    H160811   5.453   6.116  15.569 -1.1151  1.3406  1.8731
13132TIP3    H260812   5.335   6.116  15.474 -0.1251 -1.0013  0.6055
13133TIP3   OH260813   6.205   6.939   3.594 -0.4754 -0.1001 -0.5341
13133TIP3    H160814   6.169   7.011   3.646 -0.3135 -0.9111  0.7134
13133TIP3    H260815   6.215   6.867   3.656 -0.1861 -1.0547 -1.6737
13134TIP3   OH260816   4.591   6.185   2.658  0.0150 -0.0183  0.5473
13134TIP3    H160817   4.542   6.149   2.732 -1.1507 -0.4837 -0.4502
13134TIP3    H260818   4.564   6.132   2.583 -0.4802  1.8689 -0.6311
13135TIP3   OH260819   7.008   6.567   2.775  0.6631 -0.2463 -0.0173
13135TIP3    H160820   7.005   6.521   2.860  1.2304  0.3453  0.3270
13135TIP3    H260821   7.068   6.640   2.790  0.4078  0.1212 -0.8073
13136TIP3   OH260822   4.350   6.677   0.746 -0.5803  0.0207 -0.4389
13136TIP3    H160823   4.409   6.617   0.791 -1.2276 -1.5564 -1.6538
13136TIP3    H260824   4.403   6.717   0.677 -0.1032  1.0137  0.4802
13137TIP3   OH260825   5.402   7.012   4.327  0.2323  0.2912 -0.7531
13137TIP3    H160826   5.407   7.105   4.304 -0.1539  0.1018 -1.6268
13137TIP3    H260827   5.327   6.979   4.278 -0.0336 -0.3448  0.0608
13138TIP3   OH260828   3.784   6.281  15.299 -0.2300  0.3729  0.1322
13138TIP3    H160829   3.838   6.281  15.378  0.6250 -0.3550 -0.4352
13138TIP3    H260830   3.736   6.364  15.302 -0.1477  0.3797  1.3707
13139TIP3   OH260831   0.164   2.175   2.460 -0.1572  0.2205 -0.6665
13139TIP3    H160832   0.122   2.230   2.393 -1.9018  0.0675  0.2716
13139TIP3    H260833   0.217   2.236   2.511 -0.2349  0.6495 -1.0888
13140TIP3   OH260834   5.356   3.337   0.995  0.8340 -0.4326  0.2020
13140TIP3    H160835   5.298   3.283   1.049  2.1804 -2.3895 -0.2758
13140TIP3    H260836   5.442   3.329   1.035  1.1984  0.7863 -0.3107
13141TIP3   OH260837   6.916   6.274   0.348  0.2019 -0.6363 -0.1486
13141TIP3    H160838   6.980   6.305   0.284  1.1034 -0.7900  0.6741
13141TIP3    H260839   6.905   6.181   0.328 -1.6256 -0.0939 -1.8629
13142TIP3   OH260840   4.247   3.244   2.355 -0.1372 -0.1483  0.2794
13142TIP3    H160841   4.331   3.272   2.392 -0.3570  0.7141  0.1436
13142TIP3    H260842   4.206   3.325   2.326 -1.0308 -0.5653  0.3675
13143TIP3   OH260843   3.062   1.960  13.951  0.3970 -0.1535 -0.7606
13143TIP3    H160844   3.141   1.939  14.000 -0.3572 -0.7646  0.2011
13143TIP3    H260845   2.993   1.908  13.992 -0.7387  1.2610 -0.8250
13144TIP3   OH260846   3.823   1.810   3.503 -0.3868  0.3245  0.3414
13144TIP3    H160847   3.895   1.821   3.566  0.3744 -2.4392  0.0099
13144TIP3    H260848   3.797   1.718   3.512 -3.8325  1.2407  0.3628
13145TIP3   OH260849   4.485   3.446   1.324 -0.0638  0.1811  0.0200
13145TIP3    H160850   4.405   3.394   1.330 -0.1341  0.4598  1.4786
13145TIP3    H260851   4.479   3.509   1.395  1.1366  0.6554 -0.2852
13146TIP3   OH260852   1.037   0.263   4.395  0.1409 -0.5151 -0.1186
13146TIP3    H160853   0.951   0.224   4.387  0.4961 -1.2282 -0.4734
13146TIP3    H260854   1.034   0.311   4.478 -0.2256 -1.4758  0.4347
13147TIP3   OH260855   3.536   5.947   0.239 -1.0587  0.0542 -0.8641
13147TIP3    H160856   3.596   6.019   0.255  0.5223 -1.7008  1.5154
13147TIP3    H260857   3.559   5.915   0.151 -1.0362  1.7178 -1.4718
13148TIP3   OH260858   5.169   0.438  14.583  0.3967 -0.2693 -0.4898
13148TIP3    H160859   5.173   0.344  14.565  0.0984 -0.7117  1.5632
13148TIP3    H260860   5.167   0.480  14.497  0.8347 -2.1288 -1.4205
13149TIP3   OH260861   0.873   3.698   2.754  0.2683  0.8629 -0.4781
13149TIP3    H160862   0.912   3.708   2.667 -0.2159 -0.4652 -0.8628
13149TIP3    H260863   0.780   3.718   2.741  0.3996  1.7551 -0.0368
13150TIP3   OH260864   1.360   5.833  14.954  0.2377  0.5010 -0.4698
13150TIP3    H160865   1.377   5.776  15.029  1.2192  0.0776 -1.0043
13150TIP3    H260866   1.414   5.910  14.970 -1.2576  1.4010  0.3651
13151TIP3   OH260867   1.885   6.132  14.904  0.2300  0.3873 -0.4322
13151TIP3    H160868   1.875   6.131  14.808  0.0804  0.5783 -0.4195
13151TIP3    H260869   1.855   6.219  14.930 -0.6813 -0.0153 -0.1125
13152TIP3   OH260870   2.810   0.213   1.899 -0.4687  0.7458 -0.0412
13152TIP3    H160871   2.812   0.242   1.990  0.9507  0.3755  0.0651
13152TIP3    H260872   2.822   0.118   1.904 -2.5097  0.4296 -0.5178
13153TIP3   OH260873   0.797   5.970   2.017  0.0067 -0.0314  0.5013
13153TIP3    H160874   0.710   5.935   2.038  0.7734 -1.7312  0.9809
13153TIP3    H260875   0.843   5.897   1.976  0.2736  1.7213 -2.4310
13154TIP3   OH260876   5.028   1.331  14.845  0.0940 -0.2704  1.0943
13154TIP3    H160877   5.011   1.240  14.870 -0.0755 -0.5111  0.1382
13154TIP3    H260878   5.099   1.325  14.781  0.1011  0.2748  1.0535
13155TIP3   OH260879   3.698   4.618   1.191  0.0456  0.2686 -0.1385
13155TIP3    H160880   3.606   4.598   1.207  0.0912  0.8869  0.8921
13155TIP3    H260881   3.739   4.532   1.179 -0.4435 -0.0675  0.5840
13156TIP3   OH260882   2.752   4.519   0.305 -0.2176  0.3294 -0.0502
13156TIP3    H160883   2.810   4.596   0.303 -0.5655  0.6221  1.1517
13156TIP3    H260884   2.704   4.527   0.387 -2.2282  0.2860 -1.1751
13157TIP3   OH260885   3.519   0.875   4.084  0.1454 -0.5030  0.3479
13157TIP3    H160886   3.429   0.844   4.072  0.4029 -0.7591 -0.9545
13157TIP3    H260887   3.529   0.946   4.022  1.7440 -2.3614 -1.6148
13158TIP3   OH260888   4.466   6.764  14.063  0.4845  0.2252  0.5910
13158TIP3    H160889   4.397   6.746  14.000 -0.4629 -2.0460  2.1915
13158TIP3    H260890   4.532   6.815  14.015 -0.7832 -0.3949 -1.8241
13159TIP3   OH260891   4.491   0.045   3.877 -0.2046  0.0135  0.2207
13159TIP3    H160892   4.396   0.057   3.884 -0.2794  0.7168 -1.7105
13159TIP3    H260893   4.528   0.132   3.892  0.0912 -0.1001  0.1616
13160TIP3   OH260894   5.013   0.828  14.956 -0.1648  0.7907  0.0985
13160TIP3    H160895   4.979   0.745  14.925 -0.7149  1.9612 -2.5202
13160TIP3    H260896   5.107   0.813  14.969 -0.4690 -0.5529  0.8330
13161TIP3   OH260897   1.023   4.416   3.457 -0.2843  0.9391  0.2925
13161TIP3    H160898   1.072   4.412   3.539  0.0118  1.0601  0.1231
13161TIP3    H260899   1.030   4.328   3.421 -0.3160  0.9165  0.3408
13162TIP3   OH260900   5.084   0.605   0.402 -0.0747 -0.5785 -0.4832
13162TIP3    H160901   5.064   0.695   0.428 -0.0745 -0.6117 -0.3692
13162TIP3    H260902   5.002   0.557   0.416  0.1750 -0.7903  0.3124
13163TIP3   OH260903   6.077   2.735   1.336 -0.8159 -0.1474 -0.4062
13163TIP3    H160904   6.014   2.724   1.407 -0.5922  0.2119 -0.1535
13163TIP3    H260905   6.053   2.667   1.273 -1.0100 -0.4697  0.0129
13164TIP3   OH260906   4.177   7.053   3.283  0.4363 -0.2241  0.2097
13164TIP3    H160907   4.252   7.020   3.233 -0.6163 -0.6693 -1.1134
13164TIP3    H260908   4.200   7.035   3.374  1.7782 -0.6967 -0.2012
13165TIP3   OH260909   5.775   0.057  15.254  0.6717 -0.2300 -0.2408
13165TIP3    H160910   5.691   0.071  15.298  0.1584 -1.2521 -0.8782
13165TIP3    H260911   5.825   0.003  15.315  0.7111  0.0395 -0.0354
13166TIP3   OH260912   7.105   5.869  12.812  0.2753  0.0418  0.3098
13166TIP3    H160913   7.080   5.808  12.881  0.4308  0.3871  0.6715
13166TIP3    H260914   7.080   5.955  12.845  0.2639  0.1976 -0.1037
13167TIP3   OH260915   3.504   6.294  13.568 -0.0013 -0.1660  0.2222
13167TIP3    H160916   3.553   6.368  13.604 -0.8346  0.0918  0.8407
13167TIP3    H260917   3.570   6.239  13.527  0.4334  1.8385 -1.8851
13168TIP3   OH260918   5.949   0.017   2.441 -0.5148  0.0924 -0.5184
13168TIP3    H160919   6.029   0.055   2.475 -0.3779  0.8412 -1.6637
13168TIP3    H260920   5.932   0.064   2.359 -1.5719 -0.7395 -0.7974
13169TIP3   OH260921   5.129   5.492   3.687 -0.5367 -0.2530 -0.3903
13169TIP3    H160922   5.162   5.574   3.723 -3.6262  0.3879  1.1294
13169TIP3    H260923   5.148   5.498   3.593  0.4170  1.6258 -0.1043
13170TIP3   OH260924   2.258   2.187   1.810  0.3983  0.2159  0.5331
13170TIP3    H160925   2.193   2.205   1.742  1.9336  0.2236 -0.9683
13170TIP3    H260926   2.227   2.107   1.852  0.5716 -1.0398 -1.6574
13171TIP3   OH260927   5.817   4.486   3.058  0.0010 -0.4098 -0.3928
13171TIP3    H160928   5.724   4.471   3.038  0.1039 -0.4044 -0.8583
13171TIP3    H260929   5.818   4.499   3.153 -0.4300 -0.7662 -0.3347
13172TIP3   OH260930   3.123   0.831   1.314 -0.0030  0.0529 -0.0316
13172TIP3    H160931   3.207   0.812   1.272  0.5315  0.5098  0.8213
13172TIP3    H260932   3.109   0.758   1.374 -0.4451 -0.2554 -0.5006
13173TIP3   OH260933   1.508   2.386  15.513  0.4195 -0.4513 -0.3756
13173TIP3    H160934   1.418   2.395  15.545  0.1918  0.2765 -1.2003
13173TIP3    H260935   1.510   2.437  15.432  1.1661 -1.7094 -1.1753
13174TIP3   OH260936   4.931   3.561  15.185 -0.3302 -0.3707 -0.0024
13174TIP3    H160937   4.887   3.478  15.171 -2.0974  0.4551  0.4500
13174TIP3    H260938   4.974   3.551  15.270 -1.4264 -0.4603  0.5492
13175TIP3   OH260939   3.975   3.641   1.943  0.0301 -0.1931 -0.0528
13175TIP3    H160940   3.957   3.589   2.022  1.9908  1.0288  1.2265
13175TIP3    H260941   3.892   3.687   1.927 -0.0358  0.5061  2.0435
13176TIP3   OH260942   3.597   7.059   0.562 -0.1708 -0.1521  0.8952
13176TIP3    H160943   3.573   7.144   0.526 -1.1549 -0.3080  1.1513
13176TIP3    H260944   3.514   7.021   0.591  0.1640 -1.4498  0.2287
13177TIP3   OH260945   3.299   3.896  14.877 -0.1899 -0.1073 -0.1211
13177TIP3    H160946   3.327   3.955  14.807  1.3572  0.1722  0.7082
13177TIP3    H260947   3.332   3.936  14.957  1.8723 -2.6390  0.3671
13178TIP3   OH260948   6.955   5.304   0.644  0.1272  0.1216  0.3271
13178TIP3    H160949   7.037   5.343   0.613  0.4048  0.9275  2.0283
13178TIP3    H260950   6.925   5.362   0.713 -2.1790  0.1157 -0.6229
13179TIP3   OH260951   2.537   2.249   2.551 -0.1473  0.0135 -0.1748
13179TIP3    H160952   2.454   2.221   2.590 -0.7384  0.5545 -1.0118
13179TIP3    H260953   2.511   2.304   2.477  0.9669  0.4686 -0.2383
13180TIP3   OH260954   6.150   5.972   2.327 -0.2680  0.1434 -0.0279
13180TIP3    H160955   6.183   6.000   2.413  0.6608 -1.9511  0.3337
13180TIP3    H260956   6.212   5.905   2.298 -0.4298  1.0069 -2.4877
13181TIP3   OH260957   4.467   6.085   2.867  0.3330  0.6920 -0.5482
13181TIP3    H160958   4.499   5.996   2.884  0.5688  0.7903 -0.4815
13181TIP3    H260959   4.403   6.101   2.936  0.3152  0.5879 -0.5399
13182TIP3   OH260960   1.478   4.199   4.779  0.1428  0.1855 -0.0371
13182TIP3    H160961   1.396   4.225   4.820 -0.0272  0.5444 -0.5952
13182TIP3    H260962   1.531   4.279   4.779  0.8175 -0.2545  1.0922
13183TIP3   OH260963   1.109   5.687   5.126  0.0038  0.1361  0.3158
13183TIP3    H160964   1.016   5.685   5.102  0.2712 -0.1300 -0.7547
13183TIP3    H260965   1.150   5.622   5.068  0.8444  0.2157  0.8129
13184TIP3   OH260966   0.799   4.687   1.020  0.5048  0.4653 -0.2329
13184TIP3    H160967   0.722   4.659   0.972 -0.7232  1.0065  1.3547
13184TIP3    H260968   0.853   4.609   1.027  0.1453  0.0993 -1.4357
13185TIP3   OH260969   0.236   4.923   2.410  0.5564 -0.2225 -0.2703
13185TIP3    H160970   0.255   4.975   2.488  0.4363 -1.1765  0.3970
13185TIP3    H260971   0.305   4.946   2.348  0.6339  0.5571  0.0956
13186TIP3   OH260972   0.742   3.505  15.183  0.1325  0.2156  0.4467
13186TIP3    H160973   0.669   3.450  15.211 -0.8427  0.1316 -2.1463
13186TIP3    H260974   0.759   3.563  15.258 -0.0288 -2.3517  2.5145
13187TIP3   OH260975   4.758   5.168   2.439  1.2128  0.1373  0.2880
13187TIP3    H160976   4.832   5.189   2.381  1.3429  0.4679  0.5727
13187TIP3    H260977   4.748   5.073   2.431  0.1670  0.3772 -1.5495
13188TIP3   OH260978   1.804   5.877  12.954 -0.0116  0.2654  0.0558
13188TIP3    H160979   1.878   5.824  12.925 -0.1099 -0.3644  0.9104
13188TIP3    H260980   1.793   5.944  12.887  1.1945  0.2301 -0.1743
13189TIP3   OH260981   4.399   0.277   4.187  0.0085  0.3656  0.2063
13189TIP3    H160982   4.329   0.211   4.196  0.2975 -0.0374 -0.4173
13189TIP3    H260983   4.474   0.238   4.232  0.4698 -0.1795 -1.0055
13190TIP3   OH260984   4.228   3.449   1.086  0.2393  0.6792 -0.5789
13190TIP3    H160985   4.233   3.407   1.172  1.4431  1.5874 -0.1883
13190TIP3    H260986   4.168   3.394   1.036 -1.6152  0.9442  1.2871
13191TIP3   OH260987   5.356   6.597   0.796 -0.2238 -0.4630  0.0062
13191TIP3    H160988   5.262   6.594   0.776 -0.4533 -2.0509  1.2547
13191TIP3    H260989   5.381   6.505   0.808  0.9792  0.1002  1.9846
13192TIP3   OH260990   7.083   1.730   0.333  0.0395 -0.0634 -0.5250
13192TIP3    H160991   7.041   1.796   0.388  0.3053 -0.4701  0.1878
13192TIP3    H260992   7.154   1.695   0.388 -0.2007 -1.0449 -0.8193
13193TIP3   OH260993   2.176   0.967   1.507 -0.2023  0.5318 -0.2247
13193TIP3    H160994   2.221   0.960   1.592 -0.1441 -1.5841 -0.3844
13193TIP3    H260995   2.243   1.000   1.447  1.0956 -2.1838 -0.3624
13194TIP3   OH260996   3.571   6.135  14.149 -0.5128 -0.3673  0.0909
13194TIP3    H160997   3.550   6.157  14.240  0.1281 -0.4323  0.2536
13194TIP3    H260998   3.518   6.197  14.097  1.9161  2.1886  0.5433
13195TIP3   OH260999   5.269   0.085   2.091  0.4138  0.2818  0.5788
13195TIP3    H161000   5.359   0.072   2.062  0.3862 -0.8096  0.9565
13195TIP3    H261001   5.238   0.160   2.039  1.5034  0.6246  0.4007
13196TIP3   OH261002   5.261   5.553   1.537  0.5095 -0.0476  0.9188
13196TIP3    H161003   5.192   5.515   1.592 -0.4270  0.1148 -0.1177
13196TIP3    H261004   5.311   5.609   1.596  0.1790 -0.7170  1.8399
13197TIP3   OH261005   5.767   0.146   4.059 -0.6664 -0.4673 -0.3420
13197TIP3    H161006   5.738   0.232   4.029  2.5210  0.9108  0.2790
13197TIP3    H261007   5.766   0.092   3.980 -1.2985  0.5659 -1.0579
13198TIP3   OH261008   2.370   5.955  14.767 -0.4865 -0.3165 -0.3005
13198TIP3    H161009   2.441   5.899  14.800 -0.4038  0.4780  0.8738
13198TIP3    H261010   2.324   5.984  14.845 -2.4396 -1.2265 -1.0979
13199TIP3   OH261011   6.240   6.293   3.718 -0.3014 -0.7908 -0.1054
13199TIP3    H161012   6.175   6.237   3.676 -2.6743  1.0617  0.9744
13199TIP3    H261013   6.218   6.381   3.688 -1.1834  0.4100  3.8210
13200TIP3   OH261014   6.787   3.713   4.125  0.5336  0.1586  0.1472
13200TIP3    H161015   6.697   3.732   4.151  1.0292  1.6999  0.7870
13200TIP3    H261016   6.779   3.671   4.039 -0.7443  0.8517 -0.0775
13201TIP3   OH261017   3.961   6.113   0.414 -0.3324 -0.7014 -0.5389
13201TIP3    H161018   3.996   6.186   0.464 -0.8883 -0.1699 -0.9092
13201TIP3    H261019   4.019   6.104   0.339 -1.6263  0.9428 -1.7814
13202TIP3   OH261020   0.162   6.408   0.571 -0.3235 -0.0967 -0.1664
13202TIP3    H161021   0.094   6.342   0.588  0.2919 -0.7518 -0.2441
13202TIP3    H261022   0.114   6.483   0.535 -0.8149 -1.1591 -1.7724
13203TIP3   OH261023   2.099   6.125   2.495 -0.1447  0.1391  0.0580
13203TIP3    H161024   2.018   6.121   2.444 -0.6240 -1.2307  0.8989
13203TIP3    H261025   2.168   6.134   2.429 -0.8712 -0.0313 -0.7397
13204TIP3   OH261026   7.002   4.067  14.645 -0.2001  0.6297  0.1820
13204TIP3    H161027   6.938   4.089  14.577  0.3843  0.0074 -0.5745
13204TIP3    H261028   7.076   4.029  14.597  1.4821  2.9179  0.8735
13205TIP3   OH261029   4.208   4.680   4.083 -0.3637  0.8953  0.3566
13205TIP3    H161030   4.231   4.617   4.014 -1.4016 -0.0283  0.8274
13205TIP3    H261031   4.292   4.713   4.114  0.3881 -2.4668  2.1038
13206TIP3   OH261032   3.111   1.025   3.234  0.1608  0.2134 -0.0454
13206TIP3    H161033   3.115   1.092   3.303  0.0532 -0.1834  0.3510
13206TIP3    H261034   3.165   0.953   3.268 -2.3450 -1.2463  1.0065
13207TIP3   OH261035   2.759   1.289   1.341  0.0683  0.3231 -0.3032
13207TIP3    H161036   2.748   1.382   1.361 -1.9658 -0.2782  1.5796
13207TIP3    H261037   2.813   1.256   1.413 -2.8239 -0.7714  1.4572
13208TIP3   OH261038   2.394   6.398   1.970 -0.7352  0.4556 -0.5080
13208TIP3    H161039   2.359   6.484   1.991 -2.3725 -0.4025  0.3896
13208TIP3    H261040   2.457   6.379   2.040  0.3787  1.3270 -1.2555
13209TIP3   OH261041   4.030   7.069   0.369 -0.0433  0.1125  0.5091
13209TIP3    H161042   3.946   7.029   0.390  0.4727 -0.9029  0.6601
13209TIP3    H261043   4.025   7.090   0.276 -0.6554  0.5309  0.6363
13210TIP3   OH261044   1.975   6.451   3.553  0.2859  0.5300 -0.1088
13210TIP3    H161045   1.980   6.535   3.506 -0.2250  1.7345  1.9451
13210TIP3    H261046   1.971   6.386   3.483  3.2444  2.0024 -1.7772
13211TIP3   OH261047   2.087   0.877  12.495 -0.2809 -0.7108 -0.3382
13211TIP3    H161048   2.177   0.909  12.499 -0.0881 -1.3640  1.1948
13211TIP3    H261049   2.073   0.834  12.580 -2.1492 -0.3245 -0.4195
13212TIP3   OH261050   2.707   3.418   0.575 -0.4048 -0.2343 -0.2883
13212TIP3    H161051   2.628   3.445   0.621  0.1394  0.1842  0.4121
13212TIP3    H261052   2.677   3.396   0.486 -1.5147 -1.4236  0.3626
13213TIP3   OH261053   0.081   1.489  13.978  0.5019 -0.3046 -0.0504
13213TIP3    H161054   0.067   1.395  13.988 -0.7308 -0.0201  0.9129
13213TIP3    H261055  -0.002   1.529  14.002  1.3210  1.0935  0.5439
13214TIP3   OH261056   2.854   2.542   0.565 -0.4107  0.0147  0.0436
13214TIP3    H161057   2.787   2.485   0.528  0.0714 -0.4206 -0.1811
13214TIP3    H261058   2.845   2.625   0.518  0.2229 -0.5454 -1.0872
13215TIP3   OH261059   2.392   5.178  14.891  0.0708 -0.3813  0.2454
13215TIP3    H161060   2.400   5.091  14.930  2.3041  0.3322  1.4864
13215TIP3    H261061   2.408   5.238  14.964 -0.4829  1.0537 -0.7996
13216TIP3   OH261062   4.086   5.076  13.627 -0.1253 -0.5878  0.0033
13216TIP3    H161063   4.102   5.124  13.708  0.0516  1.3999 -1.1901
13216TIP3    H261064   4.056   4.990  13.656 -1.0789  0.4448  2.1830
13217TIP3   OH261065   0.799   4.584   0.100  0.6092  0.4633 -0.3994
13217TIP3    H161066   0.826   4.586   0.192 -2.4083 -0.6617  0.5947
13217TIP3    H261067   0.782   4.675   0.077  1.7125  0.7839  0.0452
13218TIP3   OH261068   3.567   0.676  13.227  0.0709 -0.1698  1.3015
13218TIP3    H161069   3.486   0.724  13.240 -1.7217 -2.2292 -1.6583
13218TIP3    H261070   3.550   0.588  13.261  0.7910 -0.8128  0.0817
13219TIP3   OH261071   6.154   5.347   2.073  0.1139 -0.5230 -0.1298
13219TIP3    H161072   6.114   5.434   2.072 -0.5011 -0.8145 -1.5668
13219TIP3    H261073   6.154   5.321   2.165 -0.4114  0.6640  0.2069
13220TIP3   OH261074   5.876   6.402   1.435  0.5478 -0.0367  0.1365
13220TIP3    H161075   5.902   6.427   1.524  0.9095  0.5859 -0.1381
13220TIP3    H261076   5.939   6.334   1.410  0.3457 -0.3271  0.4189
13221TIP3   OH261077   6.302   4.910   0.049  0.3296  0.6975 -0.0602
13221TIP3    H161078   6.270   4.990   0.091 -1.3613 -0.0233  0.0523
13221TIP3    H261079   6.230   4.881  -0.007  1.0313 -0.5989 -0.3120
13222TIP3   OH261080   0.283   0.030   0.020 -0.4751  0.1184 -0.1564
13222TIP3    H161081   0.199  -0.015   0.007 -1.3403  1.4479  0.5967
13222TIP3    H261082   0.346  -0.039   0.036 -1.6229 -0.8536  0.2070
13223TIP3   OH261083   4.921   5.407   9.989 -0.5122 -0.2146  0.3489
13223TIP3    H161084   4.998   5.432  10.040 -1.1635  1.0700  0.7214
13223TIP3    H261085   4.953   5.343   9.926  1.1704  1.4183 -0.4880
13224TIP3   OH261086   3.555   4.757   3.543  0.1415 -0.1520  0.3737
13224TIP3    H161087   3.519   4.771   3.630  0.0607  0.7282  0.2058
13224TIP3    H261088   3.645   4.727   3.558 -0.3239 -1.3822  0.7723
13225TIP3   OH261089   2.914   6.746  14.379 -0.0298  0.3078  0.8177
13225TIP3    H161090   2.850   6.683  14.412  1.2172 -1.1710  0.4083
13225TIP3    H261091   2.945   6.792  14.458 -0.3740 -0.0938  1.1892
13226TIP3   OH261092   1.512   4.363  12.948 -0.1075 -0.1370 -0.0339
13226TIP3    H161093   1.476   4.316  12.872  1.7791  0.5500 -1.3757
13226TIP3    H261094   1.591   4.405  12.915 -0.5319  2.1247  1.7231
13227TIP3   OH261095   2.809   6.709   1.631  0.1171 -0.1527 -0.0633
13227TIP3    H161096   2.751   6.709   1.707  2.0624  1.3813  1.4969
13227TIP3    H261097   2.871   6.638   1.649  1.4661  1.1587  0.5121
13228TIP3   OH261098   3.029   3.048  13.645  0.0232  0.3393  0.5969
13228TIP3    H161099   3.050   3.000  13.565  0.0033  2.6943 -0.8599
13228TIP3    H261100   3.033   3.140  13.620 -0.8004  1.1053  3.1103
13229TIP3   OH261101   4.421   0.262   5.061 -0.1192  0.0587  0.1762
13229TIP3    H161102   4.458   0.349   5.048  0.2046 -0.0490  0.3630
13229TIP3    H261103   4.464   0.229   5.141  1.7031 -1.3159 -1.3153
13230TIP3   OH261104   3.149   6.773  14.866 -0.6561  0.2372 -0.0617
13230TIP3    H161105   3.111   6.792  14.781 -0.9458 -1.2015 -0.2636
13230TIP3    H261106   3.239   6.807  14.861 -0.1960 -1.1250 -1.4605
13231TIP3   OH261107   4.331   1.766   3.723 -0.6109  0.2146  0.2606
13231TIP3    H161108   4.327   1.845   3.776  1.1751  1.2258 -1.0576
13231TIP3    H261109   4.412   1.723   3.749 -1.0704 -0.6680  0.2529
13232TIP3   OH261110   0.518   2.111   1.906  0.0535 -0.9526 -0.6484
13232TIP3    H161111   0.610   2.135   1.920  0.0032 -0.5114 -1.0646
13232TIP3    H261112   0.518   2.067   1.821  0.1725 -2.5795  0.1790
13233TIP3   OH261113   4.526   0.862   3.302  0.1347  0.6428 -0.4144
13233TIP3    H161114   4.600   0.915   3.272  0.6055  0.9267  1.1995
13233TIP3    H261115   4.526   0.874   3.397 -1.5557  0.0791 -0.3411
13234TIP3   OH261116   4.499   0.459   3.360  0.8012 -0.5454  0.5837
13234TIP3    H161117   4.539   0.450   3.446  0.6399  0.0233  0.7196
13234TIP3    H261118   4.535   0.387   3.309 -1.0898 -2.4413  1.8877
13235TIP3   OH261119   5.447   5.763   5.546 -0.0397  0.1385 -0.1446
13235TIP3    H161120   5.390   5.800   5.613 -2.7097 -3.7324 -0.1309
13235TIP3    H261121   5.511   5.712   5.596  1.5000  1.7855 -0.3538
13236TIP3   OH261122   0.248   4.284   4.200 -0.1289  0.0121  0.5051
13236TIP3    H161123   0.189   4.257   4.270  0.7690  0.0046  1.2772
13236TIP3    H261124   0.325   4.319   4.246  0.6615 -0.4051 -0.4727
13237TIP3   OH261125   2.677   0.797   4.866 -0.3615 -0.2867  0.6438
13237TIP3    H161126   2.614   0.781   4.796  2.1467  1.7191 -2.2162
13237TIP3    H261127   2.631   0.854   4.927 -1.6355  0.4103 -0.9283
13238TIP3   OH261128   2.538   0.267   0.855  0.2067  0.2705  0.5149
13238TIP3    H161129   2.455   0.230   0.885 -0.2458  1.5085  0.7815
13238TIP3    H261130   2.535   0.258   0.760 -0.1125  0.0710  0.5408
13239TIP3   OH261131   0.613   4.574  14.781 -0.1373  0.3286 -0.0987
13239TIP3    H161132   0.539   4.625  14.813  0.2515  0.4904  0.5623
13239TIP3    H261133   0.632   4.610  14.694 -0.7663  0.3536 -0.2230
13240TIP3   OH261134   2.905   6.551   2.926 -0.3932  0.3267 -0.1085
13240TIP3    H161135   2.874   6.536   2.837 -0.9710 -0.9104  0.2831
13240TIP3    H261136   2.833   6.596   2.969  0.5592  2.5252 -0.7216
13241TIP3   OH261137   2.418   1.670   1.053 -0.1606  0.6391  0.5620
13241TIP3    H161138   2.426   1.608   1.125  1.8619  0.9540  0.6658
13241TIP3    H261139   2.403   1.616   0.975 -1.3407  0.2304  1.0697
13242TIP3   OH261140   3.989   5.744   1.609  0.0999 -0.6436  0.1568
13242TIP3    H161141   3.981   5.783   1.522 -0.9266 -1.3853 -0.0980
13242TIP3    H261142   3.933   5.797   1.665  1.2136  0.1868  0.4991
13243TIP3   OH261143   4.552   2.830  12.578  0.3477  0.1544 -0.0276
13243TIP3    H161144   4.636   2.834  12.625 -0.7023  0.3559  1.8560
13243TIP3    H261145   4.525   2.739  12.586 -0.7702  0.5961  1.4660
13244TIP3   OH261146   3.389   5.558   1.787  0.5932 -0.1556 -0.4239
13244TIP3    H161147   3.395   5.618   1.861 -0.8745  2.0068 -1.9884
13244TIP3    H261148   3.461   5.583   1.730  1.1005 -1.1416 -0.2257
13245TIP3   OH261149   3.195   6.441  15.332  0.6720 -0.6441 -0.4758
13245TIP3    H161150   3.114   6.394  15.313  2.2257 -2.8778 -1.8141
13245TIP3    H261151   3.171   6.534  15.329 -2.0655 -1.2873  0.3570
13246TIP3   OH261152   7.002   4.686   2.741  0.0896  0.0806 -0.1122
13246TIP3    H161153   7.018   4.617   2.806  2.6247 -1.1828 -1.9868
13246TIP3    H261154   7.082   4.687   2.687 -1.5158  1.7997 -2.5509
13247TIP3   OH261155   6.027   1.769   2.810  0.3191  0.2102 -0.2693
13247TIP3    H161156   6.073   1.793   2.890  1.3165 -0.8990 -0.4801
13247TIP3    H261157   6.033   1.673   2.807 -1.2997  0.1162 -0.7350
13248TIP3   OH261158   6.300   0.699   0.086 -0.1322  0.0941 -0.4210
13248TIP3    H161159   6.292   0.776   0.142  0.1501  0.9203 -1.4965
13248TIP3    H261160   6.288   0.732  -0.003 -4.0325 -1.7017 -0.6795
13249TIP3   OH261161   0.159   5.716  12.595  0.3060  0.0442 -0.0934
13249TIP3    H161162   0.226   5.680  12.653  1.1734  0.3471 -0.8931
13249TIP3    H261163   0.163   5.811  12.609 -0.3984  0.0155  0.3251
13250TIP3   OH261164   6.046   5.138   0.517  0.2007  0.3523 -0.5140
13250TIP3    H161165   6.025   5.145   0.610 -0.6513 -0.4398 -0.6283
13250TIP3    H261166   6.072   5.226   0.491 -2.8100  1.3741 -0.2731
13251TIP3   OH261167   3.080   6.461   0.799  0.3221 -0.2567 -0.2220
13251TIP3    H161168   3.096   6.367   0.801 -0.7330 -0.4587 -0.5492
13251TIP3    H261169   3.145   6.498   0.858  0.6761 -1.2043 -0.0039
13252TIP3   OH261170   1.936   5.509   5.875 -0.3859 -0.5981  0.0656
13252TIP3    H161171   1.932   5.413   5.872 -0.9567 -0.5423 -1.9681
13252TIP3    H261172   1.847   5.536   5.899 -0.2545 -0.5761  0.5255
13253TIP3   OH261173   0.999   4.671   3.018 -0.9949  0.0814  0.2563
13253TIP3    H161174   0.914   4.668   2.973 -0.0540  0.3367 -1.5765
13253TIP3    H261175   0.977   4.692   3.109 -2.9276 -0.2286 -0.1200
13254TIP3   OH261176   0.822   0.878  14.150  0.1826  0.1356 -0.4379
13254TIP3    H161177   0.892   0.818  14.176  0.3715  0.4220 -0.2895
13254TIP3    H261178   0.836   0.956  14.204 -1.3975 -0.5364  0.9778
13255TIP3   OH261179   2.777   1.228  14.415 -0.1886  0.4224  0.2580
13255TIP3    H161180   2.826   1.308  14.395 -1.0650  1.0687  0.6620
13255TIP3    H261181   2.717   1.254  14.484 -0.6343 -0.5425  0.2371
13256TIP3   OH261182   4.584   6.636   1.874 -0.3151 -0.0589  0.1380
13256TIP3    H161183   4.606   6.544   1.887 -0.0653  0.0209  0.2814
13256TIP3    H261184   4.597   6.676   1.960 -0.3333  0.1282  0.0540
13257TIP3   OH261185   5.879   3.826  14.829 -0.1380 -0.6068 -0.0780
13257TIP3    H161186   5.939   3.900  14.820  1.6568 -1.9906  0.1674
13257TIP3    H261187   5.861   3.800  14.739 -1.0568  0.3391 -0.1753
13258TIP3   OH261188   0.120   5.988   3.057  0.4907  0.0639  0.4275
13258TIP3    H161189   0.035   5.980   3.014 -0.0031  2.0600  0.9653
13258TIP3    H261190   0.170   5.912   3.028 -1.0811 -0.5005 -0.8126
13259TIP3   OH261191   4.172   1.858   2.068  0.0592 -0.0043  0.7643
13259TIP3    H161192   4.186   1.809   2.149  1.2662 -0.2094  0.4444
13259TIP3    H261193   4.185   1.793   1.999 -1.0396  0.1502  0.4045
13260TIP3   OH261194   6.141   1.143   2.126 -0.1749  0.0400  0.2111
13260TIP3    H161195   6.049   1.157   2.103 -0.1660  0.7854  0.6437
13260TIP3    H261196   6.154   1.048   2.115 -1.1299 -0.1448  0.6681
13261TIP3   OH261197   5.798   5.247   2.177 -0.3228 -0.0225  0.3756
13261TIP3    H161198   5.816   5.338   2.200 -0.8414  0.0342  0.5473
13261TIP3    H261199   5.703   5.241   2.173 -0.4564 -1.4848  4.0889
13262TIP3   OH261200   1.048   0.417   0.470 -0.7067  0.2079  0.4648
13262TIP3    H161201   1.029   0.497   0.422 -1.9698 -1.7293 -2.3894
13262TIP3    H261202   0.962   0.385   0.499 -0.1664  0.1762  2.0792
13263TIP3   OH261203   6.459   3.513  13.070  0.3618  0.5859 -0.0342
13263TIP3    H161204   6.434   3.456  13.143 -1.0190  0.9512 -0.1999
13263TIP3    H261205   6.416   3.474  12.994  0.0232  1.4133 -0.2752
13264TIP3   OH261206   4.340   7.081  15.402 -0.0065 -0.1284 -0.0201
13264TIP3    H161207   4.406   7.039  15.347  1.8930 -1.5504  3.2198
13264TIP3    H261208   4.389   7.138  15.460 -1.6737 -0.4865  1.8046
13265TIP3   OH261209   3.404   1.860   3.838 -0.2671 -0.1524 -0.0415
13265TIP3    H161210   3.343   1.792   3.867 -0.4812  0.2423  0.4509
13265TIP3    H261211   3.368   1.941   3.876  0.3571  0.1345 -0.0634
13266TIP3   OH261212   1.853   6.077   0.892 -0.0183 -0.1193 -0.0578
13266TIP3    H161213   1.801   6.002   0.863  0.5821  0.2952 -2.3695
13266TIP3    H261214   1.857   6.069   0.987 -1.2992 -2.1233 -0.1431
13267TIP3   OH261215   4.616   5.877  14.762 -0.1616 -0.0818 -0.3159
13267TIP3    H161216   4.647   5.965  14.785  1.2094 -0.9165  1.0694
13267TIP3    H261217   4.678   5.846  14.696  0.0643 -0.4778  0.0782
13268TIP3   OH261218   2.841   6.887   4.728  0.1813 -0.1863 -0.2556
13268TIP3    H161219   2.748   6.870   4.718 -0.1174  1.3238 -0.1257
13268TIP3    H261220   2.881   6.800   4.734 -1.1844 -0.8390 -0.5393
13269TIP3   OH261221   6.736   3.820   0.867 -0.8168 -0.0316  0.0600
13269TIP3    H161222   6.694   3.797   0.784 -0.6800 -0.9081  0.2235
13269TIP3    H261223   6.683   3.777   0.934 -1.3753  1.3159  0.4849
13270TIP3   OH261224   5.559   1.420   1.603 -0.5960 -0.0534  0.5248
13270TIP3    H161225   5.530   1.506   1.570 -1.7055  0.0932  1.8272
13270TIP3    H261226   5.647   1.436   1.636  0.1115  0.0411 -1.3673
13271TIP3   OH261227   0.022   4.593   0.491  0.1289 -0.7721 -0.4234
13271TIP3    H161228   0.083   4.526   0.460  2.2327  0.5600  0.6871
13271TIP3    H261229  -0.008   4.637   0.412  2.8991  0.4467 -0.8666
13272TIP3   OH261230   3.432   5.168   0.369 -0.1958  0.3049  0.3601
13272TIP3    H161231   3.489   5.132   0.437  0.7194  2.7598  0.9424
13272TIP3    H261232   3.490   5.224   0.317 -1.2704 -0.1615 -1.3926
13273TIP3   OH261233   0.244   5.584   1.293  0.2424 -0.3275  0.1187
13273TIP3    H161234   0.226   5.560   1.202 -1.6798  0.2175  0.3307
13273TIP3    H261235   0.227   5.504   1.342 -0.3856 -0.1573  0.1808
13274TIP3   OH261236   4.821   5.552   2.225 -0.5763 -0.2774 -0.1975
13274TIP3    H161237   4.888   5.601   2.179 -1.4343 -0.8732 -2.1394
13274TIP3    H261238   4.745   5.553   2.166 -1.4193 -1.8015  0.8020
13275TIP3   OH261239   3.840   6.294  11.990  0.1844 -0.0227  0.3113
13275TIP3    H161240   3.901   6.365  11.969  0.1020  0.2833  1.0738
13275TIP3    H261241   3.897   6.219  12.007  0.3241  0.1333  0.5347
13276TIP3   OH261242   3.256   6.603   2.114 -0.7580 -0.3165 -0.0243
13276TIP3    H161243   3.200   6.679   2.097  0.5562  0.2490 -2.0389
13276TIP3    H261244   3.341   6.641   2.138 -0.1438 -1.1188 -0.8655
13277TIP3   OH261245   5.446   5.453  13.451 -0.2851 -0.6042  0.5443
13277TIP3    H161246   5.491   5.374  13.421  0.9987  0.9077 -1.6863
13277TIP3    H261247   5.473   5.463  13.542  1.9504 -1.1129 -0.0274
13278TIP3   OH261248   5.707   3.249  14.157  0.4745  0.0344 -0.5665
13278TIP3    H161249   5.686   3.272  14.067  0.1990 -0.4211 -0.6251
13278TIP3    H261250   5.637   3.289  14.209 -0.1920 -0.9366 -0.7001
13279TIP3   OH261251   4.121   6.992  15.257 -0.2111  0.4830  0.5450
13279TIP3    H161252   4.199   6.954  15.218 -0.8412 -0.6861  0.3917
13279TIP3    H261253   4.154   7.052  15.323  0.8192  0.0471  0.4325
13280TIP3   OH261254   5.093   2.343  14.072 -0.3543  0.4887 -0.6125
13280TIP3    H161255   5.006   2.364  14.107 -0.2882  1.6714 -1.1297
13280TIP3    H261256   5.075   2.281  14.001 -0.5839 -0.9645  0.7083
13281TIP3   OH261257   2.439   7.005   0.637  0.2043 -0.0894  0.1073
13281TIP3    H161258   2.397   7.077   0.683 -0.0136 -1.2741  1.8280
13281TIP3    H261259   2.377   6.932   0.645  0.0914 -0.2825 -2.2334
13282TIP3   OH261260   2.737   5.297   3.640 -0.0543  0.3307  0.4688
13282TIP3    H161261   2.821   5.323   3.602  0.4389 -0.4616  0.9993
13282TIP3    H261262   2.675   5.306   3.568  0.5966  0.3248 -0.1041
13283TIP3   OH261263   5.651   1.501  13.110  0.2881 -0.0354 -0.5072
13283TIP3    H161264   5.709   1.537  13.043  2.6220 -1.8312  0.4884
13283TIP3    H261265   5.623   1.577  13.161 -0.5645  1.2025 -2.7492
13284TIP3   OH261266   4.491   6.769  15.318  0.4539  0.2361 -0.0336
13284TIP3    H161267   4.439   6.809  15.248 -1.0476  0.9259  1.4207
13284TIP3    H261268   4.485   6.675  15.301  0.2048  0.4019 -0.9091
13285TIP3   OH261269   1.617   4.321  15.210 -0.5116 -0.1095 -0.2576
13285TIP3    H161270   1.674   4.251  15.242  0.0932  0.2765 -0.4807
13285TIP3    H261271   1.629   4.319  15.115 -0.2157  0.5342 -0.2349
13286TIP3   OH261272   4.988   1.754  13.012  0.3882  0.1428  0.1279
13286TIP3    H161273   5.039   1.679  13.041 -1.6256 -1.1506  0.4596
13286TIP3    H261274   5.012   1.824  13.072  1.2787 -0.6235  0.6766
13287TIP3   OH261275   6.588   6.256  15.548  0.4634  0.8364 -0.1728
13287TIP3    H161276   6.605   6.275  15.640 -0.2054 -2.6153  0.7161
13287TIP3    H261277   6.514   6.313  15.526 -0.2032  0.7606  1.7766
13288TIP3   OH261278   2.679   3.295  12.117 -0.3854 -0.0638 -0.1624
13288TIP3    H161279   2.737   3.363  12.082 -0.4674  0.8439  1.4202
13288TIP3    H261280   2.597   3.306  12.069 -0.1583  0.4919 -0.4238
13289TIP3   OH261281   5.553   1.826   0.876 -0.0178 -0.0430  0.1050
13289TIP3    H161282   5.638   1.867   0.859 -0.0619  0.5984  1.3963
13289TIP3    H261283   5.532   1.781   0.794  2.3506 -1.6172  0.3129
13290TIP3   OH261284   5.741   3.546  15.536  0.1849 -0.0776 -0.6104
13290TIP3    H161285   5.660   3.583  15.502  0.6627  0.4607 -1.1510
13290TIP3    H261286   5.727   3.451  15.532 -0.6362  0.0169 -0.1711
13291TIP3   OH261287   1.001   4.025  13.682  0.1581  0.1205 -0.3910
13291TIP3    H161288   1.026   4.061  13.767  0.8370 -0.1969 -0.4536
13291TIP3    H261289   1.073   3.967  13.659  0.5178  1.0742 -1.7118
13292TIP3   OH261290   3.903   4.390   2.206 -0.0935  0.7990 -0.9937
13292TIP3    H161291   3.991   4.359   2.183 -0.2132 -0.4785  0.2074
13292TIP3    H261292   3.919   4.470   2.256  0.3625  0.8602 -1.2270
13293TIP3   OH261293   3.777   4.190  13.718  0.3175 -0.3153 -0.4218
13293TIP3    H161294   3.682   4.178  13.707  0.6714 -1.0994 -2.8895
13293TIP3    H261295   3.815   4.109  13.684  1.9423  0.5155 -0.5933
13294TIP3   OH261296   6.896   6.016   3.125  0.0136 -0.4622  0.5345
13294TIP3    H161297   6.803   5.996   3.131 -0.2057 -0.3382 -2.0136
13294TIP3    H261298   6.921   6.040   3.215 -3.2239  3.0384  0.6236
13295TIP3   OH261299   1.346   6.265   1.719  0.3339 -0.1698  0.6801
13295TIP3    H161300   1.412   6.203   1.689  0.4581 -0.0772  0.7645
13295TIP3    H261301   1.278   6.263   1.651  1.0203  0.7000 -0.0267
13296TIP3   OH261302   0.168   6.011   0.257  0.2457  0.3889  0.6291
13296TIP3    H161303   0.174   6.068   0.180  0.4318  0.5153  0.7385
13296TIP3    H261304   0.102   5.946   0.233 -1.6107  1.9665  1.3404
13297TIP3   OH261305   0.034   4.049   3.650 -0.1491 -0.0697 -0.1190
13297TIP3    H161306  -0.020   3.990   3.703  2.1575 -0.2330  2.1555
13297TIP3    H261307   0.008   4.031   3.560 -2.7252 -1.2679  0.8266
13298TIP3   OH261308   4.886   5.483  13.433  0.6318 -0.1973  0.1015
13298TIP3    H161309   4.960   5.423  13.425  0.6956  0.3654 -4.6923
13298TIP3    H261310   4.925   5.570  13.425 -0.4442  0.1132 -2.1147
13299TIP3   OH261311   6.453   4.188   3.851 -0.0199 -0.1678 -0.2607
13299TIP3    H161312   6.502   4.108   3.867  1.4743  0.5704 -0.9512
13299TIP3    H261313   6.467   4.206   3.758  0.3776  1.3449  0.0801
13300TIP3   OH261314   5.676   1.968   1.449  0.3182 -1.0421 -0.0412
13300TIP3    H161315   5.620   2.042   1.424 -0.2218 -1.3912  0.1215
13300TIP3    H261316   5.614   1.902   1.482  1.1091  0.0341  3.8246
13301TIP3   OH261317   2.762   5.652  13.445  0.1178  0.2465 -0.1426
13301TIP3    H161318   2.788   5.584  13.383  1.9133 -1.4921  2.4241
13301TIP3    H261319   2.759   5.608  13.529 -1.0979  2.8241  1.2135
13302TIP3   OH261320   6.316   5.304   0.040 -0.8255 -1.0765  0.0089
13302TIP3    H161321   6.369   5.226   0.025 -1.8250 -1.4373 -1.7429
13302TIP3    H261322   6.278   5.291   0.127 -1.5972 -2.8977 -0.5850
13303TIP3   OH261323   0.944   3.781  14.929  0.0672  0.1697 -0.5251
13303TIP3    H161324   0.983   3.839  14.863 -1.6099 -0.7433 -2.3670
13303TIP3    H261325   0.862   3.824  14.953  0.3772  0.1825  0.5559
13304TIP3   OH261326   1.222   0.406   1.895 -0.3315  0.2660 -0.2929
13304TIP3    H161327   1.158   0.473   1.919 -0.1626  0.1487  0.4934
13304TIP3    H261328   1.204   0.388   1.803 -0.7736  0.9564 -0.3486
13305TIP3   OH261329   6.969   5.758  14.871  0.3292  0.6701  0.0429
13305TIP3    H161330   6.988   5.760  14.777 -1.2060  0.5171 -0.2905
13305TIP3    H261331   6.916   5.836  14.886 -0.4009  0.0853  0.5523
13306TIP3   OH261332   2.502   6.199   2.200 -0.1591  0.0858 -0.4486
13306TIP3    H161333   2.548   6.283   2.207  0.5047 -0.4456  2.0035
13306TIP3    H261334   2.546   6.153   2.129  0.3389  1.2909 -0.9301
13307TIP3   OH261335   2.582   3.966   0.296  0.2140 -0.2849 -0.1552
13307TIP3    H161336   2.636   4.026   0.348  0.1758 -1.6620  1.5108
13307TIP3    H261337   2.612   3.879   0.322  0.7593 -1.0104 -3.0694
13308TIP3   OH261338   0.511   6.129   1.204 -0.3968 -0.1715  0.6750
13308TIP3    H161339   0.417   6.110   1.207 -0.4798 -0.0299 -0.9740
13308TIP3    H261340   0.549   6.069   1.269 -1.3065 -2.1323 -0.5535
13309TIP3   OH261341   6.028   0.896  15.313 -0.1251 -0.7446  0.5665
13309TIP3    H161342   5.956   0.891  15.376 -0.6125 -3.1598 -0.1605
13309TIP3    H261343   5.991   0.864  15.231  1.0233  0.6484 -0.5291
13310TIP3   OH261344   7.110   7.083   1.003  0.5761 -0.0210 -0.0037
13310TIP3    H161345   7.149   7.065   0.918  0.2439  0.9419 -0.3713
13310TIP3    H261346   7.049   7.011   1.018  0.1726  0.1377 -0.8647
13311TIP3   OH261347   0.593   2.223  15.016 -0.5261 -0.2902  0.8973
13311TIP3    H161348   0.674   2.207  14.968 -0.3292 -0.0320  1.1409
13311TIP3    H261349   0.524   2.220  14.950 -0.2596  0.0392  0.6059
13312TIP3   OH261350   5.304   6.436   1.945 -0.0106  0.1675  0.4069
13312TIP3    H161351   5.380   6.438   2.003  0.6483  0.8519 -0.4606
13312TIP3    H261352   5.294   6.526   1.915  1.4232 -0.6689 -2.7780
13313TIP3   OH261353   1.711   4.975  15.390  0.1248 -0.6703  0.3453
13313TIP3    H161354   1.712   5.007  15.300  1.0863 -2.0639 -0.1546
13313TIP3    H261355   1.623   4.939  15.402  0.2338 -1.1371 -0.2674
13314TIP3   OH261356   6.004   2.247  15.136  0.0004  0.1218 -0.1489
13314TIP3    H161357   6.034   2.169  15.182 -0.7291 -0.1130 -0.0662
13314TIP3    H261358   6.081   2.279  15.090  0.2453 -0.7725 -0.3651
13315TIP3   OH261359   5.276   6.874   0.800 -0.2080 -0.0632 -0.2285
13315TIP3    H161360   5.344   6.933   0.767 -0.1539  0.5414  0.9556
13315TIP3    H261361   5.323   6.792   0.819  0.1593  0.2987  0.4278
13316TIP3   OH261362   4.364   5.698  12.991 -0.1934 -0.2932 -0.0563
13316TIP3    H161363   4.389   5.730  12.905 -0.7573 -0.1192 -0.1626
13316TIP3    H261364   4.292   5.757  13.018  0.2092 -0.1255  0.6748
13317TIP3   OH261365   4.456   5.304   0.160 -0.0441  0.9102 -0.4291
13317TIP3    H161366   4.542   5.274   0.132 -0.1096  0.2027  0.1204
13317TIP3    H261367   4.406   5.312   0.079  0.2866  0.5155 -0.6731
13318TIP3   OH261368   4.981   6.766  14.148 -0.3375  0.2746 -0.7357
13318TIP3    H161369   4.922   6.771  14.223  0.9067 -0.0425  0.2772
13318TIP3    H261370   4.971   6.677  14.115 -0.1025  0.0823 -0.2904
13319TIP3   OH261371   2.037   3.829   0.112 -0.3048 -0.1206  0.4307
13319TIP3    H161372   2.067   3.901   0.168  1.5446 -1.7739  1.6389
13319TIP3    H261373   1.955   3.800   0.152 -0.9031  1.0971  0.1149
13320TIP3   OH261374   2.999   5.610   2.857  0.2793  0.7986  0.6880
13320TIP3    H161375   3.027   5.584   2.945  2.0492  0.9517  0.1987
13320TIP3    H261376   3.080   5.639   2.814 -0.7752  1.9498 -0.5671
13321TIP3   OH261377   5.002   6.786   1.266 -0.2172  0.2427  0.2234
13321TIP3    H161378   5.075   6.847   1.273  0.2755 -0.4557  1.2101
13321TIP3    H261379   4.998   6.765   1.172  2.4861 -1.6933  0.4923
13322TIP3   OH261380   4.943   1.316  14.484 -0.1626 -0.0525  0.1708
13322TIP3    H161381   4.968   1.235  14.439  1.7356 -0.8300  2.5243
13322TIP3    H261382   5.012   1.378  14.461 -1.2688  0.7293 -1.0996
13323TIP3   OH261383   0.186   4.471   1.430  0.1778  0.1736  0.4914
13323TIP3    H161384   0.162   4.518   1.509  0.6152 -1.1462  1.4202
13323TIP3    H261385   0.254   4.525   1.390  3.6013 -1.5803  3.6388
13324TIP3   OH261386   6.898   5.707  13.650  0.2728  0.3568  0.2760
13324TIP3    H161387   6.976   5.674  13.606  1.1308  1.4866  0.9196
13324TIP3    H261388   6.911   5.684  13.742  0.0814  0.9913  0.4667
13325TIP3   OH261389   1.142   3.874   0.103 -0.3086  0.2705  0.4158
13325TIP3    H161390   1.125   3.957   0.147 -0.4642 -0.0099  0.8948
13325TIP3    H261391   1.203   3.896   0.033 -1.7136  1.0722 -0.5707
13326TIP3   OH261392   6.533   3.653   0.175 -0.2108  0.7120 -0.1259
13326TIP3    H161393   6.536   3.567   0.218  1.9964  0.8049 -0.0508
13326TIP3    H261394   6.495   3.711   0.241 -1.3054 -0.1003 -0.0237
13327TIP3   OH261395   5.642   6.998  14.815 -0.1169  0.5206 -0.5186
13327TIP3    H161396   5.566   7.052  14.793 -1.7944 -1.3714  0.4595
13327TIP3    H261397   5.677   7.038  14.895 -1.5604 -0.0182  0.4021
13328TIP3   OH261398   0.353   2.200  15.255  0.2242 -1.0826 -0.3807
13328TIP3    H161399   0.443   2.229  15.271 -1.4789  1.9816  5.0904
13328TIP3    H261400   0.352   2.108  15.282  1.0033 -0.1181  3.2928
13329TIP3   OH261401   3.896   6.164   0.015  0.2052 -0.1367  0.3590
13329TIP3    H161402   3.831   6.109  -0.029 -0.3494  1.5994 -1.0775
13329TIP3    H261403   3.844   6.232   0.059  0.9324  0.0832  0.8904
13330TIP3   OH261404   6.207   6.688  12.664 -0.0692 -0.4153 -0.2051
13330TIP3    H161405   6.117   6.662  12.642  0.3780 -1.1471 -1.2135
13330TIP3    H261406   6.217   6.663  12.756 -1.5705  1.5727  0.5482
13331TIP3   OH261407   4.223   6.154  12.440 -0.0714  0.3508 -0.2591
13331TIP3    H161408   4.257   6.177  12.526 -1.6975  0.3357  0.3953
13331TIP3    H261409   4.199   6.237  12.400  1.8836  0.4793 -1.2386
13332TIP3   OH261410   5.139   4.541   0.163  0.3039 -0.6195  0.0035
13332TIP3    H161411   5.045   4.556   0.152  0.5750 -0.2825 -2.1859
13332TIP3    H261412   5.171   4.527   0.074  3.1151  3.8006  0.2135
13333TIP3   OH261413   3.053   0.966   0.102  0.5264 -0.2668  0.3480
13333TIP3    H161414   3.109   0.919   0.041 -0.2174 -2.3470  1.2230
13333TIP3    H261415   3.087   0.943   0.189 -1.6248 -1.4857  0.8791
13334TIP3   OH261416   1.359   4.256  12.748 -0.0050  0.1900  0.0437
13334TIP3    H161417   1.348   4.162  12.732  0.4273 -0.2447  2.1642
13334TIP3    H261418   1.308   4.298  12.679 -0.9450 -1.6251 -0.3995
13335TIP3   OH261419   2.222   3.954  14.159  0.1619  0.1041  0.4839
13335TIP3    H161420   2.173   3.962  14.240  0.4787  0.4894  0.6396
13335TIP3    H261421   2.291   3.890  14.178  0.1743  0.1187  0.4880
13336TIP3   OH261422   4.575   4.466  15.344 -0.2551  0.3656  0.3457
13336TIP3    H161423   4.669   4.480  15.356  0.1025 -1.4516 -0.1820
13336TIP3    H261424   4.560   4.485  15.251  0.0417 -1.6355 -0.1270
13337TIP3   OH261425   0.354   6.807   3.074  0.3407  0.4761 -0.2693
13337TIP3    H161426   0.266   6.844   3.071 -0.1409 -0.6235  0.1043
13337TIP3    H261427   0.412   6.883   3.069 -0.6252  1.2293 -0.1880
13338TIP3   OH261428   6.872   2.711  13.417 -0.7880  0.0810  0.3004
13338TIP3    H161429   6.919   2.768  13.477 -2.8994 -0.0381  2.1139
13338TIP3    H261430   6.819   2.770  13.364 -0.9144 -0.0175  0.3166
13339TIP3   OH261431   4.879   3.455   0.488 -0.2954  0.1588  0.0357
13339TIP3    H161432   4.880   3.536   0.539  1.2330 -0.1631  0.5412
13339TIP3    H261433   4.965   3.417   0.501 -0.3380 -0.6120 -1.7334
13340TIP3   OH261434   4.411   7.159   1.484 -0.4682 -0.0141  0.4772
13340TIP3    H161435   4.320   7.181   1.504 -0.0670  2.4451 -0.1755
13340TIP3    H261436   4.406   7.098   1.410 -1.5423  1.6213 -0.8334
13341TIP3   OH261437   5.658   4.692   0.096  0.3240 -0.3672  0.3054
13341TIP3    H161438   5.700   4.777   0.110 -0.1366 -0.2229  0.8309
13341TIP3    H261439   5.571   4.714   0.063  1.0226 -0.6802 -1.8308
13342TIP3   OH261440   4.731   4.173   0.281  0.6495  0.5105 -0.8594
13342TIP3    H161441   4.653   4.220   0.312  1.8067  0.7372  1.8909
13342TIP3    H261442   4.697   4.092   0.242 -0.8835 -0.3599  2.1359
13343TIP3   OH261443   1.969   6.226  15.480  0.4240 -0.1301 -0.3365
13343TIP3    H161444   2.022   6.199  15.405  1.0868 -1.8843  0.7291
13343TIP3    H261445   1.992   6.164  15.550 -1.2389  0.5703  0.8827
13344TIP3   OH261446   5.438   3.858   2.490 -0.2543  0.2248  0.1660
13344TIP3    H161447   5.404   3.915   2.420  1.1948  1.2172  0.2315
13344TIP3    H261448   5.507   3.808   2.448  2.4827  2.7545  1.4545
13345TIP3   OH261449   4.708   3.886  15.470 -0.0912 -0.2220 -0.5099
13345TIP3    H161450   4.799   3.905  15.493  0.1045 -1.3790 -0.2991
13345TIP3    H261451   4.698   3.921  15.381  0.4662  0.1888 -0.4111
13346TIP3   OH261452   0.933   5.139   3.268 -0.3474  0.2431  0.1848
13346TIP3    H161453   0.853   5.158   3.219  0.4370  1.3135 -0.6903
13346TIP3    H261454   0.995   5.205   3.240  1.0683 -0.9780  0.3702
13347TIP3   OH261455   4.222   5.151   1.730  0.6126 -1.1750  0.6891
13347TIP3    H161456   4.276   5.104   1.792  1.3514 -1.1093  0.1033
13347TIP3    H261457   4.258   5.127   1.644  2.0277  1.6805  0.4196
13348TIP3   OH261458   1.509   4.400  13.709  0.1878 -0.1814  0.0456
13348TIP3    H161459   1.446   4.365  13.773 -1.1472  0.4899 -0.8967
13348TIP3    H261460   1.488   4.493  13.702 -0.4041 -0.4688 -2.2134
13349TIP3   OH261461   4.202   4.867  14.113  0.0555  0.4512 -0.0561
13349TIP3    H161462   4.267   4.810  14.070 -1.2299 -0.5862 -0.6791
13349TIP3    H261463   4.189   4.827  14.199 -0.0759  0.4079 -0.0955
13350TIP3   OH261464   5.576   6.757   0.983 -0.7372 -0.1067 -0.1528
13350TIP3    H161465   5.654   6.701   0.986 -1.0179 -0.4317  1.2599
13350TIP3    H261466   5.581   6.798   0.897  0.7539 -0.4694 -0.2712
13351TIP3   OH261467   6.508   0.166   1.369 -0.1307  0.1428  0.0368
13351TIP3    H161468   6.476   0.248   1.331 -1.0125 -0.1423  0.1422
13351TIP3    H261469   6.547   0.193   1.452 -0.6087  0.4366  0.1723
13352TIP3   OH261470   5.168   2.119  15.017  0.4388 -0.2397  0.3537
13352TIP3    H161471   5.214   2.120  14.933 -0.9044 -0.4041 -0.3828
13352TIP3    H261472   5.194   2.037  15.058  1.6818  0.1818  0.4366
13353TIP3   OH261473   1.816   0.992   0.859 -0.0316 -0.8769 -0.2258
13353TIP3    H161474   1.902   0.972   0.896 -0.3789 -2.6056 -0.2948
13353TIP3    H261475   1.754   0.948   0.917 -0.9399  1.0595  0.3104
13354TIP3   OH261476   3.490   5.951   3.812  0.2833  0.1007  0.6680
13354TIP3    H161477   3.580   5.946   3.780 -0.8247 -0.7984 -2.4331
13354TIP3    H261478   3.446   6.009   3.750 -1.4355  0.0291  1.7954
13355TIP3   OH261479   5.567   3.590   3.760 -0.4643 -0.0052 -0.2368
13355TIP3    H161480   5.646   3.539   3.779 -0.9085 -0.4983  0.3157
13355TIP3    H261481   5.573   3.609   3.667 -0.4529 -1.3470 -0.5265
13356TIP3   OH261482   4.831   4.043   1.738 -0.4690 -0.1054  0.0041
13356TIP3    H161483   4.912   3.994   1.754 -0.5454 -0.4251 -0.5767
13356TIP3    H261484   4.780   3.985   1.682 -0.9644  0.2397  0.1056
13357TIP3   OH261485   0.405   2.653   2.041  1.0130  0.4066  0.3285
13357TIP3    H161486   0.404   2.560   2.016 -0.8194 -0.4687  3.3128
13357TIP3    H261487   0.468   2.656   2.114  0.8353  1.4547  0.4379
13358TIP3   OH261488   0.866   7.003   1.604 -0.5495  0.1276 -0.1888
13358TIP3    H161489   0.871   7.040   1.692 -1.2596 -2.2945  0.9044
13358TIP3    H261490   0.774   6.979   1.593 -0.1604 -1.0714 -0.9471
13359TIP3   OH261491   5.851   4.997   0.883  0.2059  0.4758 -0.1354
13359TIP3    H161492   5.946   4.997   0.869  0.1038  0.8289 -0.8698
13359TIP3    H261493   5.840   4.991   0.978  1.0122  3.5135  0.1780
13360TIP3   OH261494   7.014   6.456   1.086  0.5062  0.7586 -0.4126
13360TIP3    H161495   7.071   6.472   1.011 -0.0344 -0.2115 -1.0482
13360TIP3    H261496   6.939   6.515   1.072  0.5186  0.7521 -0.5052
13361TIP3   OH261497   4.502   4.972   2.477  0.1372 -0.0680  0.5382
13361TIP3    H161498   4.548   4.968   2.561  0.1677 -0.9588  0.4837
13361TIP3    H261499   4.439   5.043   2.487  1.6056  1.2591  0.5687
13362TIP3   OH261500   0.453   5.097   0.750  0.0486 -0.2898 -0.0089
13362TIP3    H161501   0.406   5.044   0.685 -2.0064  1.0764  0.2918
13362TIP3    H261502   0.446   5.048   0.831 -0.6714 -0.2130 -0.0217
13363TIP3   OH261503   0.766   6.408  14.501 -0.4798  0.5804  0.0579
13363TIP3    H161504   0.748   6.457  14.581 -0.7201  0.3674  0.1348
13363TIP3    H261505   0.735   6.319  14.520  1.5970 -0.0616  0.5765
13364TIP3   OH261506   6.990   0.238  14.462  0.6376 -0.3882  0.3556
13364TIP3    H161507   7.077   0.216  14.429  0.2379 -1.3992 -0.0276
13364TIP3    H261508   6.942   0.156  14.462 -0.4964  0.2581  0.0450
13365TIP3   OH261509   6.318   1.619   0.153  0.3505 -0.0724 -0.0428
13365TIP3    H161510   6.370   1.696   0.174 -0.2354  0.6658 -1.2671
13365TIP3    H261511   6.379   1.562   0.105  0.2338  0.4892 -0.8670
13366TIP3   OH261512   1.938   5.830  13.820 -0.2546 -0.2664  0.1197
13366TIP3    H161513   1.997   5.873  13.757 -0.7754  0.1514 -0.0942
13366TIP3    H261514   1.882   5.901  13.851  0.6358 -0.2800  1.8047
13367TIP3   OH261515   2.818   2.565  14.321 -0.2179 -0.1475  0.1735
13367TIP3    H161516   2.846   2.539  14.233 -0.2023 -3.6549  1.1378
13367TIP3    H261517   2.892   2.616  14.355  1.6614 -2.4723 -0.2785
13368TIP3   OH261518   0.167   3.866   2.031  0.4795  0.7937  0.2490
13368TIP3    H161519   0.172   3.925   2.105  0.4904 -0.0410  0.9278
13368TIP3    H261520   0.109   3.909   1.969  0.0419  1.2566  0.9762
13369TIP3   OH261521   1.895   6.019   1.160  0.1978  0.3540 -0.2522
13369TIP3    H161522   1.953   5.966   1.213  0.6721  0.5035 -0.6139
13369TIP3    H261523   1.936   6.105   1.157 -0.7887  0.8734  0.6937
13370TIP3   OH261524   2.748   0.924   2.476  0.0851 -0.0060 -0.2639
13370TIP3    H161525   2.769   0.954   2.388  0.7638  0.1577 -0.0545
13370TIP3    H261526   2.665   0.967   2.498  0.4765  0.8314 -0.3977
13371TIP3   OH261527   5.583   4.333   2.940  0.3063 -0.8594  0.3103
13371TIP3    H161528   5.598   4.329   2.845  0.0807 -0.7804  0.2697
13371TIP3    H261529   5.540   4.250   2.960 -0.8061 -0.3302  0.1287
13372TIP3   OH261530   3.371   5.127   0.985  0.2412  0.0459  0.7021
13372TIP3    H161531   3.448   5.123   1.042  0.4251  0.7481  0.5134
13372TIP3    H261532   3.363   5.220   0.962 -0.8964  0.0420  1.0417
13373TIP3   OH261533   4.226   6.741   5.458  0.0209 -0.1475 -0.5866
13373TIP3    H161534   4.316   6.710   5.443  0.6502  0.2146  2.1033
13373TIP3    H261535   4.175   6.660   5.464  0.3597 -0.4017 -1.0810
13374TIP3   OH261536   2.953   3.914   3.077 -0.2524  0.1791 -0.9687
13374TIP3    H161537   3.018   3.944   3.014 -0.8917  1.7099 -0.9173
13374TIP3    H261538   2.905   3.844   3.032  0.5139 -0.0129 -1.4937
13375TIP3   OH261539   5.408   2.394   0.689 -0.4301 -0.1546 -0.5802
13375TIP3    H161540   5.437   2.445   0.765 -1.1456 -0.3774 -0.1481
13375TIP3    H261541   5.449   2.437   0.614  1.3374 -0.7305  0.0420
13376TIP3   OH261542   2.477   5.966   3.412 -0.1300 -0.1539  0.8656
13376TIP3    H161543   2.515   5.988   3.327 -3.8344  0.9884 -0.5777
13376TIP3    H261544   2.491   5.872   3.421  0.2894 -0.2852 -0.9986
13377TIP3   OH261545   3.045   6.958  15.037  0.3506  0.2389 -0.8403
13377TIP3    H161546   3.119   6.953  15.098  1.8452  1.6343 -2.4694
13377TIP3    H261547   3.060   6.886  14.975  0.0095  0.1532 -0.8255
13378TIP3   OH261548   1.618   4.689   1.876 -0.0810 -0.4476  0.0227
13378TIP3    H161549   1.583   4.745   1.807 -0.7019  1.0490  1.5410
13378TIP3    H261550   1.713   4.689   1.861 -0.1725  0.2223 -0.5645
13379TIP3   OH261551   4.658   5.333   0.704  0.1619 -0.4913 -0.6720
13379TIP3    H161552   4.655   5.238   0.705  1.4484 -0.5381 -0.2831
13379TIP3    H261553   4.617   5.360   0.786 -0.0054 -0.7171 -0.6817
13380TIP3   OH261554   6.461   3.597  14.277  0.0598 -0.0483 -0.2968
13380TIP3    H161555   6.488   3.561  14.361 -1.2584  1.1201  0.6542
13380TIP3    H261556   6.498   3.685  14.276  0.6342 -0.2852 -1.2549
13381TIP3   OH261557   6.446   1.062  13.739  0.4150  0.4096 -0.3247
13381TIP3    H161558   6.472   1.004  13.668  1.8786  0.1490  0.4098
13381TIP3    H261559   6.488   1.146  13.719  1.5829  0.0830  0.6834
13382TIP3   OH261560   0.757   5.829  13.459  0.9223 -0.2179  0.0297
13382TIP3    H161561   0.799   5.749  13.492  2.1294 -0.1912 -1.3703
13382TIP3    H261562   0.825   5.871  13.406  0.5992  2.2040  1.4663
13383TIP3   OH261563   3.098   1.653   2.316  0.1025 -0.4323 -0.6167
13383TIP3    H161564   3.166   1.718   2.333 -0.6000 -0.1083  1.0159
13383TIP3    H261565   3.017   1.704   2.309 -0.4724 -1.1265  0.8017
13384TIP3   OH261566   3.157   4.903   1.597 -0.0284 -0.1439 -0.2476
13384TIP3    H161567   3.146   4.982   1.651 -0.3919 -0.0678 -0.4331
13384TIP3    H261568   3.114   4.924   1.514  2.0071  0.3761 -1.2062
13385TIP3   OH261569   0.309   1.167   1.625  0.4805  0.1569  0.0180
13385TIP3    H161570   0.252   1.230   1.668 -0.4940 -0.2971 -0.6064
13385TIP3    H261571   0.250   1.099   1.592  1.4946 -0.9880  0.5131
13386TIP3   OH261572   5.671   1.671  15.001 -0.4944  0.2360 -0.1492
13386TIP3    H161573   5.709   1.693  14.917  0.7097 -0.7233  0.1306
13386TIP3    H261574   5.654   1.755  15.044  2.1935  0.6853  0.1142
13387TIP3   OH261575   5.162   7.017  14.936 -0.2726  0.1945  0.1253
13387TIP3    H161576   5.154   7.005  15.030  4.0825  2.6746  0.9738
13387TIP3    H261577   5.146   6.931  14.898 -2.2997 -0.7867  3.0993
13388TIP3   OH261578   3.348   4.785  14.469 -0.5664  0.1218 -0.1705
13388TIP3    H161579   3.426   4.730  14.477 -1.0011 -0.4194  0.3897
13388TIP3    H261580   3.348   4.815  14.378 -1.7394 -2.9298 -1.2401
13389TIP3   OH261581   4.866   1.587   3.689  0.3261  0.1662  0.1280
13389TIP3    H161582   4.920   1.642   3.746  1.7492 -0.0999 -0.9394
13389TIP3    H261583   4.883   1.498   3.718 -0.0295  0.1179  0.1937
13390TIP3   OH261584   1.742   3.355  12.216  0.1543  0.6577 -0.1468
13390TIP3    H161585   1.724   3.444  12.187  0.7286  0.7016 -0.3682
13390TIP3    H261586   1.809   3.323  12.156  1.5815  0.8589  1.2803
13391TIP3   OH261587   0.193   6.796   4.623 -0.1928  0.2830 -0.1774
13391TIP3    H161588   0.276   6.760   4.656 -0.4956  0.7359  1.1092
13391TIP3    H261589   0.219   6.870   4.568  0.2693  0.1123 -0.1934
13392TIP3   OH261590   1.219   1.744   0.554 -0.2864 -0.0371  0.0232
13392TIP3    H161591   1.217   1.653   0.526  0.3798 -0.2671  0.7000
13392TIP3    H261592   1.156   1.749   0.626 -2.5242  0.7102 -1.9184
13393TIP3   OH261593   4.877   2.579   3.822 -0.2643  0.6221  0.6255
13393TIP3    H161594   4.853   2.488   3.839  0.0677  0.3049 -0.5117
13393TIP3    H261595   4.854   2.592   3.730  0.9944  1.2618  0.3972
13394TIP3   OH261596   0.937   3.631   3.025 -0.0632  0.1320  0.2828
13394TIP3    H161597   0.991   3.563   2.983  1.4690  0.5645  1.5361
13394TIP3    H261598   0.922   3.695   2.955 -0.7719 -1.0425 -0.6697
13395TIP3   OH261599   3.562   3.814   4.566  0.0404 -0.1233 -0.0944
13395TIP3    H161600   3.551   3.878   4.636  0.8273  1.9121 -1.7732
13395TIP3    H261601   3.473   3.800   4.533 -0.1307  0.1359  0.2497
13396TIP3   OH261602   2.086   0.262   3.199 -0.2490 -0.8057 -0.3594
13396TIP3    H161603   2.083   0.208   3.278 -1.5600 -1.1961 -0.6518
13396TIP3    H261604   2.106   0.201   3.129  1.0846 -0.4292 -0.3144
13397TIP3   OH261605   0.295   2.244   1.304 -0.3035  0.4490  0.2486
13397TIP3    H161606   0.227   2.223   1.240  0.8116 -0.0906 -0.7732
13397TIP3    H261607   0.274   2.190   1.380 -2.5811  2.2896  0.9983
13398TIP3   OH261608   0.579   1.511   0.220  0.5229  0.1502 -0.4721
13398TIP3    H161609   0.608   1.578   0.158 -1.8862  2.4557  0.8170
13398TIP3    H261610   0.659   1.485   0.266  1.8563  0.4930 -2.5145
13399TIP3   OH261611   1.250   1.237   3.244  0.1732  0.2488  0.3302
13399TIP3    H161612   1.195   1.310   3.214  0.0086  0.4937  1.2280
13399TIP3    H261613   1.332   1.249   3.197 -0.3971  0.1163 -0.7143
13400TIP3   OH261614   1.272   6.898   4.977  1.4568 -0.2834  0.0620
13400TIP3    H161615   1.265   6.957   5.052  1.6997  0.6400 -0.6384
13400TIP3    H261616   1.347   6.931   4.928  0.6463 -0.2351 -1.1582
13401TIP3   OH261617   0.077   4.126   2.456 -0.3209 -0.1580  0.1600
13401TIP3    H161618  -0.016   4.151   2.454  0.1314  1.5339 -0.6791
13401TIP3    H261619   0.076   4.031   2.468 -2.1796 -0.2405 -0.4667
13402TIP3   OH261620   4.715   2.862   2.926 -0.5388  0.1586 -0.3936
13402TIP3    H161621   4.689   2.891   2.838 -0.2514  0.1150 -0.4957
13402TIP3    H261622   4.647   2.799   2.952 -0.6405  0.1942 -0.5734
13403TIP3   OH261623   3.622   5.649  15.210 -0.2793 -0.2102 -0.0469
13403TIP3    H161624   3.643   5.555  15.213  2.3202  0.2907 -1.1693
13403TIP3    H261625   3.539   5.656  15.258 -0.6702 -3.1060 -0.1732
13404TIP3   OH261626   0.986   0.442   0.798  0.5961  0.5757  0.3439
13404TIP3    H161627   1.049   0.390   0.849 -0.1363  0.3728  1.0577
13404TIP3    H261628   0.917   0.463   0.860  0.0598  0.9817 -0.3829
13405TIP3   OH261629   5.903   4.188   4.034  0.3019 -0.4141 -0.2316
13405TIP3    H161630   5.951   4.112   4.066 -1.2964 -1.4252 -0.1545
13405TIP3    H261631   5.867   4.159   3.949 -0.4544  0.1830 -0.1179
13406TIP3   OH261632   0.572   0.899   3.366 -0.5884  0.2020 -0.0401
13406TIP3    H161633   0.482   0.917   3.390 -0.4300  1.7418 -0.5536
13406TIP3    H261634   0.589   0.955   3.290  1.2993  1.1907  1.0616
13407TIP3   OH261635   6.515   0.194   5.013  0.1546 -0.0649 -0.3603
13407TIP3    H161636   6.582   0.198   5.082  2.1373  1.8634 -2.2799
13407TIP3    H261637   6.444   0.250   5.045  0.0352 -1.0566  1.1243
13408TIP3   OH261638   2.336   7.012   4.557  0.3574  0.9677  0.4325
13408TIP3    H161639   2.268   7.080   4.556  0.4526  1.0726  1.1747
13408TIP3    H261640   2.324   6.967   4.640 -0.4046 -0.6437 -0.5206
13409TIP3   OH261641   0.196   5.513  13.991 -0.2436  0.1622 -0.1916
13409TIP3    H161642   0.135   5.572  14.035 -0.2799 -0.7814  1.0679
13409TIP3    H261643   0.262   5.492  14.057  0.5900 -0.0465 -1.0752
13410TIP3   OH261644   1.614   1.234   0.221 -0.3112 -0.6824  0.4639
13410TIP3    H161645   1.586   1.148   0.252 -0.8707 -0.8355 -0.4272
13410TIP3    H261646   1.639   1.219   0.130 -0.8326  0.1809  0.1751
13411TIP3   OH261647   2.136   1.743   1.007  0.2766  0.1881 -0.2564
13411TIP3    H161648   2.219   1.696   1.001 -0.4111 -0.7692 -3.0449
13411TIP3    H261649   2.133   1.797   0.928 -2.0270 -0.2969 -0.5247
13412TIP3   OH261650   4.582   0.539   4.689  0.3822 -0.2540  0.1814
13412TIP3    H161651   4.505   0.483   4.704 -0.9512  0.9699 -1.8772
13412TIP3    H261652   4.646   0.482   4.647 -0.0375 -0.8554  0.3535
13413TIP3   OH261653   0.895   1.269   4.469 -0.6775  0.3154 -0.0548
13413TIP3    H161654   0.989   1.254   4.479 -0.9224 -1.8193 -0.7609
13413TIP3    H261655   0.888   1.325   4.392  0.0770  1.6509  0.8166
13414TIP3   OH261656   2.246   5.396   4.319  0.6769 -0.2563  0.1034
13414TIP3    H161657   2.183   5.451   4.272  1.0468 -0.3173 -0.4762
13414TIP3    H261658   2.314   5.456   4.347  1.4495 -0.5168 -1.1656
13415TIP3   OH261659   1.052   0.755   3.055 -0.0765 -0.2902  0.1086
13415TIP3    H161660   1.146   0.767   3.061 -0.0502 -1.0672  1.2653
13415TIP3    H261661   1.039   0.661   3.055 -0.9924 -0.2154  2.5265
13416TIP3   OH261662   0.767   4.318   3.566 -0.0564  0.3056 -0.6672
13416TIP3    H161663   0.779   4.413   3.561 -1.4841  0.6601  1.7222
13416TIP3    H261664   0.676   4.307   3.593  0.5734 -1.6853  0.7672
13417TIP3   OH261665   1.689   5.884   4.779  0.5853 -0.3153  0.2018
13417TIP3    H161666   1.762   5.884   4.717 -0.0687  0.6993 -0.5920
13417TIP3    H261667   1.719   5.939   4.851  0.3967  0.6067 -0.4052
13418TIP3   OH261668   6.541   5.631  13.496  0.4146  0.2008  0.5294
13418TIP3    H161669   6.561   5.661  13.407 -0.4074  0.2363  0.3487
13418TIP3    H261670   6.520   5.538  13.485  0.1136  0.2531  0.6544
13419TIP3   OH261671   1.172   1.087   1.802 -0.6041 -0.3810  0.6258
13419TIP3    H161672   1.233   1.051   1.866 -1.5428 -1.2045  1.0591
13419TIP3    H261673   1.180   1.028   1.726 -0.3612 -0.0885  0.4212
13420TIP3   OH261674   2.093   1.636   4.821 -0.3131  0.1571 -0.5519
13420TIP3    H161675   2.112   1.686   4.742 -0.6724 -1.9227 -1.9948
13420TIP3    H261676   2.170   1.648   4.877 -0.3874  2.2669 -0.8619
13421TIP3   OH261677   0.033   0.317   4.356  0.3863 -0.3317 -0.1609
13421TIP3    H161678   0.054   0.381   4.424  3.0656 -0.5574 -0.7254
13421TIP3    H261679  -0.047   0.350   4.315  0.0776  1.0531  1.5136
13422TIP3   OH261680   2.577   0.422   4.749 -0.3254  0.7473 -0.2119
13422TIP3    H161681   2.650   0.368   4.780 -0.9788 -0.2193 -0.3472
13422TIP3    H261682   2.583   0.418   4.654 -0.3970  0.9014 -0.2238
13423TIP3   OH261683   0.895   6.865  15.228 -0.5496 -0.1185  0.5406
13423TIP3    H161684   0.909   6.919  15.150  0.1973  2.1055  2.1912
13423TIP3    H261685   0.822   6.906  15.274 -0.4953 -0.9875  1.4186
13424TIP3   OH261686   3.513   2.215  13.295 -0.1528 -0.2870  0.5407
13424TIP3    H161687   3.554   2.134  13.327 -0.3197 -1.6590 -2.5333
13424TIP3    H261688   3.422   2.209  13.324 -0.2964 -1.4952 -0.1030
13425TIP3   OH261689   1.511   7.114   1.919 -0.0565 -0.3911 -0.2478
13425TIP3    H161690   1.438   7.176   1.924  0.2091 -0.1762  1.0961
13425TIP3    H261691   1.542   7.106   2.009  1.1794 -0.9786 -0.7184
13426TIP3   OH261692   6.826   0.312   3.042  0.4448  0.0370  0.2948
13426TIP3    H161693   6.784   0.390   3.078 -0.4483 -0.4798  0.3886
13426TIP3    H261694   6.907   0.345   3.003 -1.2150  1.4684 -2.1348
13427TIP3   OH261695   5.623   6.266   2.199  0.4566 -0.6724  0.3306
13427TIP3    H161696   5.691   6.326   2.228  0.7797 -1.3281  0.9202
13427TIP3    H261697   5.613   6.284   2.105 -1.0709  1.9347  0.9298
13428TIP3   OH261698   0.970   0.033  13.067  0.1470  0.0761  0.0093
13428TIP3    H161699   0.944   0.055  13.156  0.2177 -0.9316  0.2929
13428TIP3    H261700   1.015   0.111  13.035 -0.9293  0.8772  0.4282
13429TIP3   OH261701   1.342   2.308   3.860  0.2568 -0.2047  0.1208
13429TIP3    H161702   1.346   2.402   3.876 -0.2032 -0.1687  0.0218
13429TIP3    H261703   1.432   2.277   3.875  0.8556  0.5520 -1.7857
13430TIP3   OH261704   6.489   1.987   0.477 -0.0110  0.2436 -0.3168
13430TIP3    H161705   6.530   1.914   0.524 -0.6319 -0.7749 -1.3237
13430TIP3    H261706   6.496   2.061   0.537 -0.3264 -0.8983  1.1806
13431TIP3   OH261707   6.338   6.736   1.189 -0.1024 -0.3685 -0.2875
13431TIP3    H161708   6.257   6.785   1.207  0.2465  0.3845 -0.7592
13431TIP3    H261709   6.404   6.803   1.175  0.9220 -0.9864  1.4332
13432TIP3   OH261710   6.816   0.392   1.088  0.0786  0.4134 -0.2909
13432TIP3    H161711   6.877   0.459   1.056  0.6266  1.5737  3.0050
13432TIP3    H261712   6.741   0.442   1.120 -1.4914 -0.8590 -1.9018
13433TIP3   OH261713   5.820   6.058   0.152  0.2919 -0.0115  0.3656
13433TIP3    H161714   5.757   5.988   0.140  2.3020 -1.6698 -0.8430
13433TIP3    H261715   5.882   6.048   0.080  1.0923  2.5102  0.6269
13434TIP3   OH261716   5.674   1.045   5.434  0.4188  0.0036 -0.2438
13434TIP3    H161717   5.606   0.999   5.385  0.4281 -0.8193  0.5099
13434TIP3    H261718   5.634   1.064   5.519  1.2583 -0.8546  0.3529
13435TIP3   OH261719   2.259   5.540   2.319  0.0258 -0.8518  0.0226
13435TIP3    H161720   2.186   5.601   2.331  1.9360  2.1234 -2.4853
13435TIP3    H261721   2.229   5.480   2.250 -0.0482  0.4306 -1.0866
13436TIP3   OH261722   1.898   2.401   0.014  0.1507 -0.4739 -0.0115
13436TIP3    H161723   1.850   2.328  -0.024 -0.3935  0.1474 -0.5316
13436TIP3    H261724   1.831   2.456   0.054  0.6345 -0.6374  1.0187
13437TIP3   OH261725   4.505   6.618   2.489 -0.3317 -0.0110 -0.3429
13437TIP3    H161726   4.469   6.707   2.491  1.0659  0.5592  1.7268
13437TIP3    H261727   4.591   6.628   2.449  0.2781 -0.2365  0.8927
13438TIP3   OH261728   4.092   1.694   0.145  0.5690  0.5523 -0.5098
13438TIP3    H161729   4.171   1.687   0.092  0.6601 -2.8864 -0.0196
13438TIP3    H261730   4.089   1.614   0.196 -1.7298  1.9184  1.6549
13439TIP3   OH261731   1.734   2.637   2.054  0.3232 -0.3488 -0.2159
13439TIP3    H161732   1.715   2.588   2.134  0.6174 -1.1312 -0.6152
13439TIP3    H261733   1.821   2.607   2.028 -0.3363 -1.1386 -1.5874
13440TIP3   OH261734   2.585   0.851   0.213 -0.4680  0.6920 -0.5253
13440TIP3    H161735   2.501   0.892   0.194  0.0608  1.6893 -0.7388
13440TIP3    H261736   2.650   0.911   0.176  0.5792  2.3694  3.8131
13441TIP3   OH261737   6.410   5.485   1.944  0.0698  0.3458  0.3220
13441TIP3    H161738   6.319   5.513   1.952  1.3768  4.4935  1.9618
13441TIP3    H261739   6.436   5.513   1.856 -0.0499 -0.3258  0.0690
13442TIP3   OH261740   0.065   1.897   4.274 -0.1532 -0.7522 -0.1662
13442TIP3    H161741   0.146   1.858   4.308  0.1461 -0.2542 -0.2962
13442TIP3    H261742   0.091   1.986   4.250 -0.9652 -0.2674  0.7136
13443TIP3   OH261743   0.066   6.673   0.494  0.3034  0.2265 -0.4602
13443TIP3    H161744   0.143   6.679   0.438 -0.1946 -1.0886 -1.3193
13443TIP3    H261745   0.006   6.740   0.461  0.6145  0.4662 -0.5330
13444TIP3   OH261746   6.806   1.191   0.772 -0.6716 -0.4013 -0.3433
13444TIP3    H161747   6.856   1.125   0.821 -3.5575 -2.3489  0.1266
13444TIP3    H261748   6.867   1.263   0.760  1.6247 -1.8697  1.9145
13445TIP3   OH261749   3.347   3.025   0.625  0.0902  0.0593  0.2374
13445TIP3    H161750   3.320   2.997   0.712 -2.3423 -0.3025 -0.6072
13445TIP3    H261751   3.356   3.120   0.632 -0.0498  0.0270  0.8782
13446TIP3   OH261752   0.406   4.623   1.789 -0.2025  0.1054 -0.2751
13446TIP3    H161753   0.452   4.684   1.846 -1.2951  0.5980  0.0796
13446TIP3    H261754   0.322   4.665   1.771 -0.0089 -0.1834 -1.9884
13447TIP3   OH261755   1.124   5.466   1.133 -0.3040 -0.2886  0.3036
13447TIP3    H161756   1.131   5.540   1.192 -0.8461  0.4303 -0.5242
13447TIP3    H261757   1.050   5.487   1.076 -0.0633 -1.1607 -0.3463
13448TIP3   OH261758   7.045   5.751  14.593  0.3755  0.2092  0.0287
13448TIP3    H161759   7.114   5.814  14.613  0.8170  0.3536 -1.8844
13448TIP3    H261760   7.071   5.712  14.510 -1.0473 -0.8831  0.0698
13449TIP3   OH261761   3.497   4.728   3.276  0.1597 -0.2818  0.4905
13449TIP3    H161762   3.416   4.677   3.278  1.1457 -1.8889  0.8686
13449TIP3    H261763   3.520   4.741   3.368 -0.3061  1.2253  0.4011
13450TIP3   OH261764   3.789   6.621   1.319 -0.1384  0.2661 -0.6618
13450TIP3    H161765   3.704   6.664   1.311 -0.4196  0.3643  2.5425
13450TIP3    H261766   3.770   6.528   1.304 -0.4841  0.4829 -1.6545
13451TIP3   OH261767   1.903   6.958   2.889 -0.2007 -0.0592 -0.2716
13451TIP3    H161768   1.993   6.937   2.914 -0.9283 -2.2168  0.6887
13451TIP3    H261769   1.899   6.941   2.795  1.0996  2.7466 -0.8791
13452TIP3   OH261770   7.097   5.059   3.217 -0.1283  0.4495 -0.1755
13452TIP3    H161771   7.165   5.126   3.224  2.0733 -1.8927  1.9272
13452TIP3    H261772   7.145   4.977   3.205 -2.4877 -1.3713  2.1069
13453TIP3   OH261773   4.122   5.833   2.878  0.2465  0.4652 -0.7672
13453TIP3    H161774   4.195   5.774   2.899 -0.6615 -0.2278  0.5237
13453TIP3    H261775   4.093   5.867   2.963 -1.5053  0.0397 -1.1745
13454TIP3   OH261776   2.629   6.051   2.806  0.1793 -0.3242  0.6349
13454TIP3    H161777   2.582   6.125   2.766 -1.3075 -1.6216 -0.0817
13454TIP3    H261778   2.702   6.034   2.746 -0.1602 -0.1920  0.1813
13455TIP3   OH261779   1.279   3.727   2.944  0.1815  0.3383 -0.2513
13455TIP3    H161780   1.372   3.712   2.966 -0.1784 -1.1907  0.3243
13455TIP3    H261781   1.238   3.748   3.028 -0.1220  0.3045 -0.3905
13456TIP3   OH261782   3.366   0.759   1.910 -0.3131 -0.6622  0.3794
13456TIP3    H161783   3.411   0.821   1.967 -0.0071 -0.2454 -0.3002
13456TIP3    H261784   3.282   0.743   1.952 -0.7224  0.8357  0.1577
13457TIP3   OH261785   7.077   1.047   2.375  0.2295  0.1253 -0.1603
13457TIP3    H161786   7.104   0.982   2.440 -0.8680 -0.7552 -0.5793
13457TIP3    H261787   7.011   1.002   2.322 -1.2031  1.8716  0.1021
13458TIP3   OH261788   6.767   6.548   1.961 -0.1329  0.1381  0.3744
13458TIP3    H161789   6.697   6.484   1.966  1.8994 -2.0132  2.3690
13458TIP3    H261790   6.760   6.597   2.043  0.0738  0.5897  0.1235
13459TIP3   OH261791   1.270   2.010   3.172 -0.0132  0.9080 -0.3604
13459TIP3    H161792   1.193   2.030   3.226  0.3708  0.7530  0.2501
13459TIP3    H261793   1.303   1.927   3.207  1.2392  1.6737  0.2840
13460TIP3   OH261794   5.893   6.609   1.211 -0.0557 -0.0978  0.3457
13460TIP3    H161795   5.909   6.533   1.267  0.0079  0.0879  0.5844
13460TIP3    H261796   5.956   6.675   1.243 -0.8081  0.4041  0.8214
13461TIP3   OH261797   6.407   5.467   2.535  0.6740 -0.5764 -0.3980
13461TIP3    H161798   6.434   5.426   2.617 -0.7877  0.4567  0.6220
13461TIP3    H261799   6.467   5.431   2.470  2.0927 -1.1363  1.1752
13462TIP3   OH261800   2.968   2.513   3.982  0.2503  0.9683  0.4151
13462TIP3    H161801   2.943   2.421   3.982 -3.5915  1.9338 -0.3813
13462TIP3    H261802   2.972   2.538   4.074 -1.4432  0.6811  0.5721
13463TIP3   OH261803   6.846   2.240   2.841  0.0883 -0.0387  0.0530
13463TIP3    H161804   6.846   2.145   2.828  0.8273  0.0901 -0.9885
13463TIP3    H261805   6.938   2.265   2.833 -0.1441  0.8042 -0.0336
13464TIP3   OH261806   6.588   6.810  15.271 -0.3867  0.3135  0.6598
13464TIP3    H161807   6.646   6.885  15.286  0.6415 -0.4375  0.5511
13464TIP3    H261808   6.571   6.811  15.177 -0.1930  0.2833  0.6241
13465TIP3   OH261809   5.300   0.931   1.976 -0.1792 -0.4276  0.3211
13465TIP3    H161810   5.306   1.005   1.915  1.0044  0.5173  1.5354
13465TIP3    H261811   5.294   0.854   1.920 -3.0804  0.6797 -0.9905
13466TIP3   OH261812   4.037   3.295   3.523  0.4044 -0.6135  0.2182
13466TIP3    H161813   3.986   3.214   3.524  0.5578 -0.7675 -2.1500
13466TIP3    H261814   3.985   3.356   3.575  0.6000 -2.3824  2.5626
13467TIP3   OH261815   0.224   6.613   1.239  0.2319  0.3112 -0.0036
13467TIP3    H161816   0.156   6.678   1.222 -0.8147 -0.7966 -0.1437
13467TIP3    H261817   0.186   6.531   1.207  1.0996 -0.5519  1.1660
13468TIP3   OH261818   6.395   0.460   0.541  0.6272 -0.0241  0.2537
13468TIP3    H161819   6.411   0.492   0.452  3.9467 -0.4319  0.6535
13468TIP3    H261820   6.413   0.366   0.537  0.8510 -0.0404  1.3636
13469TIP3   OH261821   2.198   4.801   1.205 -0.5614  0.2454 -0.0122
13469TIP3    H161822   2.267   4.833   1.262  0.8052 -0.2191 -1.3641
13469TIP3    H261823   2.216   4.708   1.195 -0.3405  0.4532 -1.7538
13470TIP3   OH261824   3.046   2.727   4.881 -0.3278  0.5565  0.1005
13470TIP3    H161825   3.129   2.689   4.910 -0.0216  1.7940  0.8946
13470TIP3    H261826   3.041   2.811   4.927 -0.4334  2.0128 -2.4992
13471TIP3   OH261827   6.979   4.827  15.306 -0.7950  0.2173  0.3259
13471TIP3    H161828   7.068   4.843  15.337 -0.7201  1.2654 -0.3855
13471TIP3    H261829   6.947   4.754  15.359  0.8766 -0.8915 -0.1556
13472TIP3   OH261830   0.823   5.352   2.324  0.6887 -0.4851  0.1828
13472TIP3    H161831   0.749   5.352   2.385 -1.5213  1.0020 -2.3824
13472TIP3    H261832   0.900   5.355   2.381 -1.0780 -3.9032  2.9966
13473TIP3   OH261833   3.006   0.636   4.990  0.1337  0.2680 -0.2837
13473TIP3    H161834   2.943   0.630   4.918 -0.2174 -0.0165  0.0419
13473TIP3    H261835   2.952   0.657   5.067  0.1532 -2.1161  0.4134
13474TIP3   OH261836   3.394   6.092   3.584 -0.6299 -0.1445 -0.3120
13474TIP3    H161837   3.310   6.114   3.544 -1.0886  0.7819  1.1298
13474TIP3    H261838   3.460   6.125   3.523 -1.3140 -0.9055 -1.4639
13475TIP3   OH261839   1.794   0.707   5.054  0.3081  0.4561 -0.1275
13475TIP3    H161840   1.726   0.774   5.061  0.1972  0.1937  1.4003
13475TIP3    H261841   1.838   0.708   5.139  0.0113 -1.7391  0.0678
13476TIP3   OH261842   6.356   5.970   1.939 -0.0087  0.4212  0.1876
13476TIP3    H161843   6.436   5.999   1.895 -1.3376  0.3808 -2.3254
13476TIP3    H261844   6.324   5.897   1.886 -1.2566 -0.1392  1.6672
13477TIP3   OH261845   2.308   5.070  14.567  0.1851  0.0515 -0.3074
13477TIP3    H161846   2.272   5.014  14.636  0.1090  1.4291  0.7968
13477TIP3    H261847   2.359   5.010  14.512  0.2097 -1.0821  0.9204
13478TIP3   OH261848   6.620   1.258  13.663 -0.2536  0.1008  0.1985
13478TIP3    H161849   6.622   1.334  13.721 -0.0088 -0.4533  0.9231
13478TIP3    H261850   6.678   1.282  13.591  0.9268  0.0627  1.1168
13479TIP3   OH261851   7.162   4.758   1.003 -0.0835  0.0771 -0.3102
13479TIP3    H161852   7.133   4.690   1.063 -1.1809 -1.6624 -2.7255
13479TIP3    H261853   7.091   4.822   1.003  0.3381  0.5508  0.9346
13480TIP3   OH261854   1.865   3.314   4.925 -0.0270 -0.2520  0.9121
13480TIP3    H161855   1.845   3.344   4.837  0.6698  0.0409  0.8499
13480TIP3    H261856   1.780   3.307   4.968 -0.5833 -2.5242 -0.4495
13481TIP3   OH261857   7.000   3.799   2.603  0.0159 -0.3133  0.0503
13481TIP3    H161858   7.085   3.799   2.560 -1.6777  1.3269 -3.5884
13481TIP3    H261859   6.964   3.712   2.587 -0.0897 -0.1188 -0.7655
13482TIP3   OH261860   6.748   2.724   5.333  0.4627  0.3286 -0.3625
13482TIP3    H161861   6.726   2.717   5.426 -1.4158 -1.6744 -0.9209
13482TIP3    H261862   6.842   2.743   5.332  1.0973 -2.3707  1.9147
13483TIP3   OH261863   2.979   0.668   3.028 -0.0634 -0.0985  0.1250
13483TIP3    H161864   2.933   0.630   3.103 -0.7917 -2.2398 -1.3469
13483TIP3    H261865   3.071   0.645   3.042  0.2952  2.2841  1.9532
13484TIP3   OH261866   2.344   6.295   5.455  0.0880 -0.0628  0.6434
13484TIP3    H161867   2.385   6.367   5.504  3.3775 -1.8436  0.6728
13484TIP3    H261868   2.345   6.221   5.515 -1.3218 -0.7198 -0.1108
13485TIP3   OH261869   2.448   1.743   1.469  0.2004 -0.2681 -0.1238
13485TIP3    H161870   2.406   1.778   1.390 -0.0879 -0.7329 -0.1787
13485TIP3    H261871   2.391   1.773   1.540 -0.7242 -1.6255 -0.2662
13486TIP3   OH261872   0.842   4.290   0.666 -0.0534  0.8397  0.0148
13486TIP3    H161873   0.757   4.312   0.706 -0.3306 -0.2435  0.0414
13486TIP3    H261874   0.821   4.268   0.575  0.2269  0.7485 -0.0288
13487TIP3   OH261875   7.137   0.908  14.603 -0.3433 -0.0043 -0.2506
13487TIP3    H161876   7.093   0.925  14.520  0.8289  0.2455 -0.8201
13487TIP3    H261877   7.206   0.844  14.582  1.1296  1.4143  0.1740
13488TIP3   OH261878   0.312   7.106  13.380 -0.1067 -0.2108  0.6703
13488TIP3    H161879   0.272   7.073  13.461  0.3184 -1.3449  0.4371
13488TIP3    H261880   0.395   7.145  13.409  0.2138 -0.9307  0.7600
13489TIP3   OH261881   4.157   1.824   4.484 -0.5238  0.0804 -0.2053
13489TIP3    H161882   4.206   1.827   4.402  0.0460  1.3518  0.1808
13489TIP3    H261883   4.093   1.754   4.470  0.1574 -0.3252 -1.3977
13490TIP3   OH261884   0.320   3.567   1.326  0.1413 -0.0698 -0.1516
13490TIP3    H161885   0.242   3.516   1.309  0.0428 -1.2183  3.2303
13490TIP3    H261886   0.393   3.510   1.300 -0.0170 -1.4085  2.2055
13491TIP3   OH261887   3.165   0.595   4.749  0.2001 -0.5148  0.6095
13491TIP3    H161888   3.205   0.509   4.736 -0.1046 -0.6643  0.6750
13491TIP3    H261889   3.086   0.579   4.799 -0.9655 -0.4573 -1.1465
13492TIP3   OH261890   6.731   1.086   2.333  0.0087  0.2041 -0.2451
13492TIP3    H161891   6.654   1.030   2.323  0.2012  0.0030 -0.6296
13492TIP3    H261892   6.787   1.063   2.259  1.0541 -0.6343  0.7737
13493TIP3   OH261893   2.992   5.129  14.615 -0.5669 -0.2512 -0.0025
13493TIP3    H161894   2.916   5.184  14.632 -0.2771  0.2222 -0.2033
13493TIP3    H261895   3.051   5.147  14.688 -0.7329 -0.7738  0.2589
13494TIP3   OH261896   1.214   5.803   4.575 -0.1700  0.3127 -0.0809
13494TIP3    H161897   1.245   5.717   4.603 -0.4148  0.0037 -0.7409
13494TIP3    H261898   1.290   5.860   4.584  0.2219 -0.1483 -0.3942
13495TIP3   OH261899   2.606   0.596   3.038 -0.0128  0.8828 -0.1965
13495TIP3    H161900   2.522   0.550   3.045 -0.4043  1.6842  0.4651
13495TIP3    H261901   2.630   0.587   2.946 -0.7702  0.5541 -0.3714
13496TIP3   OH261902   5.236   2.786   3.222  0.1870  0.2889 -0.1730
13496TIP3    H161903   5.172   2.721   3.192 -0.9824  0.8630  0.9985
13496TIP3    H261904   5.219   2.862   3.167 -0.3407  0.5365  0.3260
13497TIP3   OH261905   4.473   2.585   2.472 -0.3397 -0.3070  0.0535
13497TIP3    H161906   4.481   2.579   2.567  1.3737  0.4918 -0.0301
13497TIP3    H261907   4.510   2.503   2.439 -0.4595 -0.3586  0.0458
13498TIP3   OH261908   1.498   1.562   1.413 -0.3308  0.2445  0.3787
13498TIP3    H161909   1.544   1.529   1.490 -1.1190  0.5409  0.9795
13498TIP3    H261910   1.442   1.490   1.385  0.9918 -0.3578 -0.7631
13499TIP3   OH261911   4.224   3.700   2.162  0.4343  0.1710 -0.0945
13499TIP3    H161912   4.248   3.748   2.242  1.6963  0.9658 -0.9309
13499TIP3    H261913   4.307   3.667   2.128 -0.2146 -1.0550 -0.5342
13500TIP3   OH261914   1.224   5.145   1.138  0.2797 -0.4621 -0.9070
13500TIP3    H161915   1.166   5.194   1.196 -0.6345 -0.2104 -2.0047
13500TIP3    H261916   1.311   5.158   1.174 -0.2932 -0.5260  0.5528
13501TIP3   OH261917   6.796   4.719   0.494 -0.4277  0.5552  0.3459
13501TIP3    H161918   6.845   4.673   0.425 -0.6116 -0.5451  0.9351
13501TIP3    H261919   6.842   4.697   0.575 -1.2474  0.4019  0.7763
13502TIP3   OH261920   0.579   5.686   1.775  0.1067 -0.7531 -0.3368
13502TIP3    H161921   0.636   5.653   1.705  1.7665  1.7903 -0.2627
13502TIP3    H261922   0.634   5.684   1.853 -0.8150 -0.8966  0.3160
13503TIP3   OH261923   5.967   0.741   4.244 -0.2227  0.1107 -0.2091
13503TIP3    H161924   5.935   0.798   4.175  1.2537  0.6665 -0.4676
13503TIP3    H261925   5.987   0.800   4.317 -0.0414 -0.2448  0.0317
13504TIP3   OH261926   1.364   3.326   2.584 -0.7479 -0.1683 -0.0656
13504TIP3    H161927   1.420   3.332   2.661 -2.2953  1.9344  0.9188
13504TIP3    H261928   1.275   3.323   2.618 -1.3382 -2.1272 -1.6676
13505TIP3   OH261929   6.331   5.823  15.546 -0.0581 -0.1121 -0.3581
13505TIP3    H161930   6.326   5.906  15.498 -0.6565  0.1625  0.1719
13505TIP3    H261931   6.289   5.759  15.488 -1.5599  0.3876  0.1429
13506TIP3   OH261932   1.781   0.202   5.929  0.2977 -0.4204  0.5799
13506TIP3    H161933   1.753   0.111   5.938 -1.1635  0.0833  1.4064
13506TIP3    H261934   1.711   0.252   5.972  0.2454  1.2011 -1.3499
13507TIP3   OH261935   2.497   3.734   2.321  0.0696 -0.4613  0.4744
13507TIP3    H161936   2.508   3.724   2.416  0.9806  0.7852  0.5174
13507TIP3    H261937   2.416   3.783   2.311  0.6275  0.5234  0.6800
13508TIP3   OH261938   1.361   1.692   2.034  0.7473  0.3291 -0.3742
13508TIP3    H161939   1.439   1.709   1.981  0.8804  1.6024  0.2150
13508TIP3    H261940   1.354   1.768   2.091  0.8119 -1.1918  1.6899
13509TIP3   OH261941   3.748   4.870   0.748  0.3293  0.3262 -0.1150
13509TIP3    H161942   3.770   4.864   0.841 -1.2293  1.8367  0.3741
13509TIP3    H261943   3.828   4.843   0.703  0.7561 -1.5404  1.6548
13510TIP3   OH261944   4.109   0.761   1.758  0.7108 -0.0247  0.1552
13510TIP3    H161945   4.037   0.702   1.780  1.3949 -1.1237 -0.4735
13510TIP3    H261946   4.072   0.821   1.693  0.4034 -0.7053 -0.3124
13511TIP3   OH261947   3.932   4.872   5.411  0.6186  0.2026 -0.0484
13511TIP3    H161948   3.881   4.819   5.472  1.1175  0.1338  0.3094
13511TIP3    H261949   3.966   4.809   5.347 -1.8928  0.5675 -1.8225
13512TIP3   OH261950   5.593   0.423   1.667  0.0411 -0.2993  0.4695
13512TIP3    H161951   5.617   0.469   1.748  0.9993 -0.0910  0.0682
13512TIP3    H261952   5.549   0.490   1.614  0.4278 -0.1476  0.3455
13513TIP3   OH261953   1.043   1.379  14.151  0.3478  0.3893  0.0700
13513TIP3    H161954   1.079   1.305  14.103 -0.3836 -0.3642  0.6625
13513TIP3    H261955   0.953   1.353  14.171 -0.4473  2.1057 -1.1136
13514TIP3   OH261956   2.340   5.426   0.401 -0.2503  0.2554  0.5446
13514TIP3    H161957   2.247   5.421   0.379 -0.5084  2.0280  1.1732
13514TIP3    H261958   2.385   5.426   0.316 -0.8346 -0.0978  0.2300
13515TIP3   OH261959   5.797   4.478   2.120 -0.0630  0.2882 -0.0556
13515TIP3    H161960   5.788   4.569   2.147  0.5038 -0.1107  1.4922
13515TIP3    H261961   5.879   4.449   2.160  0.1535 -0.6818 -1.1781
13516TIP3   OH261962   0.701   6.192   1.694  0.0196  0.1428  0.1179
13516TIP3    H161963   0.640   6.119   1.679  0.5926 -0.4070  0.4340
13516TIP3    H261964   0.655   6.248   1.757 -0.8783  0.6194 -0.9438
13517TIP3   OH261965   2.006   6.343   0.986 -0.4044 -0.4412 -0.2271
13517TIP3    H161966   2.063   6.398   0.932 -0.6139 -1.9194 -2.0430
13517TIP3    H261967   1.927   6.332   0.933 -1.0105 -1.1586  0.8058
13518TIP3   OH261968   6.642   2.204   3.666  0.1591 -0.0055  0.2570
13518TIP3    H161969   6.628   2.220   3.572 -0.6539 -0.1408  0.3475
13518TIP3    H261970   6.557   2.222   3.706  0.0274 -1.5992  0.7456
13519TIP3   OH261971   1.540   1.094  15.056 -0.2026 -0.2420  0.3563
13519TIP3    H161972   1.467   1.051  15.012 -0.0538 -1.2709  1.0853
13519TIP3    H261973   1.517   1.094  15.149  0.6787 -0.5161  0.5874
13520TIP3   OH261974   6.997   2.155   5.049 -0.0661 -0.4301 -0.3837
13520TIP3    H161975   6.920   2.137   4.996 -1.3981  0.8827  1.0571
13520TIP3    H261976   7.018   2.071   5.091 -0.7846 -0.7564 -0.6780
13521TIP3   OH261977   3.266   3.878   1.538 -0.1405  0.3481  0.2626
13521TIP3    H161978   3.240   3.934   1.464  0.2451  0.3374  0.1184
13521TIP3    H261979   3.195   3.814   1.545  0.4183 -0.4214 -0.9045
13522TIP3   OH261980   5.825   6.772   2.641 -0.6823  0.7289  0.4382
13522TIP3    H161981   5.751   6.722   2.676  0.1722 -1.7020 -1.0535
13522TIP3    H261982   5.902   6.731   2.680 -0.0619  2.3516  0.9208
13523TIP3   OH261983   3.036   6.828   2.265  0.3723 -0.5961  0.1248
13523TIP3    H161984   2.942   6.821   2.280  0.0223  0.4190 -1.5309
13523TIP3    H261985   3.046   6.826   2.170  1.8486  1.1487  0.2137
13524TIP3   OH261986   6.514   0.602   3.158  0.5268 -0.2015 -0.0338
13524TIP3    H161987   6.478   0.535   3.216 -0.5529  0.0822 -0.3597
13524TIP3    H261988   6.437   0.639   3.114  1.0923  1.3386  0.2394
13525TIP3   OH261989   3.218   7.152   1.427  0.2024  0.4483 -0.0595
13525TIP3    H161990   3.241   7.147   1.520  1.7215 -2.1116 -0.5068
13525TIP3    H261991   3.288   7.202   1.387  0.6724 -0.2667 -0.1394
13526TIP3   OH261992   1.754   2.137  14.657  0.6602  0.1175 -0.3531
13526TIP3    H161993   1.799   2.169  14.578  1.5233  0.8844  0.4390
13526TIP3    H261994   1.692   2.206  14.679  1.6590  0.7247  0.6429
13527TIP3   OH261995   2.640   2.151   2.104  0.8996  0.1977 -1.1387
13527TIP3    H161996   2.645   2.154   2.009  1.2431  1.0123 -1.0980
13527TIP3    H261997   2.567   2.208   2.127  1.4766  0.8388 -0.8620
13528TIP3   OH261998   4.438   4.132   5.299  0.0401  0.3415  0.1669
13528TIP3    H161999   4.520   4.083   5.294  0.7010  1.3113  1.2507
13528TIP3    H262000   4.435   4.184   5.219 -0.6005 -1.3448 -0.9277
13529TIP3   OH262001   0.737   2.770   4.685 -0.3954  0.4231  0.0999
13529TIP3    H162002   0.761   2.690   4.639 -0.2440  1.1740 -1.1323
13529TIP3    H262003   0.658   2.747   4.734 -1.1377 -0.0973 -1.3263
13530TIP3   OH262004   1.630   0.969   3.905  0.0779  0.1678 -0.4633
13530TIP3    H162005   1.636   0.995   3.996  0.3261 -1.3661 -0.0270
13530TIP3    H262006   1.536   0.956   3.889 -0.0026  0.8304 -0.5520
13531TIP3   OH262007   6.423   6.112   2.150 -0.0537 -0.6092 -0.0772
13531TIP3    H162008   6.514   6.098   2.123 -0.3323  1.3151 -2.2511
13531TIP3    H262009   6.371   6.065   2.085 -0.6281 -0.6670  0.4204
13532TIP3   OH262010   1.854   0.198   2.169 -0.0162 -0.0358  0.1716
13532TIP3    H162011   1.904   0.223   2.246  0.0577 -0.2999  0.2109
13532TIP3    H262012   1.905   0.126   2.130 -0.0163  0.1438 -0.1597
13533TIP3   OH262013   5.642   6.517  13.294 -0.0383  0.3845  0.1870
13533TIP3    H162014   5.568   6.572  13.319 -0.1705  0.5391 -0.5418
13533TIP3    H262015   5.632   6.504  13.199 -1.8099 -3.4445  0.7693
13534TIP3   OH262016   2.229   6.237   1.130  0.2666  0.1734 -0.1120
13534TIP3    H162017   2.145   6.271   1.103 -0.5813 -0.7151  1.3069
13534TIP3    H262018   2.294   6.290   1.084 -1.0267  2.5736  0.7910
13535TIP3   OH262019   4.942   2.850   1.581 -0.5115  0.3957 -0.4804
13535TIP3    H162020   4.853   2.851   1.617 -0.3472 -0.0996 -0.0480
13535TIP3    H262021   4.988   2.921   1.627 -0.7426  0.7976 -0.8662
13536TIP3   OH262022   3.311   6.638   4.713 -0.1551 -0.5873 -0.0060
13536TIP3    H162023   3.329   6.661   4.804 -0.2037 -0.7460  0.0435
13536TIP3    H262024   3.302   6.543   4.713  0.0924 -0.6127 -0.2195
13537TIP3   OH262025   0.647   3.221   2.596 -0.2904 -1.0197  0.2231
13537TIP3    H162026   0.654   3.227   2.501  1.4922  0.0678  0.4114
13537TIP3    H262027   0.567   3.271   2.617 -0.2891 -0.6453 -0.6337
13538TIP3   OH262028   2.516   3.582   1.793  0.0037 -0.1174  0.2022
13538TIP3    H162029   2.567   3.608   1.716 -0.1225 -1.7972 -0.4561
13538TIP3    H262030   2.427   3.608   1.772  0.3673  1.7302  0.8544
13539TIP3   OH262031   1.747   5.252  14.422 -0.1818  0.1583 -0.8755
13539TIP3    H162032   1.830   5.224  14.462 -0.7363 -3.8883 -2.3320
13539TIP3    H262033   1.698   5.292  14.494  1.6945 -0.4779  0.8014
13540TIP3   OH262034   1.446   0.999   4.765 -0.4959 -0.3880  0.3092
13540TIP3    H162035   1.467   1.085   4.802  0.6884 -1.3719  2.0175
13540TIP3    H262036   1.430   0.944   4.842  0.8342 -2.1965 -0.6778
13541TIP3   OH262037   3.479   5.011   3.483 -0.8476 -0.3690 -0.0107
13541TIP3    H162038   3.541   5.026   3.412 -0.3622 -0.1028  0.4630
13541TIP3    H262039   3.500   4.923   3.515  0.4161  0.3747  1.2534
13542TIP3   OH262040   7.058   0.409   2.924 -0.1283 -0.2458  0.0689
13542TIP3    H162041   7.146   0.428   2.956  0.3104 -0.5996 -0.9272
13542TIP3    H262042   7.071   0.360   2.843 -1.2391 -1.4200  0.5688
13543TIP3   OH262043   2.294   6.626   4.652  0.6411  0.1839  0.0639
13543TIP3    H162044   2.369   6.570   4.672  0.0710 -0.2090  1.1385
13543TIP3    H262045   2.221   6.565   4.643  0.3491  0.6099 -0.4563
13544TIP3   OH262046   5.806   5.847   1.711 -0.1069 -0.1968 -0.1117
13544TIP3    H162047   5.745   5.810   1.775  0.7907  0.0527  0.8924
13544TIP3    H262048   5.869   5.777   1.695 -0.7231 -0.5039 -1.2572
13545TIP3   OH262049   0.170   0.777   5.191 -0.1926  0.4053 -0.3485
13545TIP3    H162050   0.107   0.752   5.125  0.2002 -0.2581 -0.4740
13545TIP3    H262051   0.237   0.708   5.189 -0.3190  0.2293  0.9241
13546TIP3   OH262052   3.206   7.007   0.008  0.3887 -0.3891 -0.1255
13546TIP3    H162053   3.218   6.975   0.098 -3.2963 -1.9922 -0.1077
13546TIP3    H262054   3.176   7.097   0.019 -0.1949 -0.6273  0.2524
13547TIP3   OH262055   6.948   0.055   3.090 -0.0227  0.9102 -0.4043
13547TIP3    H162056   6.870   0.019   3.133  0.9059  0.3473  0.8235
13547TIP3    H262057   6.927   0.148   3.077 -1.4420  0.4788 -1.3592
13548TIP3   OH262058   4.557   1.581   2.347 -0.0387 -0.3893 -0.3237
13548TIP3    H162059   4.519   1.656   2.302 -0.2493 -0.2683  0.0533
13548TIP3    H262060   4.644   1.611   2.374 -0.4254 -0.0065  0.5269
13549TIP3   OH262061   0.053   5.061   5.034  0.2730 -0.0862 -0.1747
13549TIP3    H162062   0.055   5.039   4.941 -1.4064 -0.4606 -0.1434
13549TIP3    H262063  -0.034   5.033   5.063  0.9988 -0.5312  1.6455
13550TIP3   OH262064   4.936   4.628   3.108  0.1476 -0.7714 -0.3134
13550TIP3    H162065   4.847   4.598   3.086  0.5572 -1.3412 -1.2141
13550TIP3    H262066   4.963   4.680   3.033 -0.3189  1.3991  0.9836
13551TIP3   OH262067   5.658   6.705   3.735  0.2465  0.0540 -0.0292
13551TIP3    H162068   5.624   6.687   3.648 -0.4497 -0.0311  0.2531
13551TIP3    H262069   5.632   6.629   3.787 -0.4667  0.6977  0.5572
13552TIP3   OH262070   1.518   1.931   1.163  0.1223  0.1797 -0.6841
13552TIP3    H162071   1.507   1.860   1.226 -2.2661  0.5100 -0.6897
13552TIP3    H262072   1.557   2.002   1.215  2.2626 -1.0081 -0.6216
13553TIP3   OH262073   1.939   2.522   3.050 -0.1256  0.3074 -0.0728
13553TIP3    H162074   1.924   2.607   3.091 -1.4969  0.7733 -1.4668
13553TIP3    H262075   1.914   2.458   3.117 -1.6873  1.0436  0.0779
13554TIP3   OH262076   1.519   4.217   1.734 -0.2598  0.2211  0.0534
13554TIP3    H162077   1.453   4.285   1.720 -0.7297  0.1153  1.6286
13554TIP3    H262078   1.565   4.245   1.813 -0.5126 -1.3450  0.7626
13555TIP3   OH262079   5.788   5.594   4.708 -0.6176 -0.5521 -0.0069
13555TIP3    H162080   5.797   5.645   4.627 -0.0854  0.0143  0.4116
13555TIP3    H262081   5.796   5.658   4.778  0.8516 -1.3175  0.5379
13556TIP3   OH262082   1.804   4.832   2.248 -0.4344 -0.4657 -0.2604
13556TIP3    H162083   1.774   4.741   2.238 -1.2346 -0.3606  0.9551
13556TIP3    H262084   1.723   4.882   2.263  0.2002  0.0230  1.7592
13557TIP3   OH262085   2.324   0.724   1.377  0.7208  0.5700  0.9232
13557TIP3    H162086   2.380   0.658   1.418  0.9219 -2.1031 -3.3463
13557TIP3    H262087   2.236   0.687   1.385  0.7929 -0.0890 -1.1913
13558TIP3   OH262088   4.256   6.846   2.919 -0.2877 -0.1467  0.4105
13558TIP3    H162089   4.307   6.790   2.860 -0.0690  0.3911  0.0867
13558TIP3    H262090   4.321   6.886   2.976 -0.5575 -1.1985  1.4915
13559TIP3   OH262091   5.368   0.967   4.281  0.4211 -0.0064 -0.7119
13559TIP3    H162092   5.448   0.961   4.333 -0.6528  0.0297  0.9873
13559TIP3    H262093   5.361   1.060   4.257  0.4852  0.1242 -0.2207
13560TIP3   OH262094   6.698   0.275  14.067 -0.0465 -0.0603  0.2821
13560TIP3    H162095   6.676   0.196  14.018  0.0449  1.3548 -2.1329
13560TIP3    H262096   6.613   0.316  14.085  0.0862  1.4259 -2.2226
13561TIP3   OH262097   4.293   1.748   3.197 -0.0689  0.0436  0.3806
13561TIP3    H162098   4.328   1.738   3.286  0.2218 -1.5224  0.0869
13561TIP3    H262099   4.203   1.777   3.211 -0.0771 -0.3488  1.1903
13562TIP3   OH262100   6.601   7.151   4.637  0.5381 -0.4181 -0.4934
13562TIP3    H162101   6.618   7.105   4.555 -1.0222  2.7437 -2.7128
13562TIP3    H262102   6.611   7.244   4.615 -0.1276  0.5070  2.8433
13563TIP3   OH262103   1.586   3.400   3.378  0.2168 -0.1096 -0.0518
13563TIP3    H162104   1.674   3.421   3.410  0.2050  0.1290 -0.1762
13563TIP3    H262105   1.601   3.356   3.295  0.2306 -0.3558  0.0801
13564TIP3   OH262106   3.595   6.200   3.427 -0.3204  0.1048 -0.0832
13564TIP3    H162107   3.602   6.276   3.370 -1.6639 -0.3542 -0.8847
13564TIP3    H262108   3.657   6.136   3.390  1.0427  0.8858  0.7748
13565TIP3   OH262109   1.776   5.898   5.231  0.0979  0.3479 -0.0552
13565TIP3    H162110   1.693   5.881   5.274 -1.1482  2.8361 -1.3480
13565TIP3    H262111   1.777   5.838   5.157 -1.6536  1.8436 -1.3503
13566TIP3   OH262112   0.698   0.678   2.116 -0.0889  0.4444  0.0203
13566TIP3    H162113   0.648   0.754   2.146 -0.2438  0.6809 -0.8183
13566TIP3    H262114   0.761   0.662   2.186  1.6096  2.8858 -0.8908
13567TIP3   OH262115   5.123   3.257   2.390 -0.4822  0.0563  0.3552
13567TIP3    H162116   5.076   3.296   2.463  0.3562  1.3981  0.1902
13567TIP3    H262117   5.082   3.295   2.312  0.4045  0.7104  0.1985
13568TIP3   OH262118   0.652   1.709   4.803 -0.1776  0.1430  0.3476
13568TIP3    H162119   0.719   1.678   4.743 -2.5802 -0.8725 -1.8843
13568TIP3    H262120   0.661   1.653   4.880  1.4647 -0.0146  0.0604
13569TIP3   OH262121   2.352   6.659   1.718  0.5887  0.1658  0.3699
13569TIP3    H162122   2.417   6.692   1.780  2.4180 -0.6157 -1.1094
13569TIP3    H262123   2.403   6.615   1.650 -1.4860 -0.4887 -0.8065
13570TIP3   OH262124   1.320   3.985   4.519 -0.3228 -0.3128 -0.0698
13570TIP3    H162125   1.375   4.037   4.461  0.9536 -1.4411  0.1058
13570TIP3    H262126   1.372   3.973   4.598 -0.6769 -1.6580 -0.0248
13571TIP3   OH262127   6.757   0.948   2.053  0.5124 -0.1677 -0.0245
13571TIP3    H162128   6.776   1.041   2.059  0.1544 -0.1259  0.4772
13571TIP3    H262129   6.839   0.904   2.075  0.6134  0.0263 -0.0180
13572TIP3   OH262130   3.862   3.712   5.139  0.1172 -0.2106  0.6834
13572TIP3    H162131   3.780   3.674   5.171 -0.1597 -0.4716 -0.3274
13572TIP3    H262132   3.871   3.678   5.050  0.3032  1.3994  0.0782
13573TIP3   OH262133   1.330   4.106   1.008  0.1932  0.0877  0.4541
13573TIP3    H162134   1.348   4.135   1.098 -0.9344  0.1787  0.6589
13573TIP3    H262135   1.247   4.059   1.014  0.5543 -0.6741 -0.3930
13574TIP3   OH262136   4.087   7.026   1.566 -0.6900 -0.8932 -0.0075
13574TIP3    H162137   4.106   7.112   1.528 -0.4788 -1.1648 -0.5170
13574TIP3    H262138   4.134   6.964   1.510  0.1225 -1.2486  1.0500
13575TIP3   OH262139   6.154   6.822   1.941 -0.1342  0.1908  0.2457
13575TIP3    H162140   6.224   6.823   1.876  0.0168  1.9779  0.3961
13575TIP3    H262141   6.199   6.830   2.025 -0.4651  0.6260  0.3861
13576TIP3   OH262142   1.245   5.092   2.411  0.2335 -0.3393  0.3343
13576TIP3    H162143   1.299   5.021   2.446  0.5170  0.8183  2.3543
13576TIP3    H262144   1.156   5.057   2.408  0.2433 -0.5365  2.0688
13577TIP3   OH262145   3.305   6.955   2.075 -0.5879  0.3862  0.0255
13577TIP3    H162146   3.345   6.954   2.162 -0.2827  0.8717 -0.1057
13577TIP3    H262147   3.254   7.036   2.073  0.6812  1.1871 -0.8089
13578TIP3   OH262148   0.178   5.233  14.350 -0.2620  0.6632 -0.1160
13578TIP3    H162149   0.158   5.313  14.399  1.0426  0.3186  1.0323
13578TIP3    H262150   0.157   5.162  14.411 -0.4547  0.1681 -0.7559
13579TIP3   OH262151   2.273   2.355   3.410 -0.2033 -0.3325 -0.2199
13579TIP3    H162152   2.245   2.311   3.330  0.3197  0.2662 -0.7315
13579TIP3    H262153   2.358   2.317   3.430 -0.4813 -0.7199  0.2379
13580TIP3   OH262154   0.098   1.530  14.277 -0.1141 -0.1489  0.0432
13580TIP3    H162155   0.188   1.515  14.304 -0.0432  2.9345  1.7819
13580TIP3    H262156   0.104   1.578  14.195 -0.2308 -1.7436 -0.9187
13581TIP3   OH262157   0.851   0.573   3.007  0.3571 -0.2256 -0.4555
13581TIP3    H162158   0.819   0.564   3.097  0.7061  0.8817 -0.2136
13581TIP3    H262159   0.788   0.633   2.965 -0.2399 -1.3297 -1.1762
13582TIP3   OH262160   6.744   2.926   3.027  0.8038  0.4759  0.3487
13582TIP3    H162161   6.732   3.018   3.051  1.0034  0.5461  0.1810
13582TIP3    H262162   6.707   2.877   3.101  1.3239  0.6899  0.7570
13583TIP3   OH262163   0.459   2.076   2.447 -0.5611 -0.1803 -0.6596
13583TIP3    H162164   0.401   2.095   2.373 -0.8892  0.9170 -0.1195
13583TIP3    H262165   0.430   2.135   2.516  0.6231 -0.2683 -0.0862
13584TIP3   OH262166   0.953   5.116   0.672 -0.1665 -0.1877 -0.3039
13584TIP3    H162167   0.953   5.034   0.623 -0.0327 -1.4498  1.7586
13584TIP3    H262168   0.861   5.128   0.698 -0.5255  1.2825 -2.1092
13585TIP3   OH262169   0.232   0.893   4.286  0.2132 -0.7127 -0.0150
13585TIP3    H162170   0.304   0.853   4.236 -0.1895  0.2547 -1.4258
13585TIP3    H262171   0.175   0.930   4.218 -0.2381  0.8282  1.1853
13586TIP3   OH262172   0.891   3.321  15.041  0.6355  0.2598  0.4789
13586TIP3    H162173   0.805   3.349  15.075  0.3433 -0.8668  0.6795
13586TIP3    H262174   0.947   3.397  15.056  0.1858  0.2787  2.2997
13587TIP3   OH262175   1.507   4.486   3.276 -0.4171 -0.4323 -0.0550
13587TIP3    H162176   1.517   4.568   3.324 -1.0512  0.2139 -1.0018
13587TIP3    H262177   1.592   4.471   3.234  0.2381 -1.1624  1.4903
13588TIP3   OH262178   0.367   1.830  14.453  0.2238  0.4547  0.2819
13588TIP3    H162179   0.300   1.799  14.393  1.4126 -0.7526 -0.4255
13588TIP3    H262180   0.329   1.818  14.540 -0.1364 -1.0866 -0.0762
13589TIP3   OH262181   2.876   1.333   1.834  0.3558 -0.3437 -0.2360
13589TIP3    H162182   2.820   1.272   1.786 -0.7456  1.2260 -0.9541
13589TIP3    H262183   2.823   1.362   1.907  0.7073  0.1454 -0.1757
13590TIP3   OH262184   5.417   3.476  15.476  0.0253  0.2359  0.3849
13590TIP3    H162185   5.453   3.561  15.449  0.7590  0.0960  0.9095
13590TIP3    H262186   5.323   3.487  15.470  0.1466  0.5795 -1.1198
13591TIP3   OH262187   2.002   6.091   4.818  0.0593 -0.1206  0.1362
13591TIP3    H162188   1.969   6.159   4.759  1.3152 -0.7214 -1.2725
13591TIP3    H262189   1.932   6.081   4.883 -1.3420  0.5860 -1.2073
13592TIP3   OH262190   1.636   6.607   2.723 -0.3643 -0.2802  0.0551
13592TIP3    H162191   1.587   6.613   2.805  0.6741 -1.4083  0.7714
13592TIP3    H262192   1.597   6.532   2.677 -1.1488  0.5326 -0.6500
13593TIP3   OH262193   2.634   0.420   0.179  0.7750 -0.1209  0.0277
13593TIP3    H162194   2.719   0.378   0.162  0.8985  0.2479 -0.2796
13593TIP3    H262195   2.650   0.475   0.256  0.6738 -0.4606  0.2916
13594TIP3   OH262196   5.756   4.292   0.634  0.4789  0.0600  0.1316
13594TIP3    H162197   5.704   4.289   0.554  1.8081 -2.1627 -0.6955
13594TIP3    H262198   5.715   4.228   0.692  1.7022 -1.0468 -0.1902
13595TIP3   OH262199   6.947   5.178  14.357  0.0792  0.5423  0.1244
13595TIP3    H162200   7.006   5.139  14.292  0.2620  0.2261  0.4748
13595TIP3    H262201   6.859   5.163  14.322  0.1690  0.2213  0.0323
13596TIP3   OH262202   1.463   3.475   4.749  0.0092 -0.2057  0.0631
13596TIP3    H162203   1.417   3.537   4.805 -0.3184 -0.5385  0.1623
13596TIP3    H262204   1.488   3.403   4.808 -0.5242 -0.6599 -0.2588
13597TIP3   OH262205   0.460   7.022   1.015 -0.5554  0.4520  0.7356
13597TIP3    H162206   0.391   7.047   0.954 -0.3085  0.8962  0.6439
13597TIP3    H262207   0.536   7.004   0.960 -0.0005  1.9609  0.9928
13598TIP3   OH262208   0.037   7.012   4.239 -0.5936  0.1818  0.2243
13598TIP3    H162209   0.071   7.013   4.150  0.9674  0.8031  0.8183
13598TIP3    H262210  -0.014   7.093   4.246  0.3622  0.7887  0.2943
13599TIP3   OH262211   6.455   4.494   4.151  0.5893 -0.6896  0.5040
13599TIP3    H162212   6.476   4.545   4.072 -1.1484  0.1299  0.5545
13599TIP3    H262213   6.514   4.418   4.146  1.3966  0.0010 -0.9166
13600TIP3   OH262214   0.769   6.522   2.111 -0.3883 -0.1566  0.8782
13600TIP3    H162215   0.770   6.430   2.083 -0.4478  0.0350  0.2269
13600TIP3    H262216   0.677   6.547   2.107 -0.3292  0.0349  0.7038
13601TIP3   OH262217   0.433   1.587  15.440  0.7180  0.0282 -0.1402
13601TIP3    H162218   0.518   1.620  15.467  0.7756  0.9756 -1.3959
13601TIP3    H262219   0.452   1.504  15.396  0.9929  0.1760 -0.3040
13602TIP3   OH262220   3.909   3.999   1.881 -0.4164 -0.5084  0.5380
13602TIP3    H162221   3.980   4.053   1.844  1.2809 -2.6188  0.6609
13602TIP3    H262222   3.862   3.967   1.804 -0.1514 -0.5361  0.3850
13603TIP3   OH262223   6.389   4.469  12.946 -0.4995  0.5392  0.5606
13603TIP3    H162224   6.441   4.463  12.866  2.3897 -4.5933  2.5744
13603TIP3    H262225   6.303   4.437  12.921 -0.0516  0.4179 -0.8695
13604TIP3   OH262226   5.369   2.111   2.490 -0.4632  0.5373  0.0202
13604TIP3    H162227   5.394   2.030   2.534  0.8313  1.6720  1.4610
13604TIP3    H262228   5.310   2.154   2.552 -1.3344  0.5878 -0.8421
13605TIP3   OH262229   1.286   1.650   0.067  0.0217 -0.5906  0.7180
13605TIP3    H162230   1.193   1.627   0.068  0.1697 -1.1946  0.3688
13605TIP3    H262231   1.293   1.721   0.131 -0.7158 -0.3982  0.5907
13606TIP3   OH262232   4.084   1.207   2.216 -0.0917  0.2852  0.2355
13606TIP3    H162233   4.163   1.154   2.209 -0.5815 -0.4420  0.1366
13606TIP3    H262234   4.085   1.240   2.305  0.5272  0.5990  0.1134
13607TIP3   OH262235   3.354   5.609   5.058 -0.0687 -0.2578  0.1459
13607TIP3    H162236   3.397   5.536   5.015  0.8601  0.9435 -0.9959
13607TIP3    H262237   3.316   5.661   4.987  0.4862  1.1260  0.8346
13608TIP3   OH262238   1.013   2.762   5.318 -0.5220  0.8441 -0.1833
13608TIP3    H162239   1.039   2.853   5.326 -1.5277  0.9207  2.8141
13608TIP3    H262240   0.918   2.765   5.303 -0.3786  0.3242 -1.2167
13609TIP3   OH262241   4.849   6.984   2.065 -0.0229 -0.2809  0.3760
13609TIP3    H162242   4.924   7.031   2.101 -1.1097  1.7182  0.1060
13609TIP3    H262243   4.877   6.892   2.063  2.9506  0.6037 -1.0930
13610TIP3   OH262244   0.308   2.727   3.604  0.2258  0.5431 -0.1581
13610TIP3    H162245   0.284   2.643   3.644  2.6199 -1.0811 -1.9201
13610TIP3    H262246   0.362   2.770   3.670  2.3411 -1.1485 -0.7107
13611TIP3   OH262247   5.022   2.090   3.515 -0.1167 -0.3886 -0.1884
13611TIP3    H162248   4.946   2.049   3.556 -2.0335  2.1881 -1.1182
13611TIP3    H262249   5.042   2.165   3.571  1.1895 -0.4904 -0.4908
13612TIP3   OH262250   2.569   2.273   3.099 -0.3614  0.2407  0.1138
13612TIP3    H162251   2.492   2.331   3.102 -0.5021  0.0153  0.9931
13612TIP3    H262252   2.553   2.216   3.024 -0.5549  0.8856 -0.3394
13613TIP3   OH262253   2.287   1.569   0.628  0.0143 -0.5045  0.5760
13613TIP3    H162254   2.194   1.553   0.643 -0.1034  0.7344  1.2053
13613TIP3    H262255   2.331   1.506   0.685 -0.4306 -1.3288  0.0175
13614TIP3   OH262256   3.007   2.306   2.380 -0.1994 -0.0461  0.2631
13614TIP3    H162257   2.965   2.280   2.462 -0.5342  0.2336  0.1850
13614TIP3    H262258   2.950   2.375   2.346 -0.8526 -1.1124 -0.8932
13615TIP3   OH262259   2.945   1.917   2.394 -0.0217 -0.4800 -0.6100
13615TIP3    H162260   2.950   1.925   2.489  1.4735  1.7520 -0.8285
13615TIP3    H262261   2.886   1.988   2.368  0.2308 -0.5584 -1.4069
13616TIP3   OH262262   4.837   2.689   5.688 -0.0160  0.4386  0.0567
13616TIP3    H162263   4.752   2.730   5.669 -1.4531 -1.9306  1.1809
13616TIP3    H262264   4.825   2.597   5.665  1.4019 -0.4485  2.6876
13617TIP3   OH262265   4.487   2.492   4.844 -0.0612 -0.6145 -0.3478
13617TIP3    H162266   4.419   2.559   4.849  0.6511  0.1735 -1.1657
13617TIP3    H262267   4.497   2.461   4.934 -0.1644  0.5928  0.0818
13618TIP3   OH262268   3.562   2.047   5.074  0.8594 -0.0606  0.1948
13618TIP3    H162269   3.508   2.091   5.009  0.8939 -0.8919 -0.4047
13618TIP3    H262270   3.629   2.002   5.023 -0.0208 -1.9714  0.6921
13619TIP3   OH262271   3.208   6.182   3.396 -0.1349  0.2789  0.0984
13619TIP3    H162272   3.232   6.203   3.306 -0.9972 -0.2507 -0.2649
13619TIP3    H262273   3.120   6.218   3.406 -1.2762 -2.3606 -0.2556
13620TIP3   OH262274   2.117   6.351   4.156 -0.0842  0.2516 -0.2694
13620TIP3    H162275   2.024   6.343   4.178  0.2050 -1.8554  0.3875
13620TIP3    H262276   2.149   6.261   4.158  2.0039  0.9691 -0.3689
13621TIP3   OH262277   5.434   6.371   2.713 -0.9703  0.0450 -0.2389
13621TIP3    H162278   5.365   6.377   2.647 -1.1358  0.6753 -0.0033
13621TIP3    H262279   5.496   6.307   2.676 -0.3248  1.4680 -1.6884
13622TIP3   OH262280   1.502   2.341   1.659 -0.2592 -0.3322 -0.8210
13622TIP3    H162281   1.555   2.303   1.729  0.0240  1.5785  0.0318
13622TIP3    H262282   1.539   2.304   1.579  1.7496  0.1850 -0.1763
13623TIP3   OH262283   6.857   2.209   4.563 -0.1157 -0.0113 -0.0212
13623TIP3    H162284   6.910   2.175   4.635 -0.7299 -1.3774 -0.1973
13623TIP3    H262285   6.921   2.244   4.500  0.5138 -0.6067  0.2861
13624TIP3   OH262286   0.913   6.651   4.323 -0.3782  0.5993 -0.5614
13624TIP3    H162287   0.849   6.608   4.267 -0.9314  2.4617 -1.3778
13624TIP3    H262288   0.913   6.742   4.295 -0.0460  1.3901  1.8932
13625TIP3   OH262289   1.383   0.495   1.610  1.2087  0.1004  0.9033
13625TIP3    H162290   1.313   0.430   1.607  1.3745 -0.1342  1.9704
13625TIP3    H262291   1.344   0.570   1.654  1.5207  0.0910  1.2028
13626TIP3   OH262292   3.962   6.801   4.144  0.0127 -0.1572 -0.4774
13626TIP3    H162293   3.948   6.857   4.220  2.3410 -0.0679 -0.1024
13626TIP3    H262294   3.934   6.714   4.174 -1.4528  0.3385 -0.3462
13627TIP3   OH262295   2.680   2.205   4.219 -0.0902 -0.3213  0.3384
13627TIP3    H162296   2.738   2.238   4.287 -0.6020  0.6361  0.3297
13627TIP3    H262297   2.733   2.144   4.169  0.3330 -0.9269  1.5039
13628TIP3   OH262298   6.978   2.314   1.546  0.0199 -0.5995 -0.1133
13628TIP3    H162299   6.989   2.396   1.594  0.5528 -0.6643 -0.1250
13628TIP3    H262300   7.053   2.261   1.572  0.2304 -0.6886 -0.9150
13629TIP3   OH262301   6.198   1.850   5.432 -0.2423  0.4339  0.0276
13629TIP3    H162302   6.272   1.816   5.381  0.0196  2.3326 -0.8963
13629TIP3    H262303   6.209   1.945   5.430 -2.3425  0.7155  0.4381
13630TIP3   OH262304   4.579   1.610  13.832 -0.2425 -0.3335  0.7695
13630TIP3    H162305   4.490   1.574  13.832  0.3837 -1.9356  0.0885
13630TIP3    H262306   4.633   1.540  13.796  1.2125  0.8547  0.5905
13631TIP3   OH262307   2.281   2.209   2.369  0.6567 -0.1600 -0.0750
13631TIP3    H162308   2.257   2.279   2.430  0.1977  0.0029 -0.4351
13631TIP3    H262309   2.227   2.226   2.292  0.4121 -1.0145 -0.0963
13632TIP3   OH262310   4.257   2.577   4.250 -0.7143  0.8596 -0.9699
13632TIP3    H162311   4.309   2.646   4.291 -0.0487 -0.8674  1.1538
13632TIP3    H262312   4.208   2.538   4.322 -1.2599 -0.7410 -2.1850
13633TIP3   OH262313   3.878   2.576   4.907 -0.3944  0.0365 -0.1277
13633TIP3    H162314   3.801   2.542   4.952  0.0710  0.4419  0.9913
13633TIP3    H262315   3.881   2.528   4.825 -0.7408 -1.3695  0.6758
13634TIP3   OH262316   6.747   5.217   2.563 -1.3155  0.0390 -0.9676
13634TIP3    H162317   6.814   5.189   2.500 -0.1137 -0.4322  0.4764
13634TIP3    H262318   6.728   5.138   2.615 -0.3648  1.0238  0.9392
13635TIP3   OH262319   2.918   1.133   5.037 -0.7340 -0.1965  0.0236
13635TIP3    H162320   2.945   1.208   4.984 -0.0503 -0.7882 -0.4864
13635TIP3    H262321   2.865   1.171   5.108 -1.9568  0.5720 -1.2709
13636TIP3   OH262322   1.029   0.293   2.672  0.5967  0.1657  0.2042
13636TIP3    H162323   0.949   0.254   2.637  1.4274 -1.7978  0.4564
13636TIP3    H262324   1.004   0.384   2.692 -0.9557  0.2110 -1.7564
13637TIP3   OH262325   1.945   6.331   5.486  0.5560 -0.7030  0.4274
13637TIP3    H162326   1.855   6.306   5.507 -0.0305  0.3990 -0.7245
13637TIP3    H262327   1.992   6.323   5.569  0.0270 -3.9128  0.4935
13638TIP3   OH262328   2.217   0.958   5.570 -0.1698 -0.0927  0.6976
13638TIP3    H162329   2.308   0.929   5.560  0.0341  0.9945 -0.8100
13638TIP3    H262330   2.223   1.037   5.624 -0.1384  0.3314  0.0850
13639TIP3   OH262331   2.602   1.853   5.129 -0.3055  0.3416  0.5381
13639TIP3    H162332   2.599   1.764   5.163  0.4641  0.5292  1.0999
13639TIP3    H262333   2.623   1.908   5.205  0.1800  0.8968  0.0169
13640TIP3   OH262334   3.396   1.775   5.467  0.4130 -0.1361 -0.1282
13640TIP3    H162335   3.424   1.808   5.553  0.1927  1.0378 -0.4976
13640TIP3    H262336   3.394   1.852   5.411  3.9368 -1.4086 -2.1595
13641TIP3   OH262337   5.632   3.706   5.083 -0.5149  0.1425 -0.0279
13641TIP3    H162338   5.640   3.765   5.158 -1.5160  0.3976 -0.1135
13641TIP3    H262339   5.552   3.734   5.039  0.1286  0.0534 -1.2541
13642TIP3   OH262340   5.575   6.468   4.542  0.4165  0.2201  0.5962
13642TIP3    H162341   5.666   6.445   4.525  0.2386  0.0080 -0.0894
13642TIP3    H262342   5.579   6.557   4.578  0.7327  1.1849 -1.6931
13643TIP3   OH262343   3.728   0.960   3.702 -0.7098 -0.1995 -0.2477
13643TIP3    H162344   3.770   0.979   3.618 -0.9452 -0.3085 -0.3891
13643TIP3    H262345   3.645   0.918   3.679 -0.7065 -0.3669  0.0407
13644TIP3   OH262346   4.141   0.957   3.326 -0.1339 -0.3299  0.2920
13644TIP3    H162347   4.086   0.953   3.405 -0.8513  0.5736 -0.1601
13644TIP3    H262348   4.129   0.871   3.285  0.2373 -0.8044  1.1616
13645TIP3   OH262349   4.530   0.787   0.515  0.0486  0.2629  0.0921
13645TIP3    H162350   4.600   0.852   0.522 -0.3851  0.8138 -0.5703
13645TIP3    H262351   4.506   0.787   0.422  0.4360 -1.2730 -0.0318
13646TIP3   OH262352   3.368   2.349   4.422  0.0624 -0.2765  0.0873
13646TIP3    H162353   3.315   2.374   4.497  0.1597 -1.5944  0.6057
13646TIP3    H262354   3.308   2.353   4.347 -0.8251 -1.8910  0.6855
13647TIP3   OH262355   4.254   5.354   3.858  0.0003  0.3742  0.0154
13647TIP3    H162356   4.211   5.287   3.912 -0.8664 -0.1951 -1.3683
13647TIP3    H262357   4.343   5.321   3.847 -0.1967 -0.1571 -0.0020
13648TIP3   OH262358   5.686   0.010   3.832 -0.0814  0.8724 -0.1339
13648TIP3    H162359   5.710  -0.079   3.857  0.5453  0.2343 -2.9204
13648TIP3    H262360   5.606   0.027   3.881  0.9308 -0.4124  2.0639
13649TIP3   OH262361   0.288   0.361   3.915  0.4097  0.1719 -0.0018
13649TIP3    H162362   0.271   0.340   4.007  0.7948  0.1254  0.0596
13649TIP3    H262363   0.328   0.282   3.879  0.4418  0.2605 -0.1615
13650TIP3   OH262364   2.599   2.913   5.080  0.3590 -0.5015 -0.6178
13650TIP3    H162365   2.664   2.849   5.048  0.7040 -0.0037 -0.9227
13650TIP3    H262366   2.521   2.860   5.100  0.2569 -0.8813 -1.9551
13651TIP3   OH262367   3.263   1.106   1.592 -0.4994  0.5072  0.1643
13651TIP3    H162368   3.339   1.139   1.543  1.4989 -0.7112  2.3438
13651TIP3    H262369   3.199   1.178   1.587  0.8640  1.6679 -1.4941
13652TIP3   OH262370   4.974   0.702   0.122  0.3917  0.2295 -0.3541
13652TIP3    H162371   4.986   0.772   0.057 -0.0790  0.4790 -0.1781
13652TIP3    H262372   4.892   0.725   0.166  0.8067  0.1682  0.4642
13653TIP3   OH262373   6.013   0.252   2.931 -0.3057 -0.3129 -0.3529
13653TIP3    H162374   5.957   0.183   2.966 -1.3316 -0.0816 -1.5178
13653TIP3    H262375   6.087   0.206   2.892 -0.5653 -0.7044 -0.3807
13654TIP3   OH262376   6.435   5.724   2.838  0.0956 -0.6368  0.4869
13654TIP3    H162377   6.477   5.764   2.914 -1.4031 -0.1912  1.1055
13654TIP3    H262378   6.491   5.747   2.764  0.5827  0.4938  1.1946
13655TIP3   OH262379   6.645   0.905   1.174 -0.3587 -0.1508  0.0314
13655TIP3    H162380   6.651   0.950   1.258  0.2456  0.9239 -0.5933
13655TIP3    H262381   6.566   0.941   1.133  0.8478  1.3161 -1.0368
13656TIP3   OH262382   6.226   5.580   2.990  0.3804  0.7317  0.1522
13656TIP3    H162383   6.287   5.609   2.922  0.1528  1.4375  0.2433
13656TIP3    H262384   6.177   5.510   2.949 -0.1023  1.4897 -0.5949
13657TIP3   OH262385   6.344   2.985   2.544  0.2998 -0.2255 -0.0627
13657TIP3    H162386   6.276   2.944   2.491 -1.7359  0.3037  2.0397
13657TIP3    H262387   6.426   2.951   2.508 -1.1047 -1.8037 -1.9074
13658TIP3   OH262388   0.356   0.051   1.792  0.2650  0.0646 -0.0321
13658TIP3    H162389   0.276   0.038   1.740 -0.4866  1.2781  0.8018
13658TIP3    H262390   0.361   0.145   1.804  0.0733 -0.2443  2.6696
13659TIP3   OH262391   6.591   2.730   0.879  0.2313 -0.3137  0.5619
13659TIP3    H162392   6.685   2.726   0.859  0.1985  0.4439  0.2590
13659TIP3    H262393   6.550   2.762   0.799 -0.0416  1.4543  1.3799
13660TIP3   OH262394   6.028   0.400   1.285  0.6423 -0.0258 -0.0995
13660TIP3    H162395   6.040   0.319   1.334  0.9959 -0.9860 -1.7320
13660TIP3    H262396   6.021   0.372   1.194  1.5923  1.8457 -0.7745
13661TIP3   OH262397   0.531   6.777   0.005  0.4346 -0.0099  0.0771
13661TIP3    H162398   0.521   6.691   0.045  0.6857 -0.5112 -0.9177
13661TIP3    H262399   0.447   6.793  -0.039  0.4991  0.1191 -0.0007
13662TIP3   OH262400   6.517   5.747   4.293  0.0134  0.1398  0.1475
13662TIP3    H162401   6.556   5.661   4.279 -1.9046 -0.5559 -1.0614
13662TIP3    H262402   6.556   5.778   4.375  1.1219 -1.6436  0.3217
13663TIP3   OH262403   0.314   4.918   5.022  1.0242 -0.1138  0.0013
13663TIP3    H162404   0.376   4.971   4.971 -0.2970  0.0481 -1.4611
13663TIP3    H262405   0.238   4.975   5.035  0.0075 -1.2858 -0.7026
13664TIP3   OH262406   1.485   2.829   5.785 -0.1168  0.3800  0.5635
13664TIP3    H162407   1.455   2.765   5.850  0.1901  0.8571  1.1782
13664TIP3    H262408   1.404   2.869   5.752 -0.2784  0.1048  0.6280
13665TIP3   OH262409   5.092   0.088   4.562  0.8397 -0.0848 -0.2832
13665TIP3    H162410   5.072   0.171   4.519  1.5190 -0.2765 -0.9765
13665TIP3    H262411   5.187   0.081   4.557  0.7402 -1.2082 -0.8092
13666TIP3   OH262412   6.489   0.408   2.158  0.1926 -0.5008 -0.2083
13666TIP3    H162413   6.520   0.498   2.149 -0.3518 -0.0385  2.1980
13666TIP3    H262414   6.476   0.397   2.252  0.2000 -3.0901 -0.4895
13667TIP3   OH262415   4.719   5.894   2.942 -0.2128 -0.4134 -0.1278
13667TIP3    H162416   4.745   5.985   2.927 -0.7702 -0.1032  0.7148
13667TIP3    H262417   4.718   5.854   2.855 -0.3826  0.5048 -0.5512
13668TIP3   OH262418   4.007   2.258   4.593 -0.5891 -0.1324  0.2586
13668TIP3    H162419   3.946   2.331   4.596 -1.0059 -0.4055 -1.0576
13668TIP3    H262420   4.043   2.252   4.682 -1.5786  0.7844  0.7265
13669TIP3   OH262421   4.641   1.088   0.876  0.0468  0.9228  0.2201
13669TIP3    H162422   4.710   1.144   0.838  1.2320  0.6315  1.8770
13669TIP3    H262423   4.580   1.150   0.916 -1.2636  1.2358 -2.2033
13670TIP3   OH262424   1.805   3.519   3.099  0.1497  0.8211  0.0510
13670TIP3    H162425   1.871   3.507   3.031 -2.0783 -0.2497 -1.9720
13670TIP3    H262426   1.814   3.611   3.124  3.1949  0.4175  0.7020
13671TIP3   OH262427   6.620   4.540   5.390 -0.1183 -0.0266  0.1907
13671TIP3    H162428   6.535   4.502   5.369  0.2737 -0.9794  0.3082
13671TIP3    H262429   6.619   4.550   5.485  0.8891 -2.5165  0.5221
13672TIP3   OH262430   4.799   0.762   4.679 -0.0945 -0.3811 -0.4000
13672TIP3    H162431   4.842   0.794   4.759  0.5336  0.0912 -0.9165
13672TIP3    H262432   4.718   0.722   4.709  1.5498 -2.9143  0.7971
13673TIP3   OH262433   0.133   0.693   1.681 -0.3670 -0.2300  0.1540
13673TIP3    H162434   0.101   0.614   1.724 -0.3834 -0.1792  0.2352
13673TIP3    H262435   0.092   0.691   1.594  2.8887 -2.4654 -1.4137
13674TIP3   OH262436   1.924   1.851   3.861  0.1489  0.7102 -0.9223
13674TIP3    H162437   1.829   1.864   3.864  0.2261  1.1598 -0.3307
13674TIP3    H262438   1.942   1.830   3.769 -0.6789 -0.6929 -0.7738
13675TIP3   OH262439   2.172   6.587   2.705  1.0117  0.2554 -0.1734
13675TIP3    H162440   2.231   6.527   2.659  1.5408  0.9940 -0.4684
13675TIP3    H262441   2.086   6.547   2.697  1.5090 -1.0005  0.5251
13676TIP3   OH262442   3.363   0.165   4.990 -1.0029  0.7241  0.1932
13676TIP3    H162443   3.299   0.131   4.928  1.6291 -0.6296 -1.8906
13676TIP3    H262444   3.389   0.249   4.955  0.3251  0.0588 -0.4424
13677TIP3   OH262445   1.276   0.906   3.172  0.2682  0.0217 -0.6660
13677TIP3    H162446   1.227   0.869   3.246  1.2465  0.3999  0.1684
13677TIP3    H262447   1.262   1.000   3.179  0.8355  0.1000 -0.6410
13678TIP3   OH262448   3.843   5.151   2.346  0.2264  0.0302  0.3694
13678TIP3    H162449   3.835   5.165   2.440 -1.5677 -0.6278  0.3302
13678TIP3    H262450   3.894   5.225   2.315  2.7017 -0.8363  2.1636
13679TIP3   OH262451   0.682   4.159   4.490  0.1065  0.2687 -0.1888
13679TIP3    H162452   0.679   4.153   4.394 -0.2720 -2.8745 -0.0190
13679TIP3    H262453   0.762   4.209   4.508  2.2958 -2.4120 -2.0724
13680TIP3   OH262454   1.428   0.432  15.525 -0.2738 -0.3631 -0.0710
13680TIP3    H162455   1.431   0.368  15.596 -1.2473 -0.5547 -0.2020
13680TIP3    H262456   1.411   0.380  15.446 -1.9558  0.1354 -0.0570
13681TIP3   OH262457   5.168   4.417   3.108  0.9699  0.3278  0.0056
13681TIP3    H162458   5.142   4.330   3.076  1.8578 -0.2442  0.8113
13681TIP3    H262459   5.086   4.466   3.114  0.3469 -0.7385  0.3794
13682TIP3   OH262460   3.277   0.340   3.227  0.5470  0.0351  0.7069
13682TIP3    H162461   3.222   0.363   3.302 -1.3629  2.8257 -1.4129
13682TIP3    H262462   3.334   0.416   3.215  1.0524 -0.5175 -0.4443
13683TIP3   OH262463   4.019   6.372  13.484 -0.1094 -0.0540 -0.0379
13683TIP3    H162464   3.965   6.451  13.488 -0.3023 -0.2653  2.9689
13683TIP3    H262465   3.962   6.302  13.516  1.1691 -0.7103  0.8939
13684TIP3   OH262466   2.136   0.073   2.979  0.2790  0.2224 -0.7168
13684TIP3    H162467   2.165  -0.007   2.934  1.1549 -0.9009  1.7385
13684TIP3    H262468   2.194   0.141   2.946 -1.2017  0.1264 -3.6880
13685TIP3   OH262469   4.499   2.774   2.186  1.0786 -0.6951  0.1628
13685TIP3    H162470   4.566   2.725   2.138 -0.5846 -0.6987 -2.2099
13685TIP3    H262471   4.421   2.720   2.180 -0.4453  1.5733 -1.3601
13686TIP3   OH262472   3.005   2.563   6.189 -0.6936  0.3323 -0.2851
13686TIP3    H162473   3.036   2.632   6.248 -0.7208  1.6129 -1.7300
13686TIP3    H262474   3.054   2.577   6.109 -2.1287 -0.1043 -1.2606
13687TIP3   OH262475   3.408   0.365   4.037 -0.5041  0.7845  0.2489
13687TIP3    H162476   3.401   0.275   4.068 -0.0150  1.2440  1.7168
13687TIP3    H262477   3.489   0.398   4.075 -0.3975  1.6907 -0.7185
13688TIP3   OH262478   3.436   0.230   1.150  0.0947  0.4045  0.0381
13688TIP3    H162479   3.529   0.216   1.170  0.0553 -0.7139 -0.4863
13688TIP3    H262480   3.436   0.289   1.075  0.4468 -0.8492 -0.9697
13689TIP3   OH262481   5.567   2.425   1.915  0.2748 -0.1194  0.1376
13689TIP3    H162482   5.629   2.498   1.911 -0.5808  0.5466 -1.9067
13689TIP3    H262483   5.616   2.349   1.885 -0.5304  0.9325 -4.2680
13690TIP3   OH262484   2.119   6.885   5.243 -0.6272  0.2978  0.2637
13690TIP3    H162485   2.179   6.859   5.313 -0.2961  1.4418  0.4085
13690TIP3    H262486   2.065   6.807   5.228  0.4759 -0.5354  0.5664
13691TIP3   OH262487   6.994   0.570   1.333 -0.5051  0.4990  0.2305
13691TIP3    H162488   6.905   0.590   1.304 -0.3350  1.1400  0.1579
13691TIP3    H262489   7.045   0.567   1.252 -0.1887  1.4788  0.3988
13692TIP3   OH262490   4.162   1.293   4.744 -0.1047 -0.4707  0.0432
13692TIP3    H162491   4.178   1.312   4.651 -0.5737 -2.4108 -0.4441
13692TIP3    H262492   4.077   1.248   4.745 -1.5182  2.0819  1.7252
13693TIP3   OH262493   1.111   0.536   4.051  0.2120 -0.4900  0.4145
13693TIP3    H162494   1.030   0.523   4.101  0.3160  1.2811  1.1107
13693TIP3    H262495   1.083   0.539   3.960 -0.5375  0.1582  0.6569
13694TIP3   OH262496   1.071   0.696   1.758  0.2572  0.0302 -0.0972
13694TIP3    H162497   1.069   0.648   1.841 -0.5347 -0.5917 -0.4748
13694TIP3    H262498   1.157   0.739   1.758 -0.2776  1.1805  1.6863
13695TIP3   OH262499   2.815   4.149   2.647 -0.5735 -0.3517  0.5974
13695TIP3    H162500   2.804   4.060   2.614  0.3972 -0.1253 -0.4054
13695TIP3    H262501   2.726   4.185   2.650 -0.7758 -0.6801 -0.9781
13696TIP3   OH262502   5.585   1.676   2.913  0.3076 -0.0386  0.1025
13696TIP3    H162503   5.503   1.709   2.949  0.7319  0.6768  0.4148
13696TIP3    H262504   5.602   1.731   2.837 -0.3676 -1.2754 -0.9791
13697TIP3   OH262505   4.756   0.418   5.248  0.2268  0.4433  0.1449
13697TIP3    H162506   4.699   0.348   5.279 -0.9350  1.4272  0.2549
13697TIP3    H262507   4.697   0.480   5.205  1.2966  1.1495 -0.3217
13698TIP3   OH262508   0.718   5.104   3.888  0.1479 -0.3151 -0.1898
13698TIP3    H162509   0.625   5.126   3.886  0.3383  0.5244 -0.1755
13698TIP3    H262510   0.732   5.063   3.973 -0.2936 -0.8368 -0.3674
13699TIP3   OH262511   4.397   4.236  15.396  0.0090 -0.2028 -0.2780
13699TIP3    H162512   4.338   4.291  15.343 -0.5202 -0.6274 -0.1382
13699TIP3    H262513   4.445   4.299  15.451  0.0028  0.1822 -0.7060
13700TIP3   OH262514   0.130   2.519   1.990 -0.3284 -0.1693 -0.1081
13700TIP3    H162515   0.186   2.446   1.967 -0.4245 -0.1899 -0.2803
13700TIP3    H262516   0.069   2.527   1.917  0.3353  0.7328 -0.5720
13701TIP3   OH262517   0.636   1.748   2.006 -0.4355 -0.8196 -0.4903
13701TIP3    H162518   0.584   1.800   2.066 -0.2138 -0.9101 -0.2199
13701TIP3    H262519   0.720   1.737   2.050  0.1261  0.0741 -1.2948
13702TIP3   OH262520   1.768   3.918   1.812  0.0356 -0.1243  0.2626
13702TIP3    H162521   1.805   3.961   1.890 -0.5634  1.5672 -0.3611
13702TIP3    H262522   1.802   3.969   1.738 -2.0554  0.3473 -0.4141
13703TIP3   OH262523   3.549   0.518   0.494 -0.1189 -0.1584  0.3463
13703TIP3    H162524   3.534   0.475   0.578 -1.3934  0.7754  0.6186
13703TIP3    H262525   3.637   0.493   0.469 -0.0828 -1.2201  1.5096
13704TIP3   OH262526   5.953   2.663  13.133  0.1317 -0.1347  0.4302
13704TIP3    H162527   5.868   2.680  13.093 -0.7352  0.4176  2.3972
13704TIP3    H262528   5.939   2.585  13.186  0.9681 -0.2937  0.4235
13705TIP3   OH262529   2.658   4.069   3.946  0.2007 -0.7108 -0.0319
13705TIP3    H162530   2.596   4.011   3.992 -0.5975  0.9813  1.0544
13705TIP3    H262531   2.722   4.093   4.012 -1.1080  1.9679  0.3192
13706TIP3   OH262532   3.379   4.928   4.641 -0.2453 -0.1101  0.9370
13706TIP3    H162533   3.290   4.957   4.660 -0.7182 -0.3228 -0.7831
13706TIP3    H262534   3.431   5.009   4.640 -0.6055  0.1252  1.0321
13707TIP3   OH262535   0.290   4.086   3.741 -0.7482  0.3388 -0.3280
13707TIP3    H162536   0.203   4.101   3.704 -0.5311 -0.7760 -1.3030
13707TIP3    H262537   0.335   4.034   3.675  0.0597 -0.6255  0.9738
13708TIP3   OH262538   0.895   2.260   2.175 -0.2347  0.1549  0.1612
13708TIP3    H162539   0.971   2.304   2.138 -0.3767  0.7738  0.5826
13708TIP3    H262540   0.831   2.330   2.189 -0.9877 -0.3988 -0.4507
13709TIP3   OH262541   6.698   3.121   3.725 -0.2915  0.2354  0.0623
13709TIP3    H162542   6.685   3.123   3.820 -0.4673  0.6292  0.0307
13709TIP3    H262543   6.784   3.162   3.712  0.7557 -1.8700  0.2275
13710TIP3   OH262544   2.705   0.342   2.164 -0.2882  0.1591  0.3182
13710TIP3    H162545   2.674   0.371   2.079  0.8383  1.3628  0.2946
13710TIP3    H262546   2.635   0.368   2.225 -0.3768  0.7358 -0.0273
13711TIP3   OH262547   2.775   2.057   2.744 -0.4450  0.3787 -0.0143
13711TIP3    H162548   2.834   2.103   2.684 -0.6295  0.6215 -0.0099
13711TIP3    H262549   2.768   2.115   2.820  0.4185 -0.2927  0.5854
13712TIP3   OH262550   0.256   3.557   1.627 -0.2745  0.2029  0.2577
13712TIP3    H162551   0.294   3.603   1.552 -0.8136 -1.1484 -0.8616
13712TIP3    H262552   0.250   3.466   1.599 -2.8044  0.1053  1.0258
13713TIP3   OH262553   0.073   1.167   0.990  0.4060 -0.3411  0.0001
13713TIP3    H162554   0.057   1.241   1.048 -1.4391 -1.7696  1.3719
13713TIP3    H262555   0.084   1.206   0.903 -0.1170  1.5520  0.7688
13714TIP3   OH262556   0.465   0.494   1.677  0.3981  0.9079  0.0773
13714TIP3    H162557   0.389   0.493   1.619  0.5729 -1.0756 -0.1554
13714TIP3    H262558   0.540   0.487   1.617  0.6482  0.3398  0.4599
13715TIP3   OH262559   0.536   2.950   4.137 -0.0042  0.0584  0.4537
13715TIP3    H162560   0.451   2.972   4.175  0.0042  0.0838  0.4582
13715TIP3    H262561   0.558   2.865   4.175  1.0185  1.0726  2.2415
13716TIP3   OH262562   1.017   5.939   1.773  0.1879  0.5434 -0.1453
13716TIP3    H162563   1.056   6.026   1.785  0.9503  0.3644 -1.2331
13716TIP3    H262564   0.975   5.944   1.687  0.1094 -0.1145 -0.1463
13717TIP3   OH262565   0.761   5.103   1.710  0.3004  0.4764 -0.0928
13717TIP3    H162566   0.823   5.034   1.732  1.4585  0.7861 -2.2505
13717TIP3    H262567   0.744   5.092   1.617 -3.2669  0.1310  0.5082
13718TIP3   OH262568   2.086   5.322   2.035 -0.4100 -0.2938 -0.9652
13718TIP3    H162569   2.131   5.248   2.075 -0.7927 -0.1800 -0.3158
13718TIP3    H262570   2.088   5.304   1.941  1.0693 -0.2460 -0.9564
13719TIP3   OH262571   0.111   2.266   5.665 -0.0088 -0.2791  0.0439
13719TIP3    H162572   0.194   2.303   5.695 -0.4289  0.1159  0.7382
13719TIP3    H262573   0.100   2.186   5.715 -0.6838  0.3514  0.9233
13720TIP3   OH262574   3.945   0.952  14.984 -0.1714  0.1016 -0.0283
13720TIP3    H162575   3.906   0.905  15.056  3.2994  0.5430  2.2643
13720TIP3    H262576   3.931   0.896  14.908 -0.9427 -1.9700  1.5938
13721TIP3   OH262577   4.267   7.099   3.570  0.2491  1.0751 -0.2052
13721TIP3    H162578   4.352   7.123   3.608 -0.1955  0.6594  1.0893
13721TIP3    H262579   4.224   7.047   3.638 -0.5466  0.2330 -1.3134
13722TIP3   OH262580   3.636   4.548   0.821  0.1164 -0.2903  0.2936
13722TIP3    H162581   3.586   4.466   0.821  0.4002 -0.4650 -0.2117
13722TIP3    H262582   3.589   4.604   0.883 -0.1532 -0.7904  0.5481
13723TIP3   OH262583   5.724   3.067   5.011 -0.3400  0.2291 -0.7513
13723TIP3    H162584   5.712   3.085   5.104  0.0927 -0.3757 -0.5740
13723TIP3    H262585   5.674   2.986   4.996  0.8242 -0.5012 -0.7185
13724TIP3   OH262586   1.222   2.640   4.960 -0.6280  0.1616  0.2271
13724TIP3    H162587   1.236   2.639   4.865 -1.1455 -0.5655  0.1513
13724TIP3    H262588   1.248   2.727   4.987  0.4238  0.0602 -0.4499
13725TIP3   OH262589   1.056   5.315   4.545  0.0283 -0.7579 -0.2553
13725TIP3    H162590   0.987   5.320   4.479 -0.2077  2.3400  0.1586
13725TIP3    H262591   1.025   5.247   4.606 -2.8382  0.7498  0.0684
13726TIP3   OH262592   0.247   5.799   4.638  0.6017  0.3235 -0.0827
13726TIP3    H162593   0.261   5.766   4.727 -0.2034  0.6481  0.1673
13726TIP3    H262594   0.318   5.862   4.624  2.0404 -1.3348 -0.4895
13727TIP3   OH262595   3.910   5.764   2.711  0.1433  0.3339  0.2592
13727TIP3    H162596   3.960   5.758   2.630 -0.2607 -1.5055  0.1246
13727TIP3    H262597   3.959   5.826   2.766  1.4366  0.1263 -0.6504
13728TIP3   OH262598   2.258   5.017   0.976  0.1536  0.9725 -0.0597
13728TIP3    H162599   2.305   4.935   0.964 -0.8825  0.4232 -0.4210
13728TIP3    H262600   2.279   5.045   1.065 -0.4145 -0.2840  0.4779
13729TIP3   OH262601   3.170   1.124   0.663 -0.0094 -0.0440 -0.2424
13729TIP3    H162602   3.142   1.037   0.691  0.8533  0.3227  1.8445
13729TIP3    H262603   3.240   1.108   0.600  0.3150 -0.8604  0.3244
13730TIP3   OH262604   6.772   1.967   3.627 -0.3577 -0.6135  0.1392
13730TIP3    H162605   6.746   2.058   3.645 -1.2114 -0.7970 -0.1327
13730TIP3    H262606   6.701   1.933   3.573 -0.9279 -2.0076  1.7476
13731TIP3   OH262607   1.230   5.001   4.536 -0.0014  0.2137 -0.4517
13731TIP3    H162608   1.214   4.923   4.590 -0.1408 -0.5829 -1.6180
13731TIP3    H262609   1.303   5.045   4.579  0.2656 -0.7164  0.0669
13732TIP3   OH262610   2.236   4.819   2.074 -0.2655  0.3399 -0.4493
13732TIP3    H162611   2.271   4.907   2.060 -0.0436  0.1081 -1.4163
13732TIP3    H262612   2.277   4.789   2.155 -0.8808  1.3871  0.2591
13733TIP3   OH262613   2.578   6.226   5.725 -0.0998 -0.5081  0.3243
13733TIP3    H162614   2.559   6.309   5.769  1.2177  0.0609 -0.1507
13733TIP3    H262615   2.498   6.207   5.675 -0.1890  0.8011 -0.0515
13734TIP3   OH262616   4.061   0.323   4.274 -0.2598  0.4071 -0.0724
13734TIP3    H162617   4.096   0.319   4.363 -0.4233  2.5553  0.1153
13734TIP3    H262618   4.079   0.236   4.237  0.1199 -0.3909  1.9239
13735TIP3   OH262619   3.846   2.805   4.518 -0.4636  0.4817 -0.2673
13735TIP3    H162620   3.865   2.776   4.429 -0.7360  2.0548 -0.8537
13735TIP3    H262621   3.913   2.872   4.536  0.2853 -0.6101  1.1285
13736TIP3   OH262622   0.244   4.677   4.895 -0.0563 -0.0031  0.0801
13736TIP3    H162623   0.267   4.740   4.963  0.0144  0.0802 -0.0211
13736TIP3    H262624   0.148   4.682   4.889 -0.1168 -0.4874  0.6316
13737TIP3   OH262625   4.474   1.644   4.567  0.0395  0.4857  0.6906
13737TIP3    H162626   4.545   1.654   4.630  1.5597  0.9349 -1.0540
13737TIP3    H262627   4.395   1.640   4.621  1.3255  0.4563  2.6374
13738TIP3   OH262628   4.984   0.159   3.125  0.7879 -0.5484 -0.0290
13738TIP3    H162629   4.909   0.189   3.074 -0.1158  0.7468  2.0271
13738TIP3    H262630   4.974   0.063   3.126 -1.8840 -0.3144  1.7344
13739TIP3   OH262631   3.635   7.060   3.319 -0.7999  0.2808  0.1987
13739TIP3    H162632   3.618   7.000   3.392  0.6516  1.9014  1.9173
13739TIP3    H262633   3.694   7.011   3.262 -1.2034 -0.6628  0.5742
13740TIP3   OH262634   2.582   3.474   2.277  0.0943  0.3924 -0.4620
13740TIP3    H162635   2.576   3.565   2.307 -1.8919 -0.4681  1.9199
13740TIP3    H262636   2.516   3.427   2.328  2.4099 -2.7701 -0.1976
13741TIP3   OH262637   1.824   3.436   5.329  0.1298 -0.2910 -0.1890
13741TIP3    H162638   1.883   3.413   5.258  0.3751  0.7799 -0.3407
13741TIP3    H262639   1.870   3.407   5.408 -0.7107 -2.6541 -0.5224
13742TIP3   OH262640   4.514   7.098   4.463  0.3179 -0.2471 -0.1213
13742TIP3    H162641   4.592   7.083   4.515 -0.4268 -0.3058  0.9897
13742TIP3    H262642   4.546   7.144   4.385  0.9720  3.2605  2.1159
13743TIP3   OH262643   4.891   7.025   3.102 -0.4177 -0.2019  0.4336
13743TIP3    H162644   4.819   6.984   3.150  1.7012 -1.7015  2.4312
13743TIP3    H262645   4.944   6.952   3.071  1.2725  0.9086  0.6370
13744TIP3   OH262646   6.760   4.457   3.735  0.1833  0.0658  0.4792
13744TIP3    H162647   6.681   4.416   3.700  0.7797 -0.5885 -0.1271
13744TIP3    H262648   6.737   4.549   3.745 -1.1958 -0.4285  1.9383
13745TIP3   OH262649   4.214   0.104   3.864 -0.1115  0.0239 -0.5946
13745TIP3    H162650   4.191   0.019   3.826  0.2825  0.2702 -1.4083
13745TIP3    H262651   4.214   0.164   3.790 -0.4840  0.7571 -0.0050
13746TIP3   OH262652   4.985   6.313   5.288  0.7957  0.1706  0.6664
13746TIP3    H162653   4.990   6.251   5.215 -0.2334  0.1659  0.5973
13746TIP3    H262654   5.060   6.291   5.343  0.1622 -1.4680  0.8934
13747TIP3   OH262655   4.015   3.530   5.304 -0.3522  0.3738 -0.2121
13747TIP3    H162656   3.964   3.456   5.335  0.9162 -1.2400 -1.8769
13747TIP3    H262657   3.957   3.605   5.314 -2.2904 -1.0993 -0.1453
13748TIP3   OH262658   2.700   6.520   5.699 -0.5113  0.1132 -0.5996
13748TIP3    H162659   2.767   6.470   5.745 -0.8420 -1.7146 -2.0513
13748TIP3    H262660   2.628   6.528   5.763  0.0772 -0.0765  0.0954
13749TIP3   OH262661   6.306   1.078  15.069  0.3224 -0.2141 -0.3000
13749TIP3    H162662   6.349   1.000  15.104  0.5152 -0.8070 -1.8168
13749TIP3    H262663   6.232   1.093  15.128 -1.3166 -3.1468 -1.4491
13750TIP3   OH262664   5.575   6.889   5.197  0.6875  0.2988 -0.3241
13750TIP3    H162665   5.491   6.907   5.155 -0.7378 -2.3107  1.2633
13750TIP3    H262666   5.611   6.975   5.216 -1.7069  1.4723 -0.8841
13751TIP3   OH262667   4.560   2.269  14.241  0.7756 -0.2583 -0.3868
13751TIP3    H162668   4.515   2.287  14.159  1.5885 -0.5927 -0.9066
13751TIP3    H262669   4.581   2.176  14.238  1.3396 -0.1493 -0.0700
13752TIP3   OH262670   4.739   3.921   4.836 -0.2040  0.3416 -0.0997
13752TIP3    H162671   4.754   3.890   4.747  0.4148 -2.1295  0.8201
13752TIP3    H262672   4.826   3.926   4.875 -0.5096  0.9293  0.5211
13753TIP3   OH262673   4.643   1.336   3.922  0.2695 -0.1457 -0.1158
13753TIP3    H162674   4.556   1.342   3.883  0.4365 -0.9897 -0.6342
13753TIP3    H262675   4.635   1.381   4.006 -0.7020 -0.3116 -0.1143
13754TIP3   OH262676   2.248   6.762   2.496  0.1247  0.3149  0.3514
13754TIP3    H162677   2.191   6.738   2.569  0.5560 -0.2003  0.5291
13754TIP3    H262678   2.337   6.748   2.530  0.3436  0.6966 -0.0605
13755TIP3   OH262679   2.935   0.434   1.336 -0.4235 -0.0827 -0.6360
13755TIP3    H162680   2.881   0.373   1.285 -0.9988  1.3920 -1.8151
13755TIP3    H262681   3.024   0.419   1.303 -0.2946 -1.4779  0.2836
13756TIP3   OH262682   4.639   3.019   5.139  0.2200  0.2520 -0.1637
13756TIP3    H162683   4.559   2.984   5.179  0.9691  0.0388  1.1967
13756TIP3    H262684   4.641   3.110   5.167  1.8144 -0.4217  2.0786
13757TIP3   OH262685   2.025   4.735   3.250  0.1571  0.3191  0.0926
13757TIP3    H162686   1.963   4.702   3.315  0.4346  0.2363  0.3140
13757TIP3    H262687   2.014   4.830   3.253 -1.5572  0.1977 -1.4488
13758TIP3   OH262688   0.812   5.903   5.742  0.4202  0.2412 -0.3577
13758TIP3    H162689   0.858   5.853   5.810  0.2079  1.9671  1.0915
13758TIP3    H262690   0.835   5.859   5.660  2.3998 -0.6007  0.6227
13759TIP3   OH262691   6.559   2.274   4.370 -0.1439 -0.8430  0.5223
13759TIP3    H162692   6.590   2.340   4.432  0.9465 -2.7812  2.0754
13759TIP3    H262693   6.481   2.314   4.331  0.6511  1.4729  1.2167
13760TIP3   OH262694   4.630   6.488   4.406 -0.3296  0.1301  0.2417
13760TIP3    H162695   4.672   6.519   4.487 -0.8900  0.1552  0.5281
13760TIP3    H262696   4.685   6.522   4.336  1.4759 -1.7956  0.6536
13761TIP3   OH262697   3.797   3.719   5.489  0.3670 -0.0212  0.6965
13761TIP3    H162698   3.800   3.810   5.519  0.0201  0.0023  0.6680
13761TIP3    H262699   3.846   3.670   5.555  0.8002  0.2281  0.5588
13762TIP3   OH262700   3.120   2.604   4.191 -0.5451  0.6057 -0.5717
13762TIP3    H162701   3.190   2.620   4.128  0.2578  0.4092  0.2759
13762TIP3    H262702   3.149   2.647   4.272  0.1220 -2.2344  0.7579
13763TIP3   OH262703   2.991   3.360   4.282 -0.1892  0.7345  0.1841
13763TIP3    H162704   3.014   3.284   4.230  1.5126  0.4307  1.3328
13763TIP3    H262705   3.057   3.363   4.351 -1.6024  1.8869  1.5409
13764TIP3   OH262706   3.291   0.424  14.697  0.8399  0.3752  0.5083
13764TIP3    H162707   3.386   0.415  14.697  0.7560 -0.7783 -1.8080
13764TIP3    H262708   3.270   0.458  14.785  3.4024  1.1468  0.8609
13765TIP3   OH262709   2.112   2.345   5.340 -0.0025  0.0522  0.0544
13765TIP3    H162710   2.173   2.316   5.409 -1.8907  0.3207  1.8684
13765TIP3    H262711   2.165   2.344   5.260  1.7423 -2.0929  1.1742
13766TIP3   OH262712   5.666   1.880   1.812  0.4730 -0.0624  0.3330
13766TIP3    H162713   5.725   1.825   1.761  0.7758 -1.1355  1.7988
13766TIP3    H262714   5.669   1.843   1.900 -0.1889  1.6220  1.0960
13767TIP3   OH262715   2.910   1.737   4.231 -0.1211 -0.4316  0.5491
13767TIP3    H162716   2.942   1.679   4.162  2.3533  1.0142  0.4037
13767TIP3    H262717   2.823   1.764   4.201  0.2291 -1.1582 -1.1948
13768TIP3   OH262718   5.345   3.802   5.343  0.3255 -0.4308 -0.9727
13768TIP3    H162719   5.393   3.720   5.328  0.4454 -0.0178 -3.0731
13768TIP3    H262720   5.276   3.801   5.276 -1.6515 -0.2871  1.0206
13769TIP3   OH262721   3.004   2.606   3.176 -0.3297 -0.0412 -0.0057
13769TIP3    H162722   2.983   2.512   3.181  0.1294 -0.1518 -0.1616
13769TIP3    H262723   2.965   2.634   3.094 -0.8812  0.0114  0.2684
13770TIP3   OH262724   5.344   6.654   1.390 -0.1155 -0.6529  0.8734
13770TIP3    H162725   5.436   6.636   1.375 -0.8327 -3.5517 -0.4338
13770TIP3    H262726   5.338   6.749   1.399  2.5624 -0.1918 -1.9128
13771TIP3   OH262727   4.716   6.326   2.955 -0.1143 -0.3532 -0.2930
13771TIP3    H162728   4.750   6.352   2.869 -0.9550 -2.0318 -1.1703
13771TIP3    H262729   4.751   6.238   2.969  1.1649  0.4323  1.7557
13772TIP3   OH262730   6.707   5.212   3.958  0.2363 -0.2581 -0.2350
13772TIP3    H162731   6.746   5.297   3.976 -0.3015 -0.0883  0.1463
13772TIP3    H262732   6.771   5.149   3.989  0.6815  0.0067 -0.6116
13773TIP3   OH262733   1.970   2.327   2.228 -0.8992 -0.1927 -0.2137
13773TIP3    H162734   1.884   2.317   2.187 -0.1770 -2.5497 -1.2424
13773TIP3    H262735   2.022   2.375   2.163 -1.7737  2.4321  0.9601
13774TIP3   OH262736   5.442   4.569   1.492 -0.3215  0.0188  0.4971
13774TIP3    H162737   5.359   4.550   1.450  0.5609 -2.5128 -0.2174
13774TIP3    H262738   5.489   4.626   1.431 -0.9170  0.2026  0.2142
13775TIP3   OH262739   1.332   4.810   2.460  0.0480  0.2233  0.1419
13775TIP3    H162740   1.370   4.769   2.383  0.9590  3.3391 -1.1524
13775TIP3    H262741   1.407   4.842   2.510 -0.6373  0.8542  0.7782
13776TIP3   OH262742   4.177   1.383   1.818 -0.2898  0.1066 -0.1315
13776TIP3    H162743   4.116   1.319   1.780  0.9925 -1.1178 -0.1941
13776TIP3    H262744   4.224   1.419   1.743 -1.4196  1.5775 -0.1479
13777TIP3   OH262745   1.061   0.909   4.268 -0.1693  0.8873 -0.2285
13777TIP3    H162746   1.032   0.978   4.209 -2.2725  1.5570  1.5029
13777TIP3    H262747   1.121   0.953   4.328 -1.1773  1.1396  0.6100
13778TIP3   OH262748   3.712   0.636   5.117 -0.0797  0.1187  0.1369
13778TIP3    H162749   3.672   0.567   5.170 -0.2929 -0.8502 -1.2517
13778TIP3    H262750   3.794   0.599   5.087 -0.4749  0.2330 -1.1123
13779TIP3   OH262751   2.372   6.553   2.315 -0.3475 -0.2408 -0.0506
13779TIP3    H162752   2.456   6.518   2.344 -0.1822 -0.4675 -0.7995
13779TIP3    H262753   2.314   6.542   2.391  0.1611 -0.5405  0.2971
13780TIP3   OH262754   6.614   6.539   0.440  0.0222 -0.6906  0.1539
13780TIP3    H162755   6.649   6.550   0.528 -1.2535 -0.3141  0.6170
13780TIP3    H262756   6.522   6.564   0.447  0.3212  1.0700 -1.6732
13781TIP3   OH262757   1.268   5.396   3.744  0.7189 -0.2407  0.2338
13781TIP3    H162758   1.362   5.396   3.727  0.6841 -1.9225 -0.0002
13781TIP3    H262759   1.228   5.387   3.658  0.3409  0.2063  0.3585
13782TIP3   OH262760   1.226   2.063  14.965  0.5650 -0.7129  0.1199
13782TIP3    H162761   1.196   1.997  14.902 -2.2485 -1.2478  1.9547
13782TIP3    H262762   1.288   2.016  15.021  2.2228 -0.5155 -1.4698
13783TIP3   OH262763   2.631   3.671   5.241  0.2061  0.2886  0.1042
13783TIP3    H162764   2.603   3.723   5.317 -0.3487  0.2897 -0.0955
13783TIP3    H262765   2.726   3.671   5.245  0.1902  0.8062  0.4535
13784TIP3   OH262766   2.233   1.936   3.711  0.0091  0.3112  0.4422
13784TIP3    H162767   2.160   1.880   3.684 -0.2217  0.5546  0.5485
13784TIP3    H262768   2.274   1.963   3.629  1.1819 -1.3904  0.4503
13785TIP3   OH262769   2.348   3.802   3.311  0.0801 -0.0605 -0.6832
13785TIP3    H162770   2.376   3.808   3.220  0.5375  2.9257 -0.3740
13785TIP3    H262771   2.269   3.856   3.315  0.3028  0.1687  0.7844
13786TIP3   OH262772   6.640   3.002   5.160 -0.2954 -0.1969  0.3680
13786TIP3    H162773   6.630   2.960   5.246 -3.2455 -0.8814 -0.2585
13786TIP3    H262774   6.556   3.044   5.144 -0.0925 -0.8375 -2.5829
13787TIP3   OH262775   0.514   5.981   3.981  0.3629  0.2589  0.4838
13787TIP3    H162776   0.467   6.057   4.016 -0.8348  0.3903 -1.3735
13787TIP3    H262777   0.509   5.916   4.051 -0.9266  0.9446  1.0507
13788TIP3   OH262778   2.800   0.018   3.351 -0.0539  0.2331  0.2156
13788TIP3    H162779   2.739  -0.008   3.282 -0.7849 -0.3348  1.0608
13788TIP3    H262780   2.792   0.113   3.356 -0.2364  0.2439 -0.2575
13789TIP3   OH262781   0.140   4.733   5.176 -0.1493  0.1537  0.3288
13789TIP3    H162782   0.094   4.765   5.253 -1.3768  0.0867 -0.3694
13789TIP3    H262783   0.229   4.767   5.186 -0.8219  1.8087  0.7656
13790TIP3   OH262784   0.773   2.410  14.010 -0.2488  0.2750  0.0674
13790TIP3    H162785   0.764   2.446  13.922  1.4265 -0.2445 -0.3481
13790TIP3    H262786   0.799   2.319  13.996  1.5728  0.6202  1.0715
13791TIP3   OH262787   3.411   0.043   3.424  0.2341  0.3758 -0.2036
13791TIP3    H162788   3.468   0.063   3.498  0.5594 -0.1680 -0.3054
13791TIP3    H262789   3.469   0.008   3.357 -0.0780  0.7602 -0.6764
13792TIP3   OH262790   1.213   7.101   5.187  0.2190 -0.1766  0.5412
13792TIP3    H162791   1.235   7.167   5.122 -1.3150  1.1238  1.3217
13792TIP3    H262792   1.281   7.110   5.254  0.9776 -0.5547 -0.1581
13793TIP3   OH262793   0.451   1.623   3.925 -0.0917  0.1955  0.2720
13793TIP3    H162794   0.367   1.585   3.897 -0.4812  0.7241  0.7312
13793TIP3    H262795   0.428   1.685   3.994  0.7737 -0.3470  1.0594
13794TIP3   OH262796   6.675   4.362   4.633 -0.2392 -0.2464  0.2816
13794TIP3    H162797   6.723   4.363   4.716  0.3828  0.1340 -0.0690
13794TIP3    H262798   6.698   4.446   4.593  0.1198 -0.7797 -0.6409
13795TIP3   OH262799   0.203   3.270   3.317 -0.3000  0.3104  0.3199
13795TIP3    H162800   0.281   3.242   3.365 -1.4008 -0.6611  1.5554
13795TIP3    H262801   0.175   3.193   3.268 -2.0897 -0.1986  2.0679
13796TIP3   OH262802   5.665   5.457   2.375  0.0188  0.2188  0.0826
13796TIP3    H162803   5.667   5.509   2.456  0.8093  1.7435 -0.9040
13796TIP3    H262804   5.753   5.466   2.338 -0.3146 -0.5382 -0.9205
13797TIP3   OH262805   3.705   2.795   5.906  0.1955 -0.2129 -0.5004
13797TIP3    H162806   3.629   2.846   5.878  1.1178  0.5536 -1.6422
13797TIP3    H262807   3.774   2.860   5.921  0.5742 -0.8812  0.7258
13798TIP3   OH262808   0.005   1.960  14.785  0.5846  0.8671 -0.3664
13798TIP3    H162809   0.033   1.962  14.693 -1.0210  0.6868 -0.8751
13798TIP3    H262810   0.059   1.891  14.825  0.4028  0.0618 -1.4748
13799TIP3   OH262811   3.485   1.280   4.909 -0.3491  0.0042 -0.2817
13799TIP3    H162812   3.461   1.322   4.826  0.8364  0.1069 -0.5892
13799TIP3    H262813   3.573   1.313   4.927  0.0278 -1.2639  0.2083
13800TIP3   OH262814   6.882   2.670   0.332 -0.1189 -0.3646  0.1984
13800TIP3    H162815   6.922   2.753   0.308  0.2012 -0.4164  0.5440
13800TIP3    H262816   6.809   2.694   0.389 -0.0210 -0.3213  0.3059
13801TIP3   OH262817   5.308   2.621   4.757 -0.0861 -0.0932  0.4746
13801TIP3    H162818   5.235   2.581   4.803 -0.7038 -0.5445 -0.8650
13801TIP3    H262819   5.290   2.605   4.664  1.0571  0.9050  0.0581
13802TIP3   OH262820   5.903   1.661   4.813 -0.1115 -0.0857 -0.2504
13802TIP3    H162821   5.860   1.649   4.729 -0.0285 -0.5753 -0.2196
13802TIP3    H262822   5.841   1.714   4.864  0.2638  1.0379 -0.9473
13803TIP3   OH262823   4.632   4.418  15.026  0.6224  0.2502  0.4853
13803TIP3    H162824   4.720   4.442  15.056  1.1179  0.0431 -0.7711
13803TIP3    H262825   4.640   4.412  14.931 -1.1777  1.9521  0.1959
13804TIP3   OH262826   0.729   1.974   4.722 -0.0226  0.1222  0.2418
13804TIP3    H162827   0.752   1.964   4.630 -0.0393  0.2928  0.2195
13804TIP3    H262828   0.647   1.924   4.732  0.0900 -0.0694  0.2119
13805TIP3   OH262829   2.408   2.076   4.105  0.0090  0.4054 -0.4403
13805TIP3    H162830   2.497   2.110   4.108 -0.1159  0.7293 -0.4506
13805TIP3    H262831   2.402   2.020   4.183 -0.0255  0.9875 -0.0225
13806TIP3   OH262832   2.123   1.696   2.714 -0.1622  0.7708 -0.5154
13806TIP3    H162833   2.182   1.738   2.652  1.3801  0.7434  0.8971
13806TIP3    H262834   2.177   1.678   2.790 -0.7520 -3.7138 -1.0196
13807TIP3   OH262835   4.645   5.802   5.900  0.0346 -0.1470  0.0947
13807TIP3    H162836   4.679   5.876   5.950  1.6172 -0.6923 -0.1638
13807TIP3    H262837   4.723   5.758   5.865 -0.9118 -1.6339 -0.1884
13808TIP3   OH262838   1.316   0.434   2.819 -0.3631 -0.0145  0.0004
13808TIP3    H162839   1.295   0.501   2.753  0.0113  0.5223  0.4197
13808TIP3    H262840   1.289   0.352   2.779 -3.4209  0.6622  0.5715
13809TIP3   OH262841   2.963   5.690   4.060 -0.0096 -0.1727 -0.1824
13809TIP3    H162842   2.944   5.738   3.979  1.0436 -0.0633 -0.3654
13809TIP3    H262843   2.935   5.749   4.130 -0.9041 -0.2600 -0.4490
13810TIP3   OH262844   0.523   3.035   0.911  0.3789  0.6390 -0.1671
13810TIP3    H162845   0.476   2.988   0.842 -3.1440 -0.8896  3.0612
13810TIP3    H262846   0.581   2.970   0.950 -1.2669  0.1137  1.4542
13811TIP3   OH262847   2.351   5.498   0.854  0.1863 -0.2109 -0.2050
13811TIP3    H162848   2.278   5.445   0.822 -0.1635  0.1475 -0.0074
13811TIP3    H262849   2.333   5.586   0.820  1.4067 -0.4673 -1.5545
13812TIP3   OH262850   5.719   0.446   4.550  0.2390 -0.0680  0.7951
13812TIP3    H162851   5.632   0.483   4.534  0.4110  0.0842  0.2031
13812TIP3    H262852   5.729   0.449   4.646 -0.2991  0.1594  0.8464
13813TIP3   OH262853   3.590   1.346   5.300 -0.5132  0.3047 -0.4828
13813TIP3    H162854   3.678   1.374   5.274 -1.3957  1.8320 -1.9811
13813TIP3    H262855   3.571   1.272   5.242 -0.0855 -0.2429  0.0751
13814TIP3   OH262856   0.880   3.320   2.705 -0.2145  0.3254  0.3325
13814TIP3    H162857   0.915   3.353   2.622  1.9252  1.9433  1.8379
13814TIP3    H262858   0.806   3.264   2.679  1.1392 -0.1328 -2.7168
13815TIP3   OH262859   3.824   6.552   3.139  0.1644 -0.2045  0.2799
13815TIP3    H162860   3.822   6.604   3.219 -0.3769 -0.0780  0.1830
13815TIP3    H262861   3.913   6.517   3.136  0.5642  0.7873  0.2977
13816TIP3   OH262862   1.459   1.580  13.335  0.1612  0.3765  0.5141
13816TIP3    H162863   1.405   1.570  13.257 -0.3828  2.2826  0.6244
13816TIP3    H262864   1.536   1.628  13.305  0.4292  0.2230  0.9477
13817TIP3   OH262865   2.969   6.734   3.150  0.0752  0.1488 -0.4824
13817TIP3    H162866   2.894   6.678   3.171  0.8147 -0.2071  1.3218
13817TIP3    H262867   3.036   6.672   3.120  1.0384 -0.0225  1.9238
13818TIP3   OH262868   1.839   1.996   4.628 -0.1690 -0.2969  0.0321
13818TIP3    H162869   1.871   1.918   4.584 -1.7691  0.6540 -2.9681
13818TIP3    H262870   1.886   2.068   4.586 -0.6405  0.5277  0.8980
13819TIP3   OH262871   1.295   5.720   4.873 -0.5467  0.4859  0.3002
13819TIP3    H162872   1.380   5.686   4.847 -0.7244 -1.0323  1.6284
13819TIP3    H262873   1.239   5.642   4.878 -2.2887  1.5499 -1.5158
13820TIP3   OH262874   4.908   1.343   3.814 -0.6592  0.2528  0.1811
13820TIP3    H162875   4.953   1.317   3.895  1.3142 -1.7303 -1.4997
13820TIP3    H262876   4.818   1.359   3.841 -0.2986 -1.5279  2.5792
13821TIP3   OH262877   0.525   4.970   1.203  0.3821  0.2846 -0.9336
13821TIP3    H162878   0.491   5.057   1.186  2.3267  0.9846 -1.4557
13821TIP3    H262879   0.605   4.964   1.149  0.7340 -1.4946 -0.2761
13822TIP3   OH262880   6.132   0.358   3.322  0.4968 -0.2693  0.8225
13822TIP3    H162881   6.121   0.375   3.228  0.5724 -2.5687  0.3521
13822TIP3    H262882   6.227   0.358   3.336  0.5319 -1.2483  0.6166
13823TIP3   OH262883   3.219   0.409   2.956 -0.1134 -0.0175  0.1700
13823TIP3    H162884   3.272   0.348   2.904 -0.8557 -1.1244  0.7082
13823TIP3    H262885   3.210   0.367   3.041  1.6042  2.0738  1.4427
13824TIP3   OH262886   1.712   3.481   1.010 -0.3054  0.1601 -0.3439
13824TIP3    H162887   1.737   3.520   1.094  0.4793 -0.2547 -0.3832
13824TIP3    H262888   1.727   3.387   1.021 -1.2428 -0.0247 -0.5873
13825TIP3   OH262889   5.848   2.161   5.585  0.1650  0.0858  0.0188
13825TIP3    H162890   5.779   2.121   5.638 -0.8205  1.4372 -0.2126
13825TIP3    H262891   5.927   2.153   5.639 -0.0858 -1.8010  0.1189
13826TIP3   OH262892   5.204   4.759   4.303  0.1261 -0.0893  0.4271
13826TIP3    H162893   5.293   4.738   4.330 -0.6962 -1.9046  1.8071
13826TIP3    H262894   5.205   4.750   4.207  1.2327 -0.8418  0.5004
13827TIP3   OH262895   4.022   0.936   5.069 -0.4203 -0.0362  0.2299
13827TIP3    H162896   3.951   0.937   5.133 -0.0111  0.3101  0.6931
13827TIP3    H262897   4.101   0.922   5.122  0.0263  1.2143 -0.0791
13828TIP3   OH262898   4.668   3.522   5.631  0.1910  0.1774 -0.3448
13828TIP3    H162899   4.733   3.468   5.675 -0.6268 -1.0620 -0.6377
13828TIP3    H262900   4.643   3.587   5.697 -1.3175 -1.9161  1.1952
13829TIP3   OH262901   2.036   2.371   4.398 -0.0288 -0.8065  0.1439
13829TIP3    H162902   2.005   2.432   4.332 -0.8307 -2.9892 -1.5592
13829TIP3    H262903   2.112   2.414   4.437 -1.5294  1.9584  0.1516
13830TIP3   OH262904   6.840   6.183   1.444  0.6137 -0.1779  0.1049
13830TIP3    H162905   6.803   6.231   1.518  1.2839 -0.4835  0.6537
13830TIP3    H262906   6.773   6.186   1.377  0.3395  0.8606  0.4154
13831TIP3   OH262907   4.865   2.790  13.518 -0.0725  0.3958  0.8193
13831TIP3    H162908   4.954   2.791  13.552  0.1899  0.2437  0.1373
13831TIP3    H262909   4.812   2.758  13.591  0.8729 -2.8824  0.1582
13832TIP3   OH262910   3.976   2.465   3.627  0.7561 -0.8540  0.0943
13832TIP3    H162911   3.990   2.559   3.630 -1.4691 -0.4081 -2.0342
13832TIP3    H262912   4.045   2.428   3.683  2.0124  1.9697  0.4650
13833TIP3   OH262913   5.538   5.223   2.276 -0.2512 -0.2136  0.1975
13833TIP3    H162914   5.572   5.304   2.316 -0.5554 -0.2949  0.6162
13833TIP3    H262915   5.473   5.191   2.338  0.6288 -1.3543  0.5345
13834TIP3   OH262916   4.825   4.843   2.520  0.0095  0.1099 -0.1877
13834TIP3    H162917   4.904   4.791   2.534  1.6400  2.6420  0.3958
13834TIP3    H262918   4.768   4.822   2.594  1.5033  0.6856  1.1463
13835TIP3   OH262919   2.329   0.558  15.112 -0.4052  0.0768  0.4053
13835TIP3    H162920   2.420   0.529  15.102 -0.0764  1.2340 -0.0200
13835TIP3    H262921   2.282   0.480  15.142  0.2886 -1.1397 -1.6057
13836TIP3   OH262922   1.273   2.428   1.339 -0.5875  0.3665 -0.7333
13836TIP3    H162923   1.250   2.337   1.322 -0.2650  0.0690  0.3553
13836TIP3    H262924   1.250   2.474   1.259 -1.9558 -0.4517 -0.8205
13837TIP3   OH262925   1.629   0.916   5.085 -0.3740 -0.5539 -0.4220
13837TIP3    H162926   1.547   0.956   5.111 -0.1659 -0.3834 -0.0265
13837TIP3    H262927   1.681   0.988   5.048 -0.2209 -0.5684 -0.2374
13838TIP3   OH262928   4.977   5.111   3.832 -0.4849  0.1609 -0.8418
13838TIP3    H162929   4.984   5.044   3.764  0.4416 -0.7399  0.1269
13838TIP3    H262930   4.965   5.193   3.784  0.0278 -0.4852 -2.0794
13839TIP3   OH262931   4.440   0.951   5.060  0.5508  0.5167  0.1101
13839TIP3    H162932   4.391   0.948   5.142 -0.9498 -0.0897 -0.7997
13839TIP3    H262933   4.384   0.999   5.000  1.1996  0.0884 -0.8475
13840TIP3   OH262934   2.279   1.305   3.440  0.2969  0.1862  0.1589
13840TIP3    H162935   2.328   1.223   3.430 -0.8147 -0.5437  0.7052
13840TIP3    H262936   2.347   1.372   3.452  1.1703 -0.7820  0.6188
13841TIP3   OH262937   3.760   4.550   1.700  0.4892  0.2866  0.8191
13841TIP3    H162938   3.831   4.525   1.640 -0.9615  3.5638 -2.4403
13841TIP3    H262939   3.799   4.617   1.756  0.4623  0.8133  0.2104
13842TIP3   OH262940   6.836   6.630   4.292 -0.7825  0.6028 -0.2159
13842TIP3    H162941   6.865   6.592   4.374  0.6129  0.0198 -0.9542
13842TIP3    H262942   6.906   6.691   4.268 -0.5765 -0.1359 -1.5697
13843TIP3   OH262943   5.403   4.303   0.997  0.0507  0.0824 -0.0602
13843TIP3    H162944   5.368   4.273   0.913  2.0818  1.0537 -1.2913
13843TIP3    H262945   5.425   4.223   1.044  0.7748 -0.4428 -1.2770
13844TIP3   OH262946   6.083   5.739   3.472 -0.3341  0.5809  0.5726
13844TIP3    H162947   6.136   5.727   3.551 -0.5066 -1.1890  0.4360
13844TIP3    H262948   6.012   5.796   3.500  1.0790  2.1800  1.0065
13845TIP3   OH262949   1.563   0.132   3.719  0.0889 -0.3101  0.3182
13845TIP3    H162950   1.623   0.063   3.690  0.6352 -0.0471  0.8180
13845TIP3    H262951   1.599   0.212   3.681 -0.1826 -0.2114  0.2700
13846TIP3   OH262952   4.277   4.746   5.330  0.3034  0.5726  0.0030
13846TIP3    H162953   4.234   4.765   5.414 -0.1093  0.1045 -0.1013
13846TIP3    H262954   4.334   4.671   5.349 -0.6804 -0.2954 -0.4098
13847TIP3   OH262955   6.959   0.485   4.890  0.0744  0.5122  0.1921
13847TIP3    H162956   6.923   0.428   4.959  1.5645  0.5130  0.9998
13847TIP3    H262957   6.989   0.425   4.822 -2.6283  0.5670 -1.1056
13848TIP3   OH262958   5.655   0.389   2.737  0.0728  0.2203 -0.2329
13848TIP3    H162959   5.665   0.305   2.692  0.8011  0.2936 -0.2079
13848TIP3    H262960   5.604   0.368   2.816  1.6572 -0.4905  0.6188
13849TIP3   OH262961   3.198   5.203   0.686 -0.0779  0.0741  0.1002
13849TIP3    H162962   3.275   5.158   0.651  0.0359  0.0175  0.4121
13849TIP3    H262963   3.125   5.143   0.670 -0.1201  0.2952 -0.5395
13850TIP3   OH262964   5.740   5.886   3.837  0.0417 -0.0192 -0.4674
13850TIP3    H162965   5.652   5.847   3.841 -0.4914  0.8033 -3.4265
13850TIP3    H262966   5.799   5.815   3.862 -1.3804 -0.8867  0.4908
13851TIP3   OH262967   1.528   0.922  14.456 -0.9441  0.4148  0.4384
13851TIP3    H162968   1.452   0.929  14.399 -0.1264 -1.0364 -0.8654
13851TIP3    H262969   1.566   0.837  14.435  0.4007  0.6447  1.8631
13852TIP3   OH262970   4.894   0.746   2.903 -0.3662  0.7962 -0.0435
13852TIP3    H162971   4.820   0.695   2.935 -1.8099  2.8040 -0.0715
13852TIP3    H262972   4.967   0.684   2.901 -1.6615 -0.8306  1.4804
13853TIP3   OH262973   3.558   0.674   1.519 -0.7822  0.1080 -0.6418
13853TIP3    H162974   3.545   0.645   1.610  0.8118 -1.2477 -0.8292
13853TIP3    H262975   3.531   0.766   1.520  1.3546  0.7874  1.7723
13854TIP3   OH262976   1.335   0.592   2.111 -0.4727  0.5604 -0.4098
13854TIP3    H162977   1.329   0.607   2.206 -1.2908  0.4305 -0.4360
13854TIP3    H262978   1.341   0.497   2.102  0.2465  0.6090 -0.4598
13855TIP3   OH262979   5.056   2.606   2.612 -0.2419  0.7750  0.5080
13855TIP3    H162980   4.980   2.664   2.616 -0.1238  1.0798 -1.2852
13855TIP3    H262981   5.021   2.519   2.631 -1.2527  0.7486 -1.3778
13856TIP3   OH262982   3.393   2.766   1.610 -0.2612 -0.0110 -0.1777
13856TIP3    H162983   3.418   2.724   1.527 -1.3212 -2.1895  0.5712
13856TIP3    H262984   3.393   2.859   1.590  1.8677 -0.3459 -1.9838
13857TIP3   OH262985   0.464   0.215   2.741  0.1854  0.3050  0.6094
13857TIP3    H162986   0.413   0.288   2.776 -1.0791 -0.2365 -0.0726
13857TIP3    H262987   0.442   0.141   2.798  1.3608  0.4120  1.2174
13858TIP3   OH262988   3.098   2.465   1.280  0.2818 -0.2631 -0.7488
13858TIP3    H162989   3.084   2.439   1.371 -1.5153 -1.1427 -1.2503
13858TIP3    H262990   3.189   2.443   1.262  0.2983 -1.2114  0.4695
13859TIP3   OH262991   0.158   1.220   0.719  0.3038  0.3356  0.3030
13859TIP3    H162992   0.212   1.265   0.653  1.1745  0.5668  1.1664
13859TIP3    H262993   0.193   1.131   0.722  0.0552  0.2338  0.2357
13860TIP3   OH262994   4.475   1.994   2.660  0.3901 -0.1124  0.1433
13860TIP3    H162995   4.443   2.016   2.748  0.0616 -1.0281  0.2610
13860TIP3    H262996   4.570   1.990   2.669  0.2865 -1.6527  0.8145
13861TIP3   OH262997   3.622   0.617   4.871  0.2509 -0.0615  0.2915
13861TIP3    H162998   3.597   0.690   4.816  1.5526  0.3994  0.2803
13861TIP3    H262999   3.651   0.657   4.953  0.6501 -0.5772  0.4099
13862TIP3   OH263000   7.066   4.371   1.350  0.1526  0.0159  0.3924
13862TIP3    H163001   7.137   4.360   1.413  0.2481 -2.3381 -0.0687
13862TIP3    H263002   6.987   4.346   1.398  0.0139 -0.2069  0.0495
13863TIP3   OH263003   3.510   0.148   0.024 -0.1130 -0.0167 -0.5952
13863TIP3    H163004   3.477   0.223   0.074  0.7392 -1.6074  2.4609
13863TIP3    H263005   3.604   0.162   0.017 -0.2386  0.2596 -1.9278
13864TIP3   OH263006   1.485   1.257   5.320 -0.2900  0.6453  0.5790
13864TIP3    H163007   1.468   1.344   5.283 -0.4376  0.1358 -0.5770
13864TIP3    H263008   1.453   1.263   5.409 -0.1420  1.8359  0.5660
13865TIP3   OH263009   0.263   0.593   2.185  0.2556 -0.3714  0.1458
13865TIP3    H163010   0.261   0.661   2.253  0.2388  1.4854 -1.6712
13865TIP3    H263011   0.221   0.517   2.227 -1.9039  1.4596  1.4431
13866TIP3   OH263012   3.380   0.970   3.818  0.2393 -0.0540 -0.3845
13866TIP3    H163013   3.409   0.885   3.851  0.8708  0.3069  0.0081
13866TIP3    H263014   3.390   0.964   3.723  1.2215 -0.0832 -0.2833
13867TIP3   OH263015   3.081   3.301   4.016  0.2878 -0.3179  0.4064
13867TIP3    H163016   3.090   3.392   3.987 -0.1757 -0.0199  1.1768
13867TIP3    H263017   3.059   3.253   3.936  2.3056 -0.0577 -0.3257
13868TIP3   OH263018   1.837   3.663   1.790  0.4420  0.0983  0.4452
13868TIP3    H163019   1.813   3.620   1.708  1.2228  0.1374  0.1987
13868TIP3    H263020   1.802   3.752   1.781 -0.5680 -0.2699  0.6732
13869TIP3   OH263021   6.688   6.822   3.368 -0.0088 -0.0948  0.2542
13869TIP3    H163022   6.764   6.832   3.425  2.4522  1.6838 -3.1759
13869TIP3    H263023   6.690   6.730   3.341 -0.0991 -0.4717  1.5075
13870TIP3   OH263024   4.442   1.477   1.038  0.1779 -0.0093  0.2156
13870TIP3    H163025   4.463   1.416   1.108  0.2923 -0.5163 -0.2615
13870TIP3    H263026   4.465   1.563   1.073 -2.3272  0.0657  1.8702
13871TIP3   OH263027   4.941   2.302   2.358 -0.2460  0.4125 -0.6183
13871TIP3    H163028   5.034   2.321   2.348 -0.1837  0.0686 -0.6999
13871TIP3    H263029   4.902   2.331   2.275  0.1335 -1.5805 -1.5018
13872TIP3   OH263030   4.764   1.595   4.015  0.1038 -0.5408 -0.3810
13872TIP3    H163031   4.840   1.619   4.068  0.2910 -0.3406 -0.7375
13872TIP3    H263032   4.696   1.574   4.079 -0.3680  1.8642 -0.0356
13873TIP3   OH263033   4.399   6.705   3.264  0.4281 -0.1958  0.0234
13873TIP3    H163034   4.359   6.632   3.312  2.3104 -0.5658  1.0746
13873TIP3    H263035   4.471   6.665   3.215  1.1853  0.8853  0.2424
13874TIP3   OH263036   2.104   2.216   5.716  0.0509  0.3039 -0.5012
13874TIP3    H163037   2.071   2.126   5.720 -1.5915  0.8894 -0.4087
13874TIP3    H263038   2.182   2.211   5.661  0.4707 -1.3179  0.2210
13875TIP3   OH263039   5.549   2.223   2.293  0.5554 -0.5324  0.5015
13875TIP3    H163040   5.598   2.305   2.291 -1.3439  0.6150 -0.2414
13875TIP3    H263041   5.522   2.214   2.385  1.4325 -0.7383  0.7421
13876TIP3   OH263042   0.935   3.395   0.392 -0.6234  0.1313 -0.1877
13876TIP3    H163043   0.882   3.384   0.313 -0.6184 -1.1387 -0.0242
13876TIP3    H263044   0.901   3.331   0.453  0.1085  0.3465  0.4537
13877TIP3   OH263045   4.899   5.527   5.531 -0.3571 -0.5817  0.3717
13877TIP3    H163046   4.942   5.454   5.487 -0.5027 -1.3189  1.4340
13877TIP3    H263047   4.892   5.499   5.622  0.0902  0.9777  0.9045
13878TIP3   OH263048   4.325   1.617   0.421 -0.0934 -0.7103 -0.0617
13878TIP3    H163049   4.372   1.569   0.489 -0.9261 -0.8323  0.4313
13878TIP3    H263050   4.281   1.549   0.369  0.5923 -0.6223 -0.7679
13879TIP3   OH263051   3.910   4.136   2.371 -0.1252  0.2284 -0.4169
13879TIP3    H163052   3.885   4.228   2.358  1.4610  0.5662 -1.2195
13879TIP3    H263053   3.995   4.128   2.329  0.1342 -1.4239  0.3739
13880TIP3   OH263054   0.359   4.548   2.580  0.4426 -0.0163  0.1109
13880TIP3    H163055   0.349   4.599   2.661 -0.2556 -2.2436  1.4667
13880TIP3    H263056   0.422   4.597   2.528 -1.0630  2.8314  0.8770
13881TIP3   OH263057   7.100   5.009   3.515  0.8989  0.4969  0.6564
13881TIP3    H163058   7.093   5.027   3.421  1.2274 -0.8603  0.3630
13881TIP3    H263059   7.089   5.094   3.557  0.4350  1.0630 -0.6019
13882TIP3   OH263060   6.525   5.541   3.461 -0.0753 -0.4486  0.0502
13882TIP3    H163061   6.459   5.556   3.394 -0.1294 -0.3091  0.1366
13882TIP3    H263062   6.589   5.483   3.419  0.2966  0.2737 -0.3780
13883TIP3   OH263063   1.771   2.523  13.682 -0.2088 -0.1807  0.5298
13883TIP3    H163064   1.851   2.484  13.719 -0.2794  0.7063  1.6565
13883TIP3    H263065   1.704   2.457  13.694  0.6975 -1.6176 -1.9558
13884TIP3   OH263066   2.877   1.854   1.531 -0.3687 -0.2494 -0.6623
13884TIP3    H163067   2.908   1.857   1.621 -1.2846  0.4900 -0.3567
13884TIP3    H263068   2.850   1.944   1.512 -0.3514 -0.4389 -1.6088
13885TIP3   OH263069   3.252   0.289   2.417 -0.5587  0.2139  0.1715
13885TIP3    H163070   3.328   0.291   2.475 -0.5701  1.1236  0.1494
13885TIP3    H263071   3.183   0.247   2.468 -0.7946  1.6904  1.0813
13886TIP3   OH263072   5.031   6.026  11.607 -0.1897  0.2931 -1.1082
13886TIP3    H163073   5.066   6.016  11.695  1.3173  0.8841 -1.6348
13886TIP3    H263074   5.030   5.937  11.572 -1.8089 -0.0955 -0.1316
13887TIP3   OH263075   2.290   1.461   5.248 -0.3233  0.0819  0.1347
13887TIP3    H163076   2.234   1.538   5.240 -0.0870  0.3793  1.1490
13887TIP3    H263077   2.321   1.464   5.339 -0.1591 -1.1029  0.1282
13888TIP3   OH263078   4.680   6.531   3.200  0.1689 -1.4677 -0.7147
13888TIP3    H163079   4.696   6.497   3.112  0.8228 -2.6814 -0.1220
13888TIP3    H263080   4.765   6.529   3.243  0.2666  1.0965 -0.7190
13889TIP3   OH263081   4.871   5.178   0.594  0.0548 -0.8472  0.5422
13889TIP3    H163082   4.829   5.200   0.511 -0.6286  0.6966  1.2740
13889TIP3    H263083   4.833   5.094   0.619 -1.1826 -0.3932  0.2415
13890TIP3   OH263084   5.360   5.092   2.444 -0.1484  0.7944 -0.3279
13890TIP3    H163085   5.345   5.154   2.515 -0.8698  0.5813 -0.2861
13890TIP3    H263086   5.378   5.009   2.488  0.7691  0.9686 -0.3839
13891TIP3   OH263087   2.406   2.048   0.735  0.4211  0.2110  0.4390
13891TIP3    H163088   2.471   2.111   0.768  0.7476 -0.1050  0.4030
13891TIP3    H263089   2.346   2.101   0.683 -0.0487  0.6990  1.4649
13892TIP3   OH263090   5.456   4.326   1.696 -0.7670  0.0289  0.6088
13892TIP3    H163091   5.540   4.370   1.711 -1.5444  1.4610  0.8795
13892TIP3    H263092   5.409   4.383   1.635 -1.6945 -0.5618  0.7524
13893TIP3   OH263093   1.995   1.563  15.414  0.6662 -0.1359  0.3086
13893TIP3    H163094   2.047   1.644  15.416  1.6906 -0.8136  1.6428
13893TIP3    H263095   1.998   1.531  15.504 -0.8842 -0.9457  0.0715
13894TIP3   OH263096   1.557   1.790   2.604 -0.2388  0.4271 -0.1514
13894TIP3    H163097   1.647   1.757   2.603  0.1409  1.4409  0.2023
13894TIP3    H263098   1.565   1.883   2.582 -1.3416  0.2039 -1.5451
13895TIP3   OH263099   5.269   5.175   5.275  0.6137  0.1050  0.3463
13895TIP3    H163100   5.300   5.092   5.313 -0.1134 -0.0308  0.6409
13895TIP3    H263101   5.225   5.148   5.194 -1.6716 -0.0373  1.5982
13896TIP3   OH263102   3.547   1.856   2.587  0.5315 -0.1476  0.2961
13896TIP3    H163103   3.549   1.765   2.558 -0.2505 -0.0513 -0.0775
13896TIP3    H263104   3.564   1.852   2.681 -1.6647 -0.8841  0.7022
13897TIP3   OH263105   3.346   1.987   0.954  0.2257 -0.7953  0.0082
13897TIP3    H163106   3.295   2.014   1.030  0.6001 -0.1799  0.0479
13897TIP3    H263107   3.417   1.933   0.990  0.5740 -0.2600  0.1313
13898TIP3   OH263108   4.582   5.071   4.149 -0.8736 -0.0771 -0.1665
13898TIP3    H163109   4.637   5.111   4.081 -1.0836  0.6751  0.0996
13898TIP3    H263110   4.644   5.029   4.208 -0.7292 -1.3517 -1.2126
13899TIP3   OH263111   3.691   0.255   2.819 -0.0289  0.1185 -0.2805
13899TIP3    H163112   3.758   0.309   2.862 -0.8110 -0.2073  1.3735
13899TIP3    H263113   3.609   0.299   2.838 -0.4021 -0.0143 -1.5018
13900TIP3   OH263114   0.138   5.707   2.956 -0.1202 -0.0268 -0.0426
13900TIP3    H163115   0.193   5.631   2.940 -1.5318 -1.3488  1.3105
13900TIP3    H263116   0.048   5.676   2.944 -0.7412  1.3138  0.9132
13901TIP3   OH263117   6.831   2.656   2.939  0.2297 -0.0964 -0.1668
13901TIP3    H163118   6.827   2.752   2.945  1.0654 -0.1194  0.8182
13901TIP3    H263119   6.740   2.629   2.931 -0.1009  0.6896  0.8812
13902TIP3   OH263120   0.080   2.838   0.417  0.1551  0.6765  0.0155
13902TIP3    H163121   0.123   2.810   0.336  1.9536  1.7197  0.5778
13902TIP3    H263122   0.023   2.910   0.389 -1.5060 -0.9012 -0.7808
13903TIP3   OH263123   5.163   2.169   0.977  0.1755 -0.3915 -0.3955
13903TIP3    H163124   5.164   2.221   0.897 -0.8312 -1.1442 -0.9069
13903TIP3    H263125   5.140   2.231   1.046  0.4021  0.1248 -0.7760
13904TIP3   OH263126   0.708   2.586   3.060  0.0018 -0.3580  0.1436
13904TIP3    H163127   0.801   2.610   3.062 -0.3017  0.7614  2.4144
13904TIP3    H263128   0.662   2.670   3.059 -1.0056 -0.8996  0.8331
13905TIP3   OH263129   2.993   6.888   3.482  0.2562 -0.1097 -0.2385
13905TIP3    H163130   2.905   6.892   3.444  0.1514 -0.5600 -0.0469
13905TIP3    H263131   3.024   6.800   3.462  0.9543  0.2986 -0.9442
13906TIP3   OH263132   3.812   2.733   4.218 -0.4090 -0.0513  0.1536
13906TIP3    H163133   3.762   2.659   4.183  1.3661 -0.6036 -1.2656
13906TIP3    H263134   3.836   2.784   4.141 -2.7433  2.7907  1.2049
13907TIP3   OH263135   0.775   5.026   4.172 -0.5415 -0.3365  0.5711
13907TIP3    H163136   0.713   4.962   4.206 -0.2174 -1.2632 -0.5507
13907TIP3    H263137   0.858   4.978   4.167 -0.1019  0.4199  0.5062
13908TIP3   OH263138   0.322   1.020   5.172  0.1557  0.0425 -0.2895
13908TIP3    H163139   0.279   0.935   5.179 -1.0812  0.7254  0.5206
13908TIP3    H263140   0.317   1.057   5.260  1.6893  0.4843 -0.3718
13909TIP3   OH263141   1.221   7.042   0.029 -0.1154 -0.3674  0.3088
13909TIP3    H163142   1.241   6.979   0.099  2.0758  1.5822  1.5321
13909TIP3    H263143   1.280   7.018  -0.042 -0.4249 -0.6968  0.1645
13910TIP3   OH263144   5.709   6.183   0.772 -0.1792 -0.0817 -0.5685
13910TIP3    H163145   5.669   6.227   0.847  0.0045  1.1979 -1.2090
13910TIP3    H263146   5.638   6.177   0.707 -0.4098 -1.4145 -0.2188
13911TIP3   OH263147   3.051   2.868   5.312  0.4384  0.3254 -0.4403
13911TIP3    H163148   3.083   2.958   5.302 -0.4065  0.5326 -1.4658
13911TIP3    H263149   2.959   2.873   5.285 -0.5549 -0.2100  2.6484
13912TIP3   OH263150   6.125   1.727   5.155  0.1233 -0.4254  0.8962
13912TIP3    H163151   6.100   1.816   5.183  3.0803  0.1913  1.7148
13912TIP3    H263152   6.056   1.671   5.191  0.0501  1.1701  3.4204
13913TIP3   OH263153   0.299   0.028   2.131  0.6120  0.0119 -0.5095
13913TIP3    H163154   0.312  -0.066   2.120  1.4840  0.2751 -1.8309
13913TIP3    H263155   0.260   0.056   2.048 -0.0692  0.7493  0.0519
13914TIP3   OH263156   4.966   0.920   3.116  0.0298 -0.3280  0.3171
13914TIP3    H163157   4.909   0.850   3.150 -0.3133  0.0735  0.5706
13914TIP3    H263158   5.018   0.877   3.048 -1.4209 -0.4215 -0.7532
13915TIP3   OH263159   2.675   6.611   3.217 -0.3776  0.0243  0.2815
13915TIP3    H163160   2.708   6.524   3.239  0.8465  0.8562  1.8709
13915TIP3    H263161   2.586   6.596   3.186  1.0210 -2.1548 -2.9279
13916TIP3   OH263162   3.570   0.497   4.578 -0.5319  0.4200  0.5289
13916TIP3    H163163   3.596   0.412   4.612 -0.7354  0.1324 -0.0316
13916TIP3    H263164   3.643   0.555   4.601  0.1629 -0.1722 -0.1555
13917TIP3   OH263165   5.372   1.934   4.927 -0.3906 -0.0902  0.1650
13917TIP3    H163166   5.391   1.939   5.021 -1.1651 -1.3089  0.4098
13917TIP3    H263167   5.386   2.022   4.894  0.1976  0.2762  1.3739
13918TIP3   OH263168   4.695   5.791   1.981  0.2755 -0.0389  0.1037
13918TIP3    H163169   4.670   5.719   2.039  0.4069 -0.1061  0.0773
13918TIP3    H263170   4.625   5.793   1.915  0.4215 -0.3335 -0.0626
13919TIP3   OH263171   0.042   0.944   0.168 -0.2721  0.5636  0.0233
13919TIP3    H163172  -0.039   0.972   0.125 -0.2990 -1.3128 -1.2244
13919TIP3    H263173   0.014   0.920   0.257 -2.0320 -4.1849 -1.6153
13920TIP3   OH263174   3.271   6.251   1.694  0.0386 -0.1712  0.0441
13920TIP3    H163175   3.303   6.166   1.724 -3.4786 -1.5143  0.1968
13920TIP3    H263176   3.301   6.313   1.761  1.2770 -1.5050  0.7442
13921TIP3   OH263177   4.361   1.763   3.459  0.0094 -0.3568 -0.1268
13921TIP3    H163178   4.363   1.749   3.553 -1.2944 -2.8102 -0.4389
13921TIP3    H263179   4.448   1.798   3.438  0.5257 -0.4092  1.8674
13922TIP3   OH263180   3.900   2.105   1.429 -0.3455 -0.2041 -0.5527
13922TIP3    H163181   3.936   2.045   1.363 -2.1535  0.1675 -1.9108
13922TIP3    H263182   3.816   2.132   1.393 -0.3885  1.7087  0.9238
13923TIP3   OH263183   2.615   7.112  14.896 -0.1879  0.0862  0.1781
13923TIP3    H163184   2.682   7.097  14.963  0.7852  0.7101 -0.6501
13923TIP3    H263185   2.628   7.203  14.869 -2.5588  0.8257  1.3276
13924TIP3   OH263186   5.202   4.701   5.132  0.6198 -0.1296  0.0115
13924TIP3    H163187   5.185   4.717   5.225 -0.2868 -0.0082 -0.1613
13924TIP3    H263188   5.216   4.606   5.126 -0.1912 -0.2636  0.1511
13925TIP3   OH263189   2.549   6.888   4.784  0.4176  0.2339  0.4833
13925TIP3    H163190   2.547   6.874   4.878  0.9356  0.5637  0.5457
13925TIP3    H263191   2.457   6.885   4.757  0.3630 -1.4154  0.7741
13926TIP3   OH263192   2.483   6.438   4.706  0.0297 -0.2848 -0.3441
13926TIP3    H163193   2.399   6.405   4.739 -1.6773  3.0148 -1.0570
13926TIP3    H263194   2.544   6.428   4.779 -1.2077 -1.8959  0.5049
13927TIP3   OH263195   3.629   1.946   1.313  0.4852  0.0908  0.3474
13927TIP3    H163196   3.693   1.892   1.358 -0.7446  0.4897  2.6233
13927TIP3    H263197   3.555   1.887   1.298  1.0941 -0.1971 -1.7059
13928TIP3   OH263198   5.432   6.513   2.928 -0.2088  0.3265 -1.0901
13928TIP3    H163199   5.451   6.449   2.859  0.8263  1.1871 -1.6183
13928TIP3    H263200   5.517   6.529   2.970 -1.1320 -1.5146  1.5689
13929TIP3   OH263201   5.072   4.771   4.562  0.0478 -0.5884 -0.0321
13929TIP3    H163202   5.136   4.830   4.601 -2.0489  1.8681 -0.2447
13929TIP3    H263203   5.096   4.767   4.469 -0.4642  0.8448 -0.2362
13930TIP3   OH263204   5.882   7.061   1.981 -0.1428  0.3406  0.2189
13930TIP3    H163205   5.893   7.026   2.069 -1.6478  0.4050  0.4528
13930TIP3    H263206   5.920   7.149   1.985 -0.2265  0.3530  0.8122
13931TIP3   OH263207   5.312   2.838   0.232  0.3513 -0.2540  0.6190
13931TIP3    H163208   5.353   2.838   0.318  0.1492 -0.8371  0.7179
13931TIP3    H263209   5.310   2.930   0.206 -2.4148  0.3150  2.5911
13932TIP3   OH263210   0.568   4.064   1.911 -0.1834  0.5819 -0.5503
13932TIP3    H163211   0.649   4.014   1.909 -0.3379  0.2420  1.3994
13932TIP3    H263212   0.593   4.153   1.889  0.3342 -0.0035 -2.4234
13933TIP3   OH263213   5.905   2.744   3.495  0.1416 -0.0198 -0.1784
13933TIP3    H163214   5.914   2.754   3.400  1.5462 -0.3166 -0.0869
13933TIP3    H263215   5.834   2.804   3.518 -0.7145 -0.4972 -1.5171
13934TIP3   OH263216   0.050   6.983   0.767  0.6904  0.0606  0.1686
13934TIP3    H163217   0.011   6.897   0.780 -0.8396  0.7717  0.2798
13934TIP3    H263218   0.017   7.012   0.682  0.6010  0.8747  0.4768
13935TIP3   OH263219   4.266   6.487   3.440  0.4952  0.3259 -0.1712
13935TIP3    H163220   4.243   6.488   3.533 -3.0176  0.3546 -0.9874
13935TIP3    H263221   4.185   6.462   3.395  2.0499  0.5966 -3.2569
13936TIP3   OH263222   3.613   7.012   2.677  0.1229 -0.4909 -0.2712
13936TIP3    H163223   3.685   6.984   2.733  0.2813  0.0730 -0.1890
13936TIP3    H263224   3.654   7.032   2.593  0.1466  0.3766 -0.0553
13937TIP3   OH263225   1.740   2.118   0.461 -0.3386  0.2715 -0.0489
13937TIP3    H163226   1.684   2.060   0.409  0.7734 -1.6891  0.8935
13937TIP3    H263227   1.683   2.151   0.530 -0.8889 -0.0021 -0.3650
13938TIP3   OH263228   1.295   6.218   2.298 -0.0550  0.3360  0.0873
13938TIP3    H163229   1.346   6.292   2.331 -0.4854  1.0772 -0.8647
13938TIP3    H263230   1.304   6.224   2.202  0.6853 -1.4020  0.0296
13939TIP3   OH263231   5.507   1.373   0.583 -0.6536  0.6715  0.7651
13939TIP3    H163232   5.492   1.371   0.489 -0.6053  0.9276  0.7521
13939TIP3    H263233   5.585   1.319   0.597  0.2844  1.9335  0.4853
13940TIP3   OH263234   0.352   2.317   2.609  0.0034  0.2687 -0.1598
13940TIP3    H163235   0.305   2.386   2.656 -1.9979 -1.1640  0.0115
13940TIP3    H263236   0.411   2.280   2.675 -1.5113 -0.5377  0.7897
13941TIP3   OH263237   2.729   3.988   3.579  0.0185  0.3861 -0.0340
13941TIP3    H163238   2.713   4.081   3.593  0.1568  0.4527 -0.3079
13941TIP3    H263239   2.778   3.960   3.656 -0.0490  0.5359  0.0625
13942TIP3   OH263240   5.520   0.527   3.757  0.2792 -0.6241 -0.6448
13942TIP3    H163241   5.495   0.620   3.752  0.5549 -0.3479  2.0407
13942TIP3    H263242   5.446   0.485   3.800  0.5887 -1.4612 -0.9243
13943TIP3   OH263243   6.733   3.562   2.558  0.4523  0.1582  0.1392
13943TIP3    H163244   6.813   3.560   2.610  1.6835 -2.8102 -1.7269
13943TIP3    H263245   6.686   3.482   2.584 -1.3915  1.2944  0.3995
13944TIP3   OH263246   3.873   1.242   1.428  0.9848  0.4897 -0.3981
13944TIP3    H163247   3.958   1.283   1.410  0.4820  0.9692 -1.7764
13944TIP3    H263248   3.868   1.169   1.365  0.7142 -0.0194  0.2104
13945TIP3   OH263249   2.305   1.810   1.729  0.0466  0.2126  0.2782
13945TIP3    H163250   2.302   1.863   1.809 -1.4560 -0.4749  0.6912
13945TIP3    H263251   2.215   1.783   1.715  0.0119  1.5310 -2.4862
13946TIP3   OH263252   4.331   4.658   3.418 -0.5259  0.1565 -0.8044
13946TIP3    H163253   4.392   4.696   3.356 -0.8277  0.6310 -0.8133
13946TIP3    H263254   4.311   4.571   3.383 -1.6558  0.9035 -2.0212
13947TIP3   OH263255   3.390   0.870   3.237  0.1678  0.4467 -0.2379
13947TIP3    H163256   3.418   0.811   3.307 -0.8373  0.4498  0.1660
13947TIP3    H263257   3.417   0.826   3.156  0.0589 -0.2317  0.0935
13948TIP3   OH263258   3.622   6.657   2.932  0.0958  0.3151  0.1065
13948TIP3    H163259   3.703   6.635   2.978  0.8144 -1.0860 -1.7916
13948TIP3    H263260   3.646   6.661   2.840 -1.8648  0.4571 -0.4334
13949TIP3   OH263261   4.306   4.445   0.554  0.1233 -0.6744 -0.1600
13949TIP3    H163262   4.302   4.372   0.616  2.1458  0.5236  1.4160
13949TIP3    H263263   4.259   4.516   0.598 -1.1154 -0.7379 -1.3413
13950TIP3   OH263264   1.554   6.418   2.238 -0.2962  0.5030  0.3241
13950TIP3    H163265   1.559   6.325   2.262  1.2256  0.3960 -0.2918
13950TIP3    H263266   1.525   6.417   2.146  0.4917  0.5925  0.0712
13951TIP3   OH263267   0.349   4.635  14.704 -0.1580 -0.4661 -0.6286
13951TIP3    H163268   0.277   4.607  14.761  1.1204 -1.8020  0.3527
13951TIP3    H263269   0.308   4.694  14.641 -2.0205 -0.8152  0.2326
13952TIP3   OH263270   4.566   0.757   3.642 -0.1634  0.2845 -0.2939
13952TIP3    H163271   4.572   0.808   3.722 -0.6716  0.2392 -0.2275
13952TIP3    H263272   4.545   0.668   3.672 -0.0773  0.2081 -0.4587
13953TIP3   OH263273   0.248   3.279   2.854  0.1745  0.6054 -0.0377
13953TIP3    H163274   0.214   3.362   2.886  1.3692  1.4808 -0.9783
13953TIP3    H263275   0.312   3.304   2.787  0.3028 -1.0801 -0.5539
13954TIP3   OH263276   1.983   3.050   2.109 -0.7150 -0.2903 -0.2564
13954TIP3    H163277   1.919   3.060   2.038  0.3050  2.6278 -0.8107
13954TIP3    H263278   1.944   2.983   2.166 -3.5801  0.3812 -1.3266
13955TIP3   OH263279   2.793   1.108   1.682 -0.1352  0.1164  0.4793
13955TIP3    H163280   2.843   1.067   1.611  0.6920  0.0704  1.0915
13955TIP3    H263281   2.703   1.107   1.650  0.0515 -1.0426 -0.0423
13956TIP3   OH263282   4.388   2.781   4.980 -0.0116  0.1160  0.1354
13956TIP3    H163283   4.384   2.876   4.993  1.2595  0.1123  0.5772
13956TIP3    H263284   4.373   2.769   4.886 -0.6663  0.7100  0.1565
13957TIP3   OH263285   6.340   3.117   5.017 -0.2796  0.1158  0.1647
13957TIP3    H163286   6.420   3.126   4.966 -0.9207  0.3279 -0.8038
13957TIP3    H263287   6.343   3.190   5.079 -0.4677  1.0276 -0.8841
13958TIP3   OH263288   4.747   4.049   3.781 -0.2257 -0.5009 -0.2674
13958TIP3    H163289   4.715   4.077   3.867  0.3452 -0.5690 -0.0298
13958TIP3    H263290   4.840   4.030   3.795 -0.3288 -1.3298 -0.7107
13959TIP3   OH263291   4.622   0.733   5.555  0.2235  0.4331  0.1869
13959TIP3    H163292   4.663   0.784   5.485 -1.4714  0.6338 -0.6743
13959TIP3    H263293   4.696   0.701   5.607  1.3795  2.8818  0.1438
13960TIP3   OH263294   1.122   4.262   3.660  0.6568  0.0586  0.0317
13960TIP3    H163295   1.135   4.167   3.659 -0.2606 -0.1347  2.3488
13960TIP3    H263296   1.026   4.273   3.659  0.7593  0.9946 -1.0940
13961TIP3   OH263297   3.264   1.617   2.073  0.0814 -0.3254 -0.2968
13961TIP3    H163298   3.226   1.626   2.161  0.7346 -2.5459  0.2435
13961TIP3    H263299   3.188   1.605   2.016 -0.3152  0.6237  0.0153
13962TIP3   OH263300   4.420   0.205   5.877  0.0826  0.2704 -0.4306
13962TIP3    H163301   4.493   0.266   5.870 -0.7523  1.3671  0.1532
13962TIP3    H263302   4.350   0.246   5.826  0.3451 -1.5267 -2.2837
13963TIP3   OH263303   4.237   5.188   2.769 -0.1645  0.6886  0.8209
13963TIP3    H163304   4.214   5.280   2.756  0.5784  0.5627 -1.7513
13963TIP3    H263305   4.325   5.180   2.733  0.0491 -0.8931  1.6432
13964TIP3   OH263306   4.124   1.367   1.264  0.2458 -0.5095 -0.2907
13964TIP3    H163307   4.173   1.447   1.245  0.5667 -0.7539 -0.4984
13964TIP3    H263308   4.188   1.308   1.304 -0.7148  0.4534  2.7700
13965TIP3   OH263309   3.838   5.343   4.948  0.4889 -0.2484  0.2437
13965TIP3    H163310   3.850   5.285   5.024 -2.2539  1.5478  2.1358
13965TIP3    H263311   3.892   5.419   4.968 -0.1601  0.1833  0.3856
13966TIP3   OH263312   0.306   3.839   2.708 -0.2462  0.1169 -0.1372
13966TIP3    H163313   0.304   3.793   2.792 -0.8519  0.8611  0.2630
13966TIP3    H263314   0.370   3.909   2.720  0.7570 -0.6728 -0.7827
13967TIP3   OH263315   0.118   6.047  13.685 -0.4427 -0.1443  0.5268
13967TIP3    H163316   0.089   6.054  13.594 -0.5810 -1.9194  0.4089
13967TIP3    H263317   0.171   6.124  13.700 -0.6903  0.3230 -0.9695
13968TIP3   OH263318   4.229   0.908   5.265  0.8450  0.3885 -0.6647
13968TIP3    H163319   4.247   0.960   5.343 -1.5217 -0.3873  0.4523
13968TIP3    H263320   4.241   0.818   5.293  3.5132  0.1946 -2.2129
13969TIP3   OH263321   0.349   2.999   1.760  0.2132 -0.3042  0.4057
13969TIP3    H163322   0.306   2.929   1.810  1.7605 -1.0548  0.7357
13969TIP3    H263323   0.364   2.961   1.673  1.9547 -0.7829  0.8812
13970TIP3   OH263324   2.917   6.941   1.533  0.9083  0.9613 -0.1866
13970TIP3    H163325   2.872   6.859   1.553 -0.6445  1.1804 -2.5226
13970TIP3    H263326   2.964   6.924   1.452  0.0527  2.5313 -1.0469
13971TIP3   OH263327   2.992   6.288  15.237 -0.5695  0.2053 -0.3787
13971TIP3    H163328   2.911   6.264  15.283  0.2105  0.3119  1.0675
13971TIP3    H263329   2.963   6.310  15.149 -2.1808  0.5487  0.2086
13972TIP3   OH263330   5.468   5.992   4.904 -0.3158 -0.1646  0.1553
13972TIP3    H163331   5.509   6.070   4.867  0.0553  0.5794  2.0469
13972TIP3    H263332   5.468   6.008   4.999  0.9347 -3.0188  0.6923
13973TIP3   OH263333   7.147   2.545   4.959  0.2541  0.5803  0.2149
13973TIP3    H163334   7.240   2.529   4.944 -0.0163 -2.0196  1.0678
13973TIP3    H263335   7.139   2.556   5.053 -0.5040 -0.7090  0.3106
13974TIP3   OH263336   6.030   5.907   3.797  1.0334 -0.2958 -0.3375
13974TIP3    H163337   6.032   5.842   3.727  0.7901 -0.0929 -0.5337
13974TIP3    H263338   6.064   5.861   3.874 -0.5568 -1.1028 -0.1072
13975TIP3   OH263339   2.138   4.057   0.242 -0.0102 -0.0251  0.1778
13975TIP3    H163340   2.112   4.148   0.230  2.0395  0.2789 -2.2970
13975TIP3    H263341   2.184   4.056   0.326  1.4309  1.5961 -0.5650
13976TIP3   OH263342   0.432   3.738   0.780 -0.6950 -0.7402 -0.1720
13976TIP3    H163343   0.403   3.812   0.728 -0.5663 -0.2780  0.4053
13976TIP3    H263344   0.411   3.762   0.870  0.1843 -1.0023  0.1129
13977TIP3   OH263345   3.734   6.403  14.511 -0.3944  0.3777  0.0558
13977TIP3    H163346   3.666   6.450  14.463 -0.3215  0.3954 -0.0308
13977TIP3    H263347   3.690   6.327  14.549 -0.5946  0.7100  0.4962
13978TIP3   OH263348   6.969   5.330   4.747  0.1367 -0.1191 -0.0279
13978TIP3    H163349   6.938   5.261   4.804 -1.3577 -0.7082 -1.5048
13978TIP3    H263350   6.989   5.285   4.664 -2.4511  1.4344 -1.5428
13979TIP3   OH263351   6.497   0.496   1.013 -0.2155  0.1763  0.2709
13979TIP3    H163352   6.549   0.426   0.973  2.1700  1.5611  0.8490
13979TIP3    H263353   6.484   0.560   0.942  0.5340  0.7169  0.6064
13980TIP3   OH263354   1.498   6.452   3.889  0.5572  0.1658 -0.5794
13980TIP3    H163355   1.523   6.534   3.931 -2.1810  1.6159 -1.6686
13980TIP3    H263356   1.512   6.467   3.796 -1.8151  0.1365 -0.9729
13981TIP3   OH263357   1.098   3.861   5.440 -0.1690  1.1710  0.3467
13981TIP3    H163358   1.086   3.869   5.346 -0.0864  1.0882  0.3293
13981TIP3    H263359   1.170   3.921   5.460 -0.7175  1.7880  0.4768
13982TIP3   OH263360   5.956   2.409   4.530 -0.0517  0.0415 -0.1989
13982TIP3    H163361   5.877   2.409   4.585  0.0872 -1.7451  0.0207
13982TIP3    H263362   5.948   2.331   4.476  1.6455 -0.2653 -0.0500
13983TIP3   OH263363   4.657   6.350  14.162  0.3579  0.3214 -0.0447
13983TIP3    H163364   4.622   6.262  14.144 -0.3482  0.5403  0.2375
13983TIP3    H263365   4.579   6.406  14.169  0.8522  1.1542 -1.1921
13984TIP3   OH263366   6.906   5.463   5.079 -0.2565 -0.1595  0.2779
13984TIP3    H163367   6.899   5.552   5.043  0.0392 -0.7299 -1.1833
13984TIP3    H263368   6.836   5.414   5.036 -0.2648 -0.7078  0.9116
13985TIP3   OH263369   0.587   2.639   2.707  0.5382 -0.3929  0.4745
13985TIP3    H163370   0.584   2.635   2.612  2.0704  0.3939  0.3779
13985TIP3    H263371   0.659   2.698   2.727  1.2332 -1.7423  2.1500
13986TIP3   OH263372   3.025   3.949   1.907 -0.0130  0.1039  0.2207
13986TIP3    H163373   3.100   3.935   1.848 -0.2577  0.9419 -0.2999
13986TIP3    H263374   2.969   4.011   1.860 -0.9706 -0.4157  0.6718
13987TIP3   OH263375   1.965   4.059   3.186  0.7310 -0.0966 -0.1686
13987TIP3    H163376   1.938   4.045   3.096 -0.5178  0.8971  0.0441
13987TIP3    H263377   1.890   4.101   3.228  0.2980 -2.8977  2.0061
13988TIP3   OH263378   3.215   4.359   3.915 -0.1771  0.0381  0.3556
13988TIP3    H163379   3.197   4.425   3.849 -1.0731 -0.0760  0.4831
13988TIP3    H263380   3.265   4.291   3.869  0.2663  0.5380  0.0955
13989TIP3   OH263381   2.781   4.985   2.000 -0.7716 -0.0756 -0.1540
13989TIP3    H163382   2.749   5.023   1.918 -1.1930  0.7101  0.3677
13989TIP3    H263383   2.716   5.012   2.065 -0.7162 -1.1267  0.3457
13990TIP3   OH263384   4.142   6.393  14.758 -0.0784  0.1841 -0.0763
13990TIP3    H163385   4.089   6.429  14.829 -1.3496  1.1369 -1.4781
13990TIP3    H263386   4.115   6.302  14.752 -1.2378  0.5485 -0.4754
13991TIP3   OH263387   3.569   2.718  15.069 -0.2906 -0.3851 -0.7791
13991TIP3    H163388   3.619   2.769  15.006 -1.9272  0.3505 -1.5388
13991TIP3    H263389   3.607   2.630  15.064  0.8859  0.1426 -1.3410
13992TIP3   OH263390   1.019   5.205   2.651  0.5716  0.0803  0.0785
13992TIP3    H163391   1.052   5.116   2.637 -1.2776 -0.7493  0.7300
13992TIP3    H263392   1.014   5.214   2.746  0.3847  0.7414  0.0072
13993TIP3   OH263393   1.770   2.194   1.681  0.4420 -0.0858  0.5554
13993TIP3    H163394   1.858   2.224   1.659 -0.1151 -0.0475 -1.7738
13993TIP3    H263395   1.769   2.190   1.776  2.8500  0.2523  0.6259
13994TIP3   OH263396   6.620   4.106   2.493  0.3769  0.2048  0.2356
13994TIP3    H163397   6.622   4.054   2.413  0.3613  0.6233 -0.0395
13994TIP3    H263398   6.571   4.184   2.469  1.2669  0.8114  0.3549
13995TIP3   OH263399   5.936   6.464  14.118  0.3016 -0.7405 -0.2247
13995TIP3    H163400   6.026   6.488  14.138 -0.1276  1.0975 -0.4087
13995TIP3    H263401   5.921   6.498  14.030 -1.7087  2.3295  1.2134
13996TIP3   OH263402   1.261   5.934   5.190 -0.9914 -0.3908  0.5087
13996TIP3    H163403   1.208   5.856   5.172 -0.6121 -0.7660  0.9880
13996TIP3    H263404   1.295   5.920   5.279  0.2355 -0.3410  0.0597
13997TIP3   OH263405   6.082   1.634   4.124 -0.0007 -1.0794  0.1893
13997TIP3    H163406   6.091   1.637   4.219 -1.6031  0.2166  0.3301
13997TIP3    H263407   6.079   1.541   4.102  1.3592 -1.4059  1.2785
13998TIP3   OH263408   6.767   0.020   2.230  0.2228 -0.9716  0.6731
13998TIP3    H163409   6.719  -0.061   2.248 -2.3537  0.4913  0.6795
13998TIP3    H263410   6.714   0.066   2.164  1.3794  0.9262  1.0066
13999TIP3   OH263411   4.345   6.423   4.895  0.0430  0.0848  0.6958
13999TIP3    H163412   4.405   6.368   4.845 -0.0648 -2.2198  3.0032
13999TIP3    H263413   4.290   6.465   4.828  2.0308 -0.3222 -1.2677
14000TIP3   OH263414   1.607   0.747   4.398  0.0678 -0.3581 -0.2943
14000TIP3    H163415   1.610   0.725   4.491 -0.5934  0.1204 -0.1583
14000TIP3    H263416   1.609   0.663   4.353  0.0781 -0.6014  0.1602
14001TIP3   OH263417   4.862   4.716  12.677 -0.2631 -0.2653 -0.4308
14001TIP3    H163418   4.931   4.654  12.698  0.4023  1.4203  2.5469
14001TIP3    H263419   4.782   4.663  12.676  0.5024 -1.4502  0.4657
14002TIP3   OH263420   1.141   1.072   5.395  0.0124  0.5527 -0.2941
14002TIP3    H163421   1.064   1.039   5.441  0.3509  1.0557  0.6515
14002TIP3    H263422   1.173   0.997   5.345 -1.3546  0.4708 -1.0669
14003TIP3   OH263423   2.047   2.587   5.437  0.2544  0.1336  0.5328
14003TIP3    H163424   2.059   2.501   5.396  1.6114 -0.0405  1.2594
14003TIP3    H263425   1.953   2.600   5.438  0.0616 -1.1120 -0.0781
14004TIP3   OH263426   3.637   5.590   2.386 -0.4212 -0.2211 -0.2697
14004TIP3    H163427   3.616   5.527   2.317 -2.5620 -0.6288  0.6988
14004TIP3    H263428   3.581   5.564   2.459 -0.1674  1.8657  0.6957
14005TIP3   OH263429   5.508   5.096   3.074  0.2163  0.2346 -0.0331
14005TIP3    H163430   5.550   5.029   3.020  1.4346 -0.7095  2.0117
14005TIP3    H263431   5.573   5.167   3.077 -0.1100  0.5465 -0.2986
14006TIP3   OH263432   1.918   0.561   2.157  0.2594  0.1861 -0.0370
14006TIP3    H163433   1.983   0.492   2.173 -1.4501 -1.6865 -0.8813
14006TIP3    H263434   1.910   0.565   2.062 -0.3998  0.8343  0.0433
14007TIP3   OH263435   2.463   1.172   4.934  0.0506 -0.5450  0.5559
14007TIP3    H163436   2.491   1.087   4.969 -2.5917 -2.1583 -1.0740
14007TIP3    H263437   2.526   1.191   4.864  2.8422  0.6932  3.2660
14008TIP3   OH263438   2.404   4.206   4.167 -0.2685  0.0890  0.8353
14008TIP3    H163439   2.315   4.187   4.135  0.8848 -1.2853 -1.7267
14008TIP3    H263440   2.444   4.120   4.177  1.4114  0.7525 -0.0057
14009TIP3   OH263441   1.988   5.394   5.592 -0.5897 -0.0439 -0.0837
14009TIP3    H163442   1.944   5.394   5.507  0.3864  0.2688 -0.5850
14009TIP3    H263443   1.917   5.377   5.655 -1.7121  1.9875 -0.7408
14010TIP3   OH263444   1.093   0.620   4.436  0.3715  0.2132 -0.3094
14010TIP3    H163445   1.046   0.628   4.519 -1.6586  0.4245 -1.4532
14010TIP3    H263446   1.118   0.710   4.414 -1.9205  0.5982 -1.4969
14011TIP3   OH263447   6.449   4.688   1.690 -0.2848 -0.0190 -0.2455
14011TIP3    H163448   6.432   4.603   1.731  0.2769  0.8706  1.8921
14011TIP3    H263449   6.523   4.724   1.739 -1.8037  2.5894  0.2320
14012TIP3   OH263450   6.548   1.167   5.444  0.7911  0.3084  0.9186
14012TIP3    H163451   6.584   1.182   5.531 -1.7522 -3.2907  2.7135
14012TIP3    H263452   6.552   1.072   5.432  0.0401  0.6332 -2.4288
14013TIP3   OH263453   0.747   5.477   4.406  0.1074 -0.3206  0.5027
14013TIP3    H163454   0.676   5.433   4.360  0.6371  0.7606 -1.4048
14013TIP3    H263455   0.720   5.569   4.409  2.5637  0.5494 -2.5263
14014TIP3   OH263456   1.154   1.502   3.878  0.1154 -0.3856  0.2315
14014TIP3    H163457   1.156   1.575   3.816  1.5885 -0.5979  0.0121
14014TIP3    H263458   1.194   1.429   3.831  1.0086 -0.6203  1.3143
14015TIP3   OH263459   4.777   1.599   4.932 -0.0527 -0.0908 -0.1343
14015TIP3    H163460   4.862   1.643   4.942 -0.7649  2.0492 -2.8387
14015TIP3    H263461   4.733   1.613   5.016  1.5868  0.2571  0.6983
14016TIP3   OH263462   4.762   2.322   2.567 -0.1267  0.2669  0.1073
14016TIP3    H163463   4.841   2.304   2.515  1.7884  3.3919  1.7758
14016TIP3    H263464   4.691   2.320   2.504  1.5511 -0.5269 -1.8252
14017TIP3   OH263465   6.419   1.644   0.967 -0.0744  0.0086 -0.1450
14017TIP3    H163466   6.479   1.570   0.975  0.0402 -0.0719 -1.5603
14017TIP3    H263467   6.332   1.605   0.966 -0.2729  0.2281  3.3328
14018TIP3   OH263468   3.583   0.454   4.231 -0.2857 -0.8928  0.5500
14018TIP3    H163469   3.516   0.509   4.272  1.0164  0.7420  0.5383
14018TIP3    H263470   3.656   0.456   4.292  0.4110 -1.2126 -0.2612
14019TIP3   OH263471   2.729   6.432   3.859  0.3099  0.4303  0.1312
14019TIP3    H163472   2.783   6.509   3.872 -0.3801  0.5247  2.6107
14019TIP3    H263473   2.781   6.360   3.895 -0.1890  0.1430  0.2776
14020TIP3   OH263474   5.977   2.713   0.346  0.3036  0.5131  0.4461
14020TIP3    H163475   6.034   2.714   0.423  2.2738 -0.9248 -0.9483
14020TIP3    H263476   6.033   2.682   0.275 -1.3700  2.1596 -1.6682
14021TIP3   OH263477   3.275   1.532   3.699 -0.0331  0.6892 -0.8649
14021TIP3    H163478   3.362   1.499   3.721 -0.8710 -1.1231 -0.2348
14021TIP3    H263479   3.292   1.609   3.644  1.9688  1.0937  0.2987
14022TIP3   OH263480   3.694   6.066   0.571  0.0474 -0.6093  0.1582
14022TIP3    H163481   3.739   6.149   0.583  0.6125 -1.0587  1.1860
14022TIP3    H263482   3.688   6.055   0.476  0.1613  0.4933  0.0223
14023TIP3   OH263483   5.622   6.174   2.792  0.5826  0.4892 -0.0530
14023TIP3    H163484   5.624   6.159   2.697 -1.8050 -0.2363 -0.0193
14023TIP3    H263485   5.553   6.116   2.824  0.5053  1.6683  1.9779
14024TIP3   OH263486   3.666   0.913   6.033 -0.0709 -0.2465  0.1057
14024TIP3    H163487   3.594   0.913   5.969 -0.2135 -0.5748  0.2702
14024TIP3    H263488   3.640   0.849   6.099 -0.1317  0.4087  0.7288
14025TIP3   OH263489   6.547   6.859   0.982 -0.7188  0.0220 -0.5360
14025TIP3    H163490   6.526   6.872   0.889 -0.8739 -1.8218 -0.7842
14025TIP3    H263491   6.599   6.779   0.983 -2.6441 -1.2420  1.2013
14026TIP3   OH263492   5.422   0.991  14.367 -0.0375  0.1695  0.3881
14026TIP3    H163493   5.359   1.054  14.332 -2.2463 -1.5043  1.2559
14026TIP3    H263494   5.443   1.024  14.455  0.2480  0.6962  0.1221
14027TIP3   OH263495   6.688   5.740  15.262  0.2908 -0.5019  0.1171
14027TIP3    H163496   6.782   5.721  15.268  0.4221 -0.1018 -0.6030
14027TIP3    H263497   6.650   5.696  15.338  0.8762 -1.8290 -0.3383
14028TIP3   OH263498   5.085   1.252   2.159  0.1115  0.3919 -0.1820
14028TIP3    H163499   5.128   1.331   2.126  0.6975  0.0844 -0.1632
14028TIP3    H263500   5.151   1.210   2.213 -0.9199  1.0170  1.5984
14029TIP3   OH263501   2.422   1.999   4.723  0.0175 -0.1132  0.4486
14029TIP3    H163502   2.372   1.930   4.767  2.2177 -1.2293  1.2849
14029TIP3    H263503   2.478   2.036   4.791 -1.1829  2.5968  0.0202
14030TIP3   OH263504   6.182   2.795   4.717  0.6081  0.0224  0.0212
14030TIP3    H163505   6.145   2.748   4.642  0.4209 -0.0353  0.1492
14030TIP3    H263506   6.230   2.728   4.766  1.2335  0.1813 -0.3679
14031TIP3   OH263507   4.012   5.681   2.472  0.2086 -0.1006  0.6148
14031TIP3    H163508   4.025   5.588   2.454 -0.0835 -0.0447  0.1360
14031TIP3    H263509   3.988   5.719   2.388 -0.5111  0.2582  0.9793
14032TIP3   OH263510   4.138   6.073   1.788 -0.4837 -0.4505 -0.2105
14032TIP3    H163511   4.060   6.018   1.780 -0.1609 -0.9069 -0.2279
14032TIP3    H263512   4.210   6.017   1.761  0.1609 -0.7985  2.1203
14033TIP3   OH263513   1.345   7.123   3.520  0.1673 -0.0802  0.4908
14033TIP3    H163514   1.273   7.092   3.573 -1.6242  0.6096 -1.4699
14033TIP3    H263515   1.316   7.207   3.485  2.6518  1.1100  1.1111
14034TIP3   OH263516   5.972   6.593   3.768  0.2576 -1.0666 -0.4616
14034TIP3    H163517   6.062   6.587   3.735 -0.0223 -3.5741 -0.9392
14034TIP3    H263518   5.981   6.606   3.862  1.1465 -1.5183 -0.4797
14035TIP3   OH263519   2.816   4.058   3.321 -0.2639 -0.0346 -0.2179
14035TIP3    H163520   2.798   4.027   3.410 -0.1104 -0.7061 -0.4204
14035TIP3    H263521   2.745   4.022   3.268 -0.1870  0.1159 -0.4219
14036TIP3   OH263522   0.687   3.348   5.144 -0.4561  0.2775  0.5320
14036TIP3    H163523   0.607   3.327   5.095 -0.8277  1.2161  0.7168
14036TIP3    H263524   0.659   3.416   5.206  0.1342 -0.4765  1.6481
14037TIP3   OH263525   4.482   2.979   1.462 -0.0183  0.6305  0.2079
14037TIP3    H163526   4.472   2.958   1.554  2.7721 -0.8177  0.2278
14037TIP3    H263527   4.550   3.047   1.460 -0.1635  0.7541 -0.7433
14038TIP3   OH263528   4.191   3.423   5.123 -0.0243 -0.3921  0.4425
14038TIP3    H163529   4.136   3.474   5.182  1.4031 -0.9752  2.3523
14038TIP3    H263530   4.194   3.336   5.162  1.1118 -0.7393 -0.3835
14039TIP3   OH263531   4.511   5.095   2.739  0.3178  0.3577 -0.5085
14039TIP3    H163532   4.505   5.028   2.808  0.4814 -0.1061 -0.9426
14039TIP3    H263533   4.564   5.164   2.779  0.4503  0.0726 -0.1785
14040TIP3   OH263534   2.561   2.146   4.562  0.4492 -0.3478  0.5567
14040TIP3    H163535   2.499   2.115   4.497  0.6656 -0.7001  0.5187
14040TIP3    H263536   2.540   2.096   4.641  0.5219 -0.2899  0.6133
14041TIP3   OH263537   6.568   1.204   0.240 -0.5349  0.2023 -0.5969
14041TIP3    H163538   6.476   1.207   0.266 -1.1368  2.2090 -2.8173
14041TIP3    H263539   6.613   1.166   0.316 -3.0619 -0.0554  0.8220
14042TIP3   OH263540   4.233   6.387   2.818 -0.2986  0.5026  0.1453
14042TIP3    H163541   4.258   6.347   2.735  0.4516 -0.9001  1.0188
14042TIP3    H263542   4.312   6.381   2.872 -0.2946  2.7963  0.4604
14043TIP3   OH263543   0.189   7.099   3.285  0.1704  0.4726  0.0590
14043TIP3    H163544   0.266   7.140   3.323  0.8799 -1.6970  1.0420
14043TIP3    H263545   0.119   7.115   3.348  0.6069 -0.3857  0.7732
14044TIP3   OH263546   5.923   0.808   1.275 -0.0906  0.6031  0.1294
14044TIP3    H163547   6.014   0.815   1.307  0.0304  1.1769 -0.3191
14044TIP3    H263548   5.923   0.732   1.218 -0.2247 -0.2271  1.2277
14045TIP3   OH263549   0.692   0.391   5.413 -0.0593  0.1929  0.1260
14045TIP3    H163550   0.656   0.302   5.406  1.3544 -0.3766  0.0351
14045TIP3    H263551   0.754   0.398   5.341 -0.3791  1.3659 -0.0451
14046TIP3   OH263552   1.256   5.260   3.458  0.0928 -0.0328  0.1285
14046TIP3    H163553   1.331   5.208   3.487  0.8373 -0.3450 -2.3022
14046TIP3    H263554   1.185   5.197   3.448  0.7689 -0.4732 -2.0136
14047TIP3   OH263555   1.306   0.004   1.050 -0.7126  0.3251 -0.1498
14047TIP3    H163556   1.261   0.045   1.124  1.5005  2.1400  0.2556
14047TIP3    H263557   1.304  -0.090   1.070 -0.3812  0.7606  2.0862
14048TIP3   OH263558   6.784   6.656   2.624  0.5216  0.0055 -0.2904
14048TIP3    H163559   6.844   6.610   2.682  1.2342  1.1459 -0.1004
14048TIP3    H263560   6.702   6.608   2.630  0.3802  0.4974  2.1820
14049TIP3   OH263561   6.828   2.574  14.089  0.0671 -0.2124  0.0079
14049TIP3    H163562   6.830   2.482  14.061  0.0307 -0.7492  1.7255
14049TIP3    H263563   6.763   2.577  14.159  0.2655  1.0684  0.1501
14050TIP3   OH263564   6.305   3.752   2.089  0.5226  0.4048 -0.9452
14050TIP3    H163565   6.328   3.842   2.112  1.3690  0.4008 -1.7515
14050TIP3    H263566   6.220   3.759   2.045  0.3197  0.7403 -0.5026
14051TIP3   OH263567   6.949   4.614  13.185  0.0613  0.0481  0.4303
14051TIP3    H163568   6.931   4.608  13.091 -1.3194  0.0166  0.6798
14051TIP3    H263569   6.917   4.532  13.221  0.8562 -0.0599  0.8959
14052TIP3   OH263570   3.314   2.736   5.305 -0.1868  0.0934 -0.2743
14052TIP3    H163571   3.247   2.804   5.297 -1.9661 -1.6361 -0.2778
14052TIP3    H263572   3.321   2.720   5.399  1.3067  1.2822 -0.1502
14053TIP3   OH263573   5.349   0.980   2.618 -0.2406  0.6016 -0.1819
14053TIP3    H163574   5.285   0.910   2.601 -0.2730  1.5648 -4.5191
14053TIP3    H263575   5.434   0.938   2.605 -0.2159  1.0377 -1.4263
14054TIP3   OH263576   5.444   7.147   0.149 -0.0548 -0.0561  0.5408
14054TIP3    H163577   5.493   7.218   0.189 -0.8006  0.6412  0.2262
14054TIP3    H263578   5.467   7.070   0.201  0.0862  0.5696  1.4254
14055TIP3   OH263579   2.239   3.739   0.427  0.4431 -0.3940  0.4263
14055TIP3    H163580   2.268   3.824   0.394  0.1826 -0.2992  0.4375
14055TIP3    H263581   2.308   3.712   0.488  0.2742  0.0527  0.8147
14056TIP3   OH263582   3.014   1.964   4.038 -0.3120  0.3706  0.0886
14056TIP3    H163583   3.064   1.883   4.027 -0.5549 -0.2079  2.9418
14056TIP3    H263584   3.028   1.989   4.129 -2.8303  1.8004  0.1301
14057TIP3   OH263585   4.883   2.447   0.103  0.1918  0.4080 -0.1191
14057TIP3    H163586   4.900   2.393   0.026  2.1649  1.0220 -0.1348
14057TIP3    H263587   4.890   2.387   0.177  0.0505  0.1760 -0.2931
14058TIP3   OH263588   5.602   6.477   2.416  0.1642  0.2739 -0.4134
14058TIP3    H163589   5.616   6.540   2.487  0.1476 -0.7569  0.5143
14058TIP3    H263590   5.660   6.507   2.346  0.2942  1.2153  0.0895
14059TIP3   OH263591   6.182   5.675   3.726  0.0002  0.3547  0.4685
14059TIP3    H163592   6.262   5.719   3.756 -0.9379  2.8891 -0.5897
14059TIP3    H263593   6.164   5.609   3.793  4.5141 -2.2624 -0.7106
14060TIP3   OH263594   4.648   0.902   2.609 -0.4400  0.2404  0.4738
14060TIP3    H163595   4.573   0.941   2.563 -0.2526 -1.1149 -0.9967
14060TIP3    H263596   4.669   0.966   2.678 -3.9072 -0.0432  1.8909
14061TIP3   OH263597   5.187   5.167   4.252 -0.6142 -0.2847  0.4293
14061TIP3    H163598   5.211   5.245   4.302  4.1587 -0.6877 -0.9677
14061TIP3    H263599   5.271   5.126   4.230 -2.8872 -4.4351 -1.0781
14062TIP3   OH263600   0.423   2.779  11.959  0.0874 -0.0487 -0.4987
14062TIP3    H163601   0.452   2.861  11.919  0.6776 -0.0757 -0.1351
14062TIP3    H263602   0.395   2.803  12.048  1.0554 -0.3638 -0.0977
14063TIP3   OH263603   0.098   1.378   1.198 -0.9575  0.0360  0.3161
14063TIP3    H163604   0.059   1.450   1.249  0.2214  1.7019 -1.0874
14063TIP3    H263605   0.191   1.400   1.193 -0.5958 -1.5676 -0.2218
14064TIP3   OH263606   6.303   3.548   0.711 -0.2226  0.2013  0.5403
14064TIP3    H163607   6.328   3.461   0.740  1.1250  0.0665 -1.0211
14064TIP3    H263608   6.209   3.553   0.731 -0.4305 -1.7788  0.1514
14065TIP3   OH263609   5.396   0.959   4.860 -0.8220 -0.0223 -0.3813
14065TIP3    H163610   5.440   1.019   4.800  0.9018 -1.1662 -0.2986
14065TIP3    H263611   5.303   0.976   4.846 -0.4711 -0.0087 -3.1584
14066TIP3   OH263612   6.030   0.511   2.247 -0.6561 -0.1222 -0.0620
14066TIP3    H163613   6.099   0.445   2.238 -0.7983 -0.2721 -0.0478
14066TIP3    H263614   6.046   0.552   2.332 -0.4058  0.0461 -0.1904
14067TIP3   OH263615   0.968   2.863   0.344 -1.1539 -0.2289 -0.4098
14067TIP3    H163616   0.906   2.889   0.412 -1.2311  0.1586 -0.6253
14067TIP3    H263617   0.913   2.830   0.273 -1.0533 -1.0728 -0.1045
14068TIP3   OH263618   6.859   6.578   3.958 -0.2819 -0.2797  0.2675
14068TIP3    H163619   6.806   6.631   4.018 -0.3249 -0.3305  0.2740
14068TIP3    H263620   6.900   6.512   4.014 -0.8303 -0.7277  0.1433
14069TIP3   OH263621   1.581   5.845   2.435 -0.1302 -0.5750 -0.2907
14069TIP3    H163622   1.602   5.788   2.361  0.9547 -0.5192 -0.0458
14069TIP3    H263623   1.611   5.932   2.408  0.0463 -0.5069  0.1119
14070TIP3   OH263624   2.638   2.604  14.720  0.4397  0.1306  0.2261
14070TIP3    H163625   2.601   2.550  14.789 -0.7415  1.9019  0.9952
14070TIP3    H263626   2.569   2.609  14.654  0.7128  0.3327 -0.0435
14071TIP3   OH263627   3.863   0.090   3.328 -0.3878 -0.4312 -0.4397
14071TIP3    H163628   3.825   0.139   3.401 -0.1683  0.6884 -1.0585
14071TIP3    H263629   3.796   0.093   3.260 -0.1969 -0.6026 -0.6345
14072TIP3   OH263630   4.371   2.293   3.170  0.3306 -0.2859  0.2606
14072TIP3    H163631   4.325   2.321   3.091  0.6547 -2.6803 -0.8000
14072TIP3    H263632   4.340   2.204   3.186  2.8263 -1.0888  0.8574
14073TIP3   OH263633   1.523   2.207   5.338  0.4346 -0.3791  0.0491
14073TIP3    H163634   1.510   2.133   5.278  0.5845 -0.2211 -0.1769
14073TIP3    H263635   1.613   2.235   5.322  0.3523 -0.0975  0.0835
14074TIP3   OH263636   6.876   5.270   3.098 -0.6238 -0.4843 -0.0476
14074TIP3    H163637   6.905   5.342   3.154  2.1875  0.0625 -2.1169
14074TIP3    H263638   6.901   5.191   3.146 -1.5054 -0.0784  1.1010
14075TIP3   OH263639   1.360   0.620   3.951 -0.4306 -0.6277 -0.9024
14075TIP3    H163640   1.412   0.542   3.931 -1.0663 -1.5818  0.9751
14075TIP3    H263641   1.284   0.585   3.998 -0.3052  1.2140  0.7065
14076TIP3   OH263642   0.571   4.823   1.872  0.3945  0.1361 -0.1068
14076TIP3    H163643   0.632   4.755   1.901 -0.7400 -0.9128 -0.1560
14076TIP3    H263644   0.590   4.898   1.928  2.3624  0.1386 -0.7291
14077TIP3   OH263645   6.067   0.803   2.077  0.2138 -0.2295 -0.1800
14077TIP3    H163646   6.023   0.869   2.023 -0.0452 -0.3228 -0.0815
14077TIP3    H263647   6.048   0.720   2.034  1.5704 -0.1318 -1.0117
14078TIP3   OH263648   4.034   1.936   2.774  0.2251 -0.3502 -0.3642
14078TIP3    H163649   3.947   1.902   2.752  0.2166  0.2887 -1.3279
14078TIP3    H263650   4.089   1.908   2.701  0.9323 -1.1622  0.4784
14079TIP3   OH263651   5.977   4.407   1.185 -0.6809 -0.1354 -0.9635
14079TIP3    H163652   6.067   4.382   1.163 -0.7193 -2.2367  1.0700
14079TIP3    H263653   5.928   4.395   1.104  0.5284 -0.7125 -1.6214
14080TIP3   OH263654   4.944   4.425   2.013  0.3997 -0.2995  0.1816
14080TIP3    H163655   4.897   4.501   1.980 -1.7889 -2.0159 -0.7547
14080TIP3    H263656   5.005   4.461   2.078  2.0169  2.6811 -2.8424
14081TIP3   OH263657   2.311   2.423   2.805  0.3649 -0.3726 -0.4730
14081TIP3    H163658   2.243   2.391   2.864  0.0478  0.6194 -0.2894
14081TIP3    H263659   2.265   2.445   2.724  0.8217 -1.8783 -1.1708
14082TIP3   OH263660   5.032   2.445   4.514 -0.2266  0.2731 -0.4623
14082TIP3    H163661   5.122   2.411   4.510 -0.4188 -0.4815  1.3261
14082TIP3    H263662   4.979   2.369   4.536 -1.4197  0.5864 -2.1647
14083TIP3   OH263663   2.131   5.540   3.636 -0.3713  0.0534 -0.1788
14083TIP3    H163664   2.182   5.460   3.650  0.1131  0.5642  0.9611
14083TIP3    H263665   2.050   5.526   3.685 -0.8728 -0.2922 -1.0864
14084TIP3   OH263666   0.940   1.855  15.222  0.3252 -0.4992 -0.1047
14084TIP3    H163667   0.902   1.768  15.210 -2.4401  0.4952  0.9544
14084TIP3    H263668   0.964   1.858  15.315  2.9295 -1.0376 -0.7116
14085TIP3   OH263669   2.895   5.016   4.309  0.5154 -0.0327  0.2943
14085TIP3    H163670   2.807   4.984   4.288 -0.1301  2.6478 -1.3339
14085TIP3    H263671   2.898   5.019   4.404 -0.7091 -1.3260  0.3816
14086TIP3   OH263672   6.258   3.825  14.891 -0.2091  0.0498  0.0356
14086TIP3    H163673   6.309   3.811  14.811  0.3385  0.5443  0.2919
14086TIP3    H263674   6.290   3.759  14.952  1.8863  1.8907  1.0167
14087TIP3   OH263675   5.903   2.158   0.569  0.4886  0.1516  0.2113
14087TIP3    H163676   5.876   2.146   0.478  0.8230  0.1015  0.1185
14087TIP3    H263677   5.880   2.076   0.613 -2.5625  1.3019  0.8852
14088TIP3   OH263678   4.427   4.253   1.050 -0.4507 -1.1033  0.3102
14088TIP3    H163679   4.456   4.306   0.976 -1.5892 -2.8799 -1.4332
14088TIP3    H263680   4.506   4.208   1.080 -0.1292 -0.9299 -0.2710
14089TIP3   OH263681   3.264   2.506   3.868  0.7336  0.2127  0.0252
14089TIP3    H163682   3.278   2.463   3.952  1.2612 -1.8179 -1.0541
14089TIP3    H263683   3.170   2.494   3.851  0.9342 -0.8461 -0.4149
14090TIP3   OH263684   3.657   6.848  15.321  0.1402 -0.1160 -0.4785
14090TIP3    H163685   3.581   6.857  15.379  0.1605  0.7447 -0.5771
14090TIP3    H263686   3.721   6.911  15.357  0.9036 -1.0237 -0.2328
14091TIP3   OH263687   4.597   6.904   2.844 -0.6445 -0.2399  0.1946
14091TIP3    H163688   4.550   6.821   2.848 -0.5614 -0.3591 -1.1079
14091TIP3    H263689   4.687   6.881   2.866 -0.7592 -0.3757  0.5256
14092TIP3   OH263690   5.133   5.774  15.417 -0.2885  0.5043 -0.4333
14092TIP3    H163691   5.055   5.722  15.437  1.6179 -2.1809  0.2623
14092TIP3    H263692   5.138   5.773  15.321 -0.8052  0.2641 -0.4641
14093TIP3   OH263693   6.116   5.361   4.719 -0.1384 -0.1519  0.4599
14093TIP3    H163694   6.063   5.362   4.640  0.3158 -0.7240  0.1394
14093TIP3    H263695   6.057   5.328   4.787 -0.7367  1.0482  0.5185
14094TIP3   OH263696   2.750   1.208  14.855  0.0782 -0.2029  0.2697
14094TIP3    H163697   2.728   1.240  14.943 -0.1408 -1.6370  0.7402
14094TIP3    H263698   2.843   1.186  14.860 -0.1264 -1.0532  0.3772
14095TIP3   OH263699   5.385   2.656   4.031  0.4641  0.0787 -0.4397
14095TIP3    H163700   5.293   2.642   4.009  0.4493 -2.8743  1.1683
14095TIP3    H263701   5.384   2.688   4.121  0.9696  1.6364 -0.9692
14096TIP3   OH263702   4.393   1.312   1.573 -0.4147  0.3021  0.0752
14096TIP3    H163703   4.369   1.288   1.484 -0.7043 -0.2644  0.2999
14096TIP3    H263704   4.487   1.298   1.577 -0.2915  0.9902 -0.3413
14097TIP3   OH263705   3.979   2.647   1.178  0.4087  0.1414  0.3477
14097TIP3    H163706   4.039   2.582   1.142  2.2637  2.3155 -0.5948
14097TIP3    H263707   3.927   2.675   1.102  1.2286  1.4379  0.2467
14098TIP3   OH263708   5.351   1.807   2.986 -0.7992 -0.0232  0.4123
14098TIP3    H163709   5.343   1.877   2.920  2.5165 -2.0674 -2.3379
14098TIP3    H263710   5.275   1.750   2.970 -2.0494  1.4694  0.8867
14099TIP3   OH263711   5.560   1.451   0.888 -0.4493 -0.1828  0.0658
14099TIP3    H163712   5.489   1.390   0.907 -1.2772  0.6577 -0.2728
14099TIP3    H263713   5.532   1.496   0.808  0.6789 -0.1600 -0.3298
14100TIP3   OH263714   5.409   4.717   1.801  0.3917 -0.5594 -0.6855
14100TIP3    H163715   5.320   4.713   1.836  0.9674 -0.0378  0.9243
14100TIP3    H263716   5.416   4.643   1.742 -1.7745  0.5876 -2.4683
14101TIP3   OH263717   7.013   1.235   4.211 -0.4480 -0.3007  0.1567
14101TIP3    H163718   7.037   1.300   4.145 -1.0203  0.5149  0.7377
14101TIP3    H263719   6.931   1.197   4.180  0.6037 -1.7680 -0.8943
14102TIP3   OH263720   4.748   2.729   2.410  0.5359 -0.1818  0.4284
14102TIP3    H163721   4.808   2.685   2.350 -1.3254 -0.1777 -1.4420
14102TIP3    H263722   4.661   2.713   2.375 -0.5401  0.5753  2.6330
14103TIP3   OH263723   5.399   0.064   4.871 -0.2341 -0.2663 -0.1227
14103TIP3    H163724   5.342   0.004   4.823 -2.9433  0.9650  1.4224
14103TIP3    H263725   5.340   0.134   4.900  2.1102  1.0978  1.4889
14104TIP3   OH263726   6.979   3.658   2.920 -0.9093 -0.5138  0.0038
14104TIP3    H163727   7.034   3.714   2.976  0.5594 -0.4664 -1.4462
14104TIP3    H263728   6.898   3.708   2.908 -0.3877  0.4341  0.3438
14105TIP3   OH263729   2.751   1.785   4.715  0.1688 -0.1717 -0.0010
14105TIP3    H163730   2.751   1.877   4.743  0.0999  0.2274 -1.2437
14105TIP3    H263731   2.673   1.747   4.755  0.7063  0.0716  1.2827
14106TIP3   OH263732   6.586   1.852   1.054  0.0658 -0.2138 -0.1632
14106TIP3    H163733   6.539   1.929   1.085 -0.5693 -0.3474 -0.7988
14106TIP3    H263734   6.518   1.786   1.037  0.5871 -0.8676  0.2264
14107TIP3   OH263735   6.249   2.161   1.852 -0.0154  0.9229  0.1169
14107TIP3    H163736   6.248   2.068   1.829  0.3905  0.5602  1.5275
14107TIP3    H263737   6.167   2.174   1.900  0.3888  1.0788  0.7605
14108TIP3   OH263738   6.968   2.737   2.002  0.1113 -0.3739 -0.4180
14108TIP3    H163739   6.893   2.777   2.045 -0.9704 -0.4405 -2.1783
14108TIP3    H263740   6.974   2.649   2.040  0.5096  0.2899  1.1089
14109TIP3   OH263741   7.079   1.225   3.904 -0.0738  0.0654  0.2212
14109TIP3    H163742   7.092   1.307   3.855 -0.3953 -0.2383 -0.3765
14109TIP3    H263743   6.992   1.235   3.943 -0.1539 -0.0342  0.0669
14110TIP3   OH263744   1.829   2.129   0.805 -0.2288 -0.3735  0.4681
14110TIP3    H163745   1.875   2.083   0.734 -0.0290 -1.4362  1.2819
14110TIP3    H263746   1.876   2.211   0.815 -0.1005 -0.3289 -0.4629
14111TIP3   OH263747   3.166   4.748   3.587 -0.1666 -0.1178  0.3774
14111TIP3    H163748   3.239   4.713   3.638  0.8544 -0.8231 -1.5050
14111TIP3    H263749   3.099   4.769   3.652  0.8967 -1.4438  1.9522
14112TIP3   OH263750   6.436   6.671   1.925 -0.3201  0.0060 -0.1662
14112TIP3    H163751   6.434   6.591   1.872  0.5344 -1.3423  1.8253
14112TIP3    H263752   6.387   6.649   2.004  2.3467  0.5123  1.6839
14113TIP3   OH263753   6.815   1.144   1.808  0.4221 -0.6763 -0.5427
14113TIP3    H163754   6.906   1.154   1.781 -0.2147 -0.1348 -2.6436
14113TIP3    H263755   6.809   1.188   1.892  1.8750  0.1748 -0.8745
14114TIP3   OH263756   7.008   6.981   2.019  0.3503 -0.7102  0.2795
14114TIP3    H163757   7.036   7.059   2.066  1.0679 -0.6752 -0.1923
14114TIP3    H263758   7.060   6.910   2.057 -0.7520 -1.0643  1.1348
14115TIP3   OH263759   1.058   3.427   1.986 -0.4735  0.5249 -0.1759
14115TIP3    H163760   0.993   3.463   1.926 -0.6106 -0.5446 -0.6884
14115TIP3    H263761   1.142   3.446   1.945 -0.5582  0.0035 -0.6009
14116TIP3   OH263762   5.715   0.141  14.484  0.2280  1.2231 -0.2337
14116TIP3    H163763   5.632   0.102  14.510  0.4832  0.1362 -1.0146
14116TIP3    H263764   5.697   0.184  14.401  0.3923  1.1804 -0.2912
14117TIP3   OH263765   6.835   1.640   0.255 -0.2793  0.4664 -0.1284
14117TIP3    H163766   6.785   1.715   0.289 -0.0730  0.1352  0.9340
14117TIP3    H263767   6.926   1.659   0.278 -0.0193  0.6549 -1.2976
14118TIP3   OH263768   0.156   1.067   3.803 -0.8664 -0.5050 -0.1791
14118TIP3    H163769   0.220   1.127   3.842 -1.3862  0.7095 -1.1467
14118TIP3    H263770   0.084   1.064   3.866 -1.5913  1.2429 -0.8976
14119TIP3   OH263771   5.784   5.040   3.214  0.1750 -0.5223  0.2657
14119TIP3    H163772   5.774   5.127   3.252 -0.1429  0.1909 -1.4269
14119TIP3    H263773   5.879   5.025   3.214  0.2993  0.2725 -0.4438
14120TIP3   OH263774   4.862   1.370   4.785 -0.0729  0.0423  0.3225
14120TIP3    H163775   4.777   1.326   4.782 -1.1866  2.2255 -2.7856
14120TIP3    H263776   4.841   1.460   4.812  0.9801  1.0483 -2.0386
14121TIP3   OH263777   4.107   7.040  14.184 -0.3057 -0.3681  0.9198
14121TIP3    H163778   4.154   7.012  14.106  0.1169 -1.0786  1.4149
14121TIP3    H263779   4.167   7.101  14.227 -0.2231 -0.5515  1.0680
14122TIP3   OH263780   5.842   0.749   2.477 -0.3098 -0.0665 -0.1904
14122TIP3    H163781   5.912   0.684   2.478  1.2149  1.5092  1.4478
14122TIP3    H263782   5.763   0.700   2.499  0.5833 -1.5867 -0.3189
14123TIP3   OH263783   6.726   1.407   1.569 -0.1534 -0.2593  0.3105
14123TIP3    H163784   6.708   1.425   1.662  0.4605  0.0961  0.3618
14123TIP3    H263785   6.821   1.413   1.561 -0.3256  1.4617 -0.6903
14124TIP3   OH263786   4.177   7.050   2.229 -0.0851  0.2809  0.1560
14124TIP3    H163787   4.258   7.100   2.233  0.2393 -0.0958 -1.6247
14124TIP3    H263788   4.204   6.958   2.231 -0.3595  0.1372 -1.8189
14125TIP3   OH263789   0.924   3.416   5.017 -0.1606 -0.1320  0.5253
14125TIP3    H163790   0.930   3.475   5.092 -1.5927 -0.3072  0.7972
14125TIP3    H263791   0.844   3.367   5.032  0.2774 -1.1574 -0.4204
14126TIP3   OH263792   3.527   2.282   1.742 -0.2922 -0.3647  0.0573
14126TIP3    H163793   3.574   2.275   1.659  1.8615  0.1856  1.2001
14126TIP3    H263794   3.443   2.322   1.718  0.9207  1.2756 -1.6428
14127TIP3   OH263795   3.435   5.992   4.744 -0.5442 -0.2781  0.0735
14127TIP3    H163796   3.391   6.073   4.719  0.5321  0.3216  0.0606
14127TIP3    H263797   3.392   5.965   4.824  0.7713  1.7202  1.5107
14128TIP3   OH263798   1.119   1.857  13.267 -0.1411 -0.6137 -0.0588
14128TIP3    H163799   1.146   1.794  13.334  1.5317  0.6030  0.4201
14128TIP3    H263800   1.198   1.873  13.215 -1.3791 -1.4672 -2.3178
14129TIP3   OH263801   6.114   4.017   4.069  0.4696 -0.0534 -0.1868
14129TIP3    H163802   6.155   4.103   4.065 -0.4313  0.4141  0.4880
14129TIP3    H263803   6.140   3.982   4.155  4.7258 -2.4539 -2.2741
14130TIP3   OH263804   1.356   3.348   4.030 -0.4539 -0.0474 -0.3348
14130TIP3    H163805   1.270   3.389   4.040 -0.2360  0.4109 -0.3267
14130TIP3    H263806   1.338   3.254   4.031 -0.8595  0.0370  0.5330
14131TIP3   OH263807   0.554   5.458   4.043 -0.5734  0.2132 -0.1172
14131TIP3    H163808   0.584   5.460   4.134  0.2115 -1.1835 -0.3239
14131TIP3    H263809   0.623   5.504   3.994 -1.8546  2.5279  0.2025
14132TIP3   OH263810   0.577   4.881   2.691 -0.3344  0.0009  0.1200
14132TIP3    H163811   0.490   4.878   2.732  0.0834  0.0817  1.0168
14132TIP3    H263812   0.575   4.812   2.625 -0.1942 -1.7385  1.8876
14133TIP3   OH263813   1.198   1.828  14.173  0.4486  0.3777  0.3949
14133TIP3    H163814   1.269   1.878  14.134 -0.8929  1.4066 -0.7743
14133TIP3    H263815   1.147   1.796  14.099 -2.0463  2.2344  1.2257
14134TIP3   OH263816   4.446   3.099   3.476 -0.2300  0.2746 -0.5687
14134TIP3    H163817   4.496   3.069   3.400 -0.2830  1.1908 -0.9736
14134TIP3    H263818   4.372   3.039   3.481  0.2976 -0.3877 -0.6575
14135TIP3   OH263819   0.126   2.979  13.946  0.2037 -0.9483  0.4088
14135TIP3    H163820   0.112   2.904  14.003  0.2252  0.3716  2.2117
14135TIP3    H263821   0.205   2.958  13.896 -0.5542 -2.6779 -0.0791
14136TIP3   OH263822   3.810   1.459  15.043 -0.0543  0.1337  0.8321
14136TIP3    H163823   3.765   1.382  15.076 -0.6683 -0.1981 -0.7407
14136TIP3    H263824   3.757   1.533  15.075 -1.6198 -0.2470 -0.8250
14137TIP3   OH263825   1.788   4.151  13.442  0.6084 -0.6889  0.2135
14137TIP3    H163826   1.843   4.154  13.521  0.0794  0.3662  0.5572
14137TIP3    H263827   1.714   4.207  13.463  1.6471  1.5753 -1.9563
14138TIP3   OH263828   3.155   6.574   3.993 -0.2523 -0.0356  0.0440
14138TIP3    H163829   3.073   6.587   3.945  0.0971  1.5003 -0.1634
14138TIP3    H263830   3.147   6.486   4.029 -0.9865 -0.8230 -1.9366
14139TIP3   OH263831   2.060   3.822   4.483  0.4561  0.6871  0.1905
14139TIP3    H163832   1.970   3.842   4.456  0.0719  1.4190  1.9400
14139TIP3    H263833   2.051   3.748   4.543  0.9660  1.1134  0.7974
14140TIP3   OH263834   5.537   4.284   2.639 -0.4769  0.1137  0.2169
14140TIP3    H163835   5.559   4.361   2.587  1.1195 -0.8566 -0.5959
14140TIP3    H263836   5.479   4.233   2.583 -0.7632  0.2667  0.3744
14141TIP3   OH263837   2.499   0.038   3.962 -0.3023  0.1898  0.0475
14141TIP3    H163838   2.528   0.091   3.888 -1.8098  2.6429  1.1789
14141TIP3    H263839   2.403   0.040   3.957 -0.4111 -2.5405  0.0567
14142TIP3   OH263840   7.124   4.846   4.800  0.0859  0.3979 -0.4767
14142TIP3    H163841   7.070   4.832   4.723  0.0168  3.5662 -1.0305
14142TIP3    H263842   7.208   4.876   4.766  0.0542  1.8368  0.6520
14143TIP3   OH263843   5.984   3.067   1.718 -0.4434 -0.2541 -0.0464
14143TIP3    H163844   6.000   3.156   1.749  0.9106  0.3170 -2.2657
14143TIP3    H263845   5.937   3.079   1.636  3.1007 -1.4002 -2.3356
14144TIP3   OH263846   2.827   1.990   3.742  0.4572  0.4859 -0.2866
14144TIP3    H163847   2.866   1.914   3.700  1.0893  1.1184 -0.8474
14144TIP3    H263848   2.734   1.985   3.720  0.5816  0.1535 -0.7311
14145TIP3   OH263849   5.675   0.680   5.773 -0.1218 -0.3028  0.2615
14145TIP3    H163850   5.627   0.626   5.837  1.3568  1.5110  2.9764
14145TIP3    H263851   5.723   0.616   5.720 -0.7544 -1.8166  1.4568
14146TIP3   OH263852   7.148   5.048  14.758 -0.1694 -0.0527 -0.5516
14146TIP3    H163853   7.152   4.970  14.814 -1.5517  0.1685 -0.1289
14146TIP3    H263854   7.222   5.101  14.785 -2.3252  1.3370  3.0255
14147TIP3   OH263855   1.652   4.969   2.000  0.0987  0.4571 -0.4807
14147TIP3    H163856   1.662   4.970   1.904  0.4954 -0.1046 -0.4481
14147TIP3    H263857   1.592   4.896   2.017  0.7009  0.0146 -0.2424
14148TIP3   OH263858   6.336   3.218   0.090 -0.0469  0.0157 -0.4245
14148TIP3    H163859   6.248   3.253   0.080 -0.0878  1.0485  2.8188
14148TIP3    H263860   6.323   3.128   0.119 -0.0159 -0.3216 -1.4528
14149TIP3   OH263861   4.486   0.851   0.907 -0.6129  0.0682  0.1409
14149TIP3    H163862   4.443   0.845   0.992 -1.0307 -1.1032 -0.1327
14149TIP3    H263863   4.553   0.918   0.917 -1.6337  0.9661  0.9659
14150TIP3   OH263864   6.670   4.916   1.854 -0.0994  0.6925 -0.3457
14150TIP3    H163865   6.742   4.964   1.813 -0.2100  1.5163  0.4171
14150TIP3    H263866   6.656   4.959   1.938 -1.2079  0.2802 -0.3012
14151TIP3   OH263867   5.040   4.210   1.199 -0.2557  0.2681 -0.5675
14151TIP3    H163868   5.121   4.189   1.246  0.7085  0.7025 -1.9899
14151TIP3    H263869   5.032   4.142   1.133 -0.3202  0.9882 -1.3107
14152TIP3   OH263870   6.305   4.089  15.008  0.0544 -0.3496 -0.2941
14152TIP3    H163871   6.336   4.045  15.087 -1.6223  1.3505  1.3373
14152TIP3    H263872   6.278   4.017  14.950  1.6817 -1.6192  0.4878
14153TIP3   OH263873   6.559   3.617   2.956  0.1720 -0.2713  0.0416
14153TIP3    H163874   6.518   3.553   2.898  1.4689 -0.6449 -0.4999
14153TIP3    H263875   6.486   3.663   2.997 -0.7667 -1.5802 -0.1371
14154TIP3   OH263876   1.809   2.469  15.177 -0.0455  0.4665  0.2153
14154TIP3    H163877   1.769   2.383  15.167 -0.9230  0.9403 -0.3761
14154TIP3    H263878   1.744   2.521  15.224  1.1273  0.3679  1.9995
14155TIP3   OH263879   1.334   5.843   3.749 -0.1179 -0.4957  0.2322
14155TIP3    H163880   1.368   5.911   3.807 -1.1866 -0.3436  0.6804
14155TIP3    H263881   1.411   5.813   3.701  0.3183  1.3194 -0.2635
14156TIP3   OH263882   6.844   2.493   3.865 -0.5581  0.2223  0.0469
14156TIP3    H163883   6.802   2.480   3.950  1.0115 -0.9690  0.6574
14156TIP3    H263884   6.890   2.411   3.848  1.1274  1.3211 -0.8250
14157TIP3   OH263885   1.002   1.942   1.756 -0.2086 -0.0919  0.3557
14157TIP3    H163886   1.033   2.007   1.819  0.2658  0.0266  0.0066
14157TIP3    H263887   0.995   1.990   1.673 -3.0560  0.3326  0.7959
14158TIP3   OH263888   3.889   7.148   2.262  0.0418 -0.0150  0.2978
14158TIP3    H163889   3.907   7.242   2.275  0.0899 -0.2056  1.6771
14158TIP3    H263890   3.968   7.105   2.294 -0.4425 -0.5760  0.7433
14159TIP3   OH263891   1.787   0.035   3.937  0.5145 -0.1012 -0.2945
14159TIP3    H163892   1.758   0.055   4.026  1.5576 -2.0980  0.5235
14159TIP3    H263893   1.793   0.121   3.894  0.1597  0.9022  1.6045
14160TIP3   OH263894   4.912   6.141   3.056  0.0485 -0.1190  0.0070
14160TIP3    H163895   5.003   6.159   3.078  0.3581 -0.8370 -0.6976
14160TIP3    H263896   4.867   6.138   3.141  0.5951  0.6288  0.3333
14161TIP3   OH263897   4.036   2.195   0.571  0.3874  0.3220 -0.0853
14161TIP3    H163898   4.086   2.274   0.586  2.1502 -0.9816  1.0326
14161TIP3    H263899   4.089   2.124   0.607 -0.9730 -1.4331 -1.3642
14162TIP3   OH263900   1.063   4.743   1.421  0.1496 -0.1454  0.1781
14162TIP3    H163901   1.071   4.832   1.388  0.8070 -0.6441 -1.0152
14162TIP3    H263902   0.974   4.716   1.395  1.4819 -1.4029 -3.4336
14163TIP3   OH263903   5.534   0.733   0.813 -0.3229  0.3816 -0.2736
14163TIP3    H163904   5.616   0.686   0.831  1.0244  2.6551 -0.2348
14163TIP3    H263905   5.474   0.704   0.881  0.9651 -0.1194  0.6598
14164TIP3   OH263906   6.569   5.268   1.811 -0.6119 -0.0008 -0.2571
14164TIP3    H163907   6.474   5.264   1.822 -0.4818 -3.0321  0.3230
14164TIP3    H263908   6.604   5.255   1.899  0.3351 -0.4026 -0.6842
14165TIP3   OH263909   5.991   0.717   4.556  0.4298  0.5919 -0.4552
14165TIP3    H163910   5.921   0.775   4.526  0.1636  0.7360  0.4371
14165TIP3    H263911   5.972   0.702   4.648  1.5718  0.6281 -0.2105
14166TIP3   OH263912   2.328   0.437   3.490  0.0376  0.0233  0.2675
14166TIP3    H163913   2.284   0.480   3.417  1.2539 -0.6771 -0.9083
14166TIP3    H263914   2.276   0.460   3.566 -1.2860  0.7316 -0.8256
14167TIP3   OH263915   0.384   5.922   3.730  0.2424  0.7076  0.1169
14167TIP3    H163916   0.435   5.956   3.802  1.7873 -1.8158  0.2647
14167TIP3    H263917   0.396   5.986   3.659  1.8484  1.2183  0.8419
14168TIP3   OH263918   5.747   2.801   1.814 -0.1313  0.0059 -0.4033
14168TIP3    H163919   5.843   2.808   1.821 -0.2025 -1.3442  2.9962
14168TIP3    H263920   5.727   2.832   1.726  3.3629  1.0788 -0.8975
14169TIP3   OH263921   6.280   1.190  14.272 -0.2754  0.4256 -0.6869
14169TIP3    H163922   6.187   1.191  14.297 -0.7365 -0.2221 -2.3304
14169TIP3    H263923   6.308   1.100  14.289  0.4849  0.9989  1.2677
14170TIP3   OH263924   6.970   1.242   5.434 -0.1967 -0.5375  0.0397
14170TIP3    H163925   6.932   1.304   5.496  0.0661 -0.0531 -0.2752
14170TIP3    H263926   6.997   1.168   5.488  2.4735  1.0014  0.9136
14171TIP3   OH263927   2.264   5.298   3.658 -0.3522  0.0769  0.0867
14171TIP3    H163928   2.359   5.294   3.668 -0.5109  0.3747  1.7415
14171TIP3    H263929   2.245   5.229   3.593  0.8541 -0.8587  0.6975
14172TIP3   OH263930   4.468   1.803   1.592 -0.7195 -0.8523 -0.1952
14172TIP3    H163931   4.386   1.828   1.636  0.5217  0.7962  1.2135
14172TIP3    H263932   4.520   1.762   1.660  0.5739  0.2745 -0.4796
14173TIP3   OH263933   1.071   6.426   4.402 -0.2023 -0.0893 -0.8536
14173TIP3    H163934   1.009   6.497   4.416 -0.2421 -0.4199  0.7232
14173TIP3    H263935   1.093   6.395   4.490  1.3283 -0.7276 -1.4426
14174TIP3   OH263936   2.759   1.289   2.978 -0.0685  0.1025 -0.1034
14174TIP3    H163937   2.681   1.316   3.027 -0.1648 -0.2183 -0.0833
14174TIP3    H263938   2.833   1.320   3.031 -0.1795  0.2359 -0.0274
14175TIP3   OH263939   3.561   6.529   2.308  0.1480 -0.2222 -0.5374
14175TIP3    H163940   3.629   6.507   2.370 -0.3460 -0.2242  0.0083
14175TIP3    H263941   3.494   6.573   2.360 -0.5338 -0.7506 -0.9584
14176TIP3   OH263942   4.161   2.783   5.171 -0.1920 -0.1212  0.5569
14176TIP3    H163943   4.077   2.805   5.130  0.2307  0.5454  0.0394
14176TIP3    H263944   4.225   2.792   5.101  0.5681  1.2763  1.4216
14177TIP3   OH263945   6.804   0.455  14.576  0.8873  0.5002 -0.2568
14177TIP3    H163946   6.808   0.527  14.513 -0.5639  0.3142 -0.5872
14177TIP3    H263947   6.884   0.404  14.559  1.3837  1.4355 -0.7438
14178TIP3   OH263948   6.746   1.065   3.809 -0.0520  0.3508  0.2191
14178TIP3    H163949   6.755   1.144   3.755  0.9881  0.0908 -0.0057
14178TIP3    H263950   6.774   0.994   3.751 -2.7967 -0.4342 -0.2155
14179TIP3   OH263951   0.995   0.921   1.065  0.0224 -0.4588  0.1736
14179TIP3    H163952   1.088   0.900   1.077 -0.0366 -0.9255 -0.1872
14179TIP3    H263953   0.994   0.998   1.008  0.1501 -1.2909 -0.9729
14180TIP3   OH263954   7.055   2.233  14.377 -0.3312  0.5784 -0.0372
14180TIP3    H163955   7.136   2.283  14.374 -0.1191  0.2094 -0.5117
14180TIP3    H263956   7.080   2.148  14.414 -0.4028  0.2810 -0.6729
14181TIP3   OH263957   5.697   1.736   0.602 -0.1293 -0.0487 -0.6121
14181TIP3    H163958   5.609   1.698   0.605 -0.2860  0.3842  1.2393
14181TIP3    H263959   5.755   1.660   0.599 -0.5385 -0.3485 -1.1359
14182TIP3   OH263960   6.953   3.582   4.281 -0.1075  0.3179  0.1071
14182TIP3    H163961   6.895   3.640   4.232  1.2151  0.6692 -1.0681
14182TIP3    H263962   6.923   3.494   4.260  0.6695  0.4520 -1.6311
14183TIP3   OH263963   5.863   3.036   1.199 -0.3138  0.3948 -0.1799
14183TIP3    H163964   5.898   3.115   1.158  2.0404 -0.2002  0.5702
14183TIP3    H263965   5.846   3.061   1.290  2.6307 -0.4745  0.6938
14184TIP3   OH263966   2.695   5.860  15.504  1.0309 -0.5612  0.8804
14184TIP3    H163967   2.625   5.862  15.439  2.8177  1.5195 -1.0704
14184TIP3    H263968   2.742   5.779  15.486  0.8824 -0.5120  0.2456
14185TIP3   OH263969   1.862   1.754   2.467 -0.4248 -0.1049  0.2731
14185TIP3    H163970   1.897   1.674   2.427 -0.8293 -0.7275  1.1464
14185TIP3    H263971   1.939   1.811   2.477  0.2744 -1.2564  1.6660
14186TIP3   OH263972   3.756   6.612   2.628 -0.5655 -0.3407  0.7977
14186TIP3    H163973   3.833   6.608   2.571 -2.1582 -1.4670 -1.3671
14186TIP3    H263974   3.785   6.574   2.710  0.9708 -1.5007 -0.2471
14187TIP3   OH263975   0.765   0.303   1.270  0.6483  0.5450 -0.0229
14187TIP3    H163976   0.803   0.223   1.306  1.8189  0.5390 -1.2311
14187TIP3    H263977   0.785   0.299   1.177  1.4283  2.6201  0.0365
14188TIP3   OH263978   3.569   5.257   3.596  1.0482  0.8257 -0.0540
14188TIP3    H163979   3.541   5.168   3.573  0.6920  0.7993  0.4737
14188TIP3    H263980   3.662   5.259   3.575  1.4611 -0.2336  1.5866
14189TIP3   OH263981   5.400   5.697   2.517  0.2524  0.1839 -0.1338
14189TIP3    H163982   5.378   5.636   2.447 -0.2775  0.1035  0.0971
14189TIP3    H263983   5.487   5.671   2.546  0.2079 -0.1811 -0.3299
14190TIP3   OH263984   6.786   6.625   2.251 -0.0879  0.0873 -0.5443
14190TIP3    H163985   6.805   6.576   2.331  0.3555  0.7834 -0.2238
14190TIP3    H263986   6.697   6.659   2.265 -0.1579 -0.1103 -0.5080
14191TIP3   OH263987   6.429   1.550   1.271 -0.4196 -0.4143  0.1518
14191TIP3    H163988   6.523   1.555   1.285 -0.2276 -2.9187 -0.1142
14191TIP3    H263989   6.402   1.641   1.257  1.9230  0.3280  0.3147
14192TIP3   OH263990   6.898   4.996   1.366 -0.2370  0.0326 -0.4473
14192TIP3    H163991   6.915   4.902   1.360 -0.0366 -0.0185  0.7619
14192TIP3    H263992   6.981   5.037   1.344  0.1496 -0.1219  0.6600
14193TIP3   OH263993   3.633   1.685   2.090  0.5755  0.5623  0.0926
14193TIP3    H163994   3.600   1.772   2.070 -0.4554  0.3758  0.9709
14193TIP3    H263995   3.712   1.701   2.142  0.4793  0.9762  0.1150
14194TIP3   OH263996   4.581   3.998  14.664  0.5986 -0.1617  0.2641
14194TIP3    H163997   4.506   4.025  14.716  0.5892 -0.8744  0.6347
14194TIP3    H263998   4.639   4.074  14.663 -0.3917  0.5987 -0.5198
14195TIP3   OH263999   2.668   5.595   1.148  0.1794 -0.2796 -0.4949
14195TIP3    H164000   2.652   5.548   1.066  0.4169  0.4001 -0.9359
14195TIP3    H264001   2.595   5.658   1.154  0.3844 -0.0512 -0.3909
14196TIP3   OH264002   0.026   4.212   2.887 -0.1278 -0.3644  0.2099
14196TIP3    H164003   0.023   4.123   2.852  1.0097 -0.1586 -0.4293
14196TIP3    H264004  -0.027   4.263   2.826  0.6749 -0.2775 -0.4275
14197TIP3   OH264005   1.169   2.340   3.317  0.4726 -0.9031 -0.1425
14197TIP3    H164006   1.189   2.247   3.325 -1.5393 -1.4804 -1.3472
14197TIP3    H264007   1.092   2.343   3.260 -1.6651  1.2310  2.7020
14198TIP3   OH264008   4.167   0.098   4.167  0.2768  0.3297  0.4937
14198TIP3    H164009   4.084   0.050   4.169 -0.6935  1.9877  0.7036
14198TIP3    H264010   4.208   0.073   4.084  0.7975 -2.4948  1.5394
14199TIP3   OH264011   6.548   0.610  14.720  0.2270 -0.4739  0.0991
14199TIP3    H164012   6.595   0.685  14.684  0.0477 -0.9653 -1.1895
14199TIP3    H264013   6.616   0.554  14.756  0.5949 -0.9018 -1.2366
14200TIP3   OH264014   0.466   0.497   2.543 -0.1634 -0.0377 -0.0597
14200TIP3    H164015   0.560   0.486   2.560 -0.1009  0.8760  0.2270
14200TIP3    H264016   0.447   0.585   2.575 -0.7240  0.5086 -1.8711
14201TIP3   OH264017   5.805   2.439   3.416  0.4001  0.8997  0.2284
14201TIP3    H164018   5.748   2.468   3.488  1.7188 -0.2979  1.8156
14201TIP3    H264019   5.794   2.344   3.415  0.8928  0.8518 -0.7565
14202TIP3   OH264020   5.532   0.541   4.260  0.1312 -0.2388  0.2874
14202TIP3    H164021   5.590   0.591   4.202 -0.5756 -0.0822 -0.2860
14202TIP3    H264022   5.576   0.456   4.269 -0.4517 -0.7890 -1.6630
14203TIP3   OH264023   1.835   4.338   4.934 -0.2982  0.4986  0.0413
14203TIP3    H164024   1.802   4.428   4.943 -0.4415  0.4848 -0.3304
14203TIP3    H264025   1.858   4.312   5.023 -1.3661  0.4895  0.3269
14204TIP3   OH264026   5.155   0.027   2.495 -0.2907  0.0139  0.9730
14204TIP3    H164027   5.196  -0.045   2.446  0.2235  0.1632  1.1818
14204TIP3    H264028   5.112   0.079   2.427  0.9025  0.5380  0.6019
14205TIP3   OH264029   1.856   5.348   2.167  0.6967 -0.3443  0.2180
14205TIP3    H164030   1.874   5.438   2.192  0.7843  0.0958 -1.3963
14205TIP3    H264031   1.940   5.312   2.140  0.8134 -1.1782  1.5948
14206TIP3   OH264032   7.128   2.231  14.053  0.1994 -0.0322 -0.0228
14206TIP3    H164033   7.132   2.300  14.119  0.0638 -0.3164  0.2795
14206TIP3    H264034   7.067   2.167  14.088  0.9282 -0.6953  0.0648
14207TIP3   OH264035   3.211   6.418   4.542 -0.0435  0.0379 -0.4372
14207TIP3    H164036   3.221   6.329   4.575  1.5248  0.5478  0.5353
14207TIP3    H264037   3.267   6.422   4.464  0.3934  0.3623 -0.1067
14208TIP3   OH264038   4.255   2.704   1.344  0.0539  0.2464  0.4014
14208TIP3    H164039   4.186   2.678   1.282 -0.8177  0.9176  1.0606
14208TIP3    H264040   4.313   2.628   1.349 -0.9812 -0.5717  0.2961
14209TIP3   OH264041   0.101   2.039   5.257 -0.1525  0.4380  0.0294
14209TIP3    H164042   0.013   2.002   5.261  0.1920 -0.2999  1.2856
14209TIP3    H264043   0.153   1.983   5.315  1.2721  0.5294 -1.1418
14210TIP3   OH264044   4.985   2.808   1.897 -0.0078  0.4777  0.3200
14210TIP3    H164045   5.045   2.871   1.858 -0.8333  1.5508  0.7506
14210TIP3    H264046   4.945   2.854   1.970 -0.3423 -0.6765  0.8864
14211TIP3   OH264047   1.224   4.271   4.596 -0.0532 -0.2795 -0.0065
14211TIP3    H164048   1.241   4.307   4.683 -1.8052 -1.5089  0.8634
14211TIP3    H264049   1.261   4.183   4.598 -1.4329 -0.8817  0.0392
14212TIP3   OH264050   0.125   1.614   0.468 -0.5911  0.7702  0.0547
14212TIP3    H164051   0.125   1.612   0.564  2.4045  0.4867  0.1105
14212TIP3    H264052   0.136   1.522   0.442  1.7706  1.1741 -0.4675
14213TIP3   OH264053   7.147   6.242   5.431 -0.3208  0.2640  0.0223
14213TIP3    H164054   7.225   6.204   5.473  0.2369  1.1724 -0.1673
14213TIP3    H264055   7.158   6.337   5.442 -2.0288  0.3562  1.1074
14214TIP3   OH264056   1.919   3.090   0.438 -0.1281 -0.5184 -0.3778
14214TIP3    H164057   1.871   3.050   0.511 -0.5461 -0.6186 -0.7123
14214TIP3    H264058   2.007   3.054   0.446 -0.2673 -0.8133 -0.1414
14215TIP3   OH264059   6.191   6.203   4.446  0.5322  0.2030  0.2714
14215TIP3    H164060   6.175   6.134   4.510  0.0483  0.1602  0.1055
14215TIP3    H264061   6.277   6.183   4.410  0.4197 -0.2802  0.2685
14216TIP3   OH264062   0.213   4.381   1.804 -0.5832  0.2353  0.6104
14216TIP3    H164063   0.201   4.292   1.771 -1.4413  0.4952  0.1975
14216TIP3    H264064   0.211   4.436   1.726  0.0107  0.6082  0.8571
14217TIP3   OH264065   5.212   2.302   2.311 -0.1373 -0.5685 -0.1349
14217TIP3    H164066   5.246   2.234   2.370 -4.0658  0.0280  3.0578
14217TIP3    H264067   5.249   2.384   2.345  1.1254 -0.6530 -1.2829
14218TIP3   OH264068   5.993   0.629   1.074 -0.5258 -0.3579 -0.8458
14218TIP3    H164069   6.039   0.549   1.099 -0.6748 -0.2506 -0.2160
14218TIP3    H264070   6.056   0.677   1.021  1.2896  1.2333  2.5609
14219TIP3   OH264071   3.784   0.526   1.605  0.3275 -0.0427  0.3194
14219TIP3    H164072   3.706   0.567   1.569 -0.1624 -1.7736 -0.6557
14219TIP3    H264073   3.791   0.562   1.694 -1.4253  0.3313  0.3319
14220TIP3   OH264074   3.851   4.992   1.703  0.2175 -0.0708 -0.0478
14220TIP3    H164075   3.815   5.062   1.758 -1.1917 -1.3295  0.6639
14220TIP3    H264076   3.815   4.911   1.740 -0.1517 -1.0018 -2.3586
14221TIP3   OH264077   3.337   0.747   4.320  0.3130 -0.1013  0.2711
14221TIP3    H164078   3.396   0.787   4.383  3.5350 -0.8916 -2.0728
14221TIP3    H264079   3.271   0.814   4.302  0.0017  0.5145  3.5707
14222TIP3   OH264080   1.322   1.282   1.042  0.2792 -0.1798  0.3650
14222TIP3    H164081   1.390   1.225   1.007 -0.4973 -1.8854  1.5557
14222TIP3    H264082   1.266   1.224   1.094 -2.8160  0.9190 -1.5884
14223TIP3   OH264083   6.114   7.014   2.823 -0.0235 -0.5700 -0.2648
14223TIP3    H164084   6.061   7.022   2.903  1.9239  3.1049  0.7528
14223TIP3    H264085   6.098   6.924   2.794 -2.1536 -1.4775  3.2880
14224TIP3   OH264086   3.323   7.050   4.260 -0.4119  0.3337  0.2989
14224TIP3    H164087   3.388   6.986   4.286 -1.6124 -0.4287  1.4954
14224TIP3    H264088   3.291   7.019   4.175  0.2569  0.3299  0.0457
14225TIP3   OH264089   4.843   7.060   3.788 -0.6893  0.1942  0.3016
14225TIP3    H164090   4.819   7.039   3.698 -0.6835  0.9027  0.1322
14225TIP3    H264091   4.934   7.031   3.796 -0.3544  1.0654 -0.2367
14226TIP3   OH264092   4.225   2.927   3.588 -0.2904  0.3462 -0.2562
14226TIP3    H164093   4.223   2.831   3.592 -1.3103  0.3317 -1.0550
14226TIP3    H264094   4.204   2.955   3.677 -0.3123 -0.1717 -0.0983
14227TIP3   OH264095   2.156   4.416   2.754 -0.2709 -0.4912  0.2380
14227TIP3    H164096   2.176   4.355   2.684 -0.7059  0.6142 -0.8778
14227TIP3    H264097   2.239   4.428   2.800  0.6335  0.6849 -1.6283
14228TIP3   OH264098   3.664   3.318   3.166  0.1764  0.2814  0.1273
14228TIP3    H164099   3.601   3.367   3.113 -0.3332  0.2556  0.7024
14228TIP3    H264100   3.726   3.384   3.197  0.6081  0.2610 -0.6825
14229TIP3   OH264101   0.181   0.352   2.559  0.2470 -0.2077 -1.0717
14229TIP3    H164102   0.189   0.294   2.484  1.9142 -0.8964 -0.3933
14229TIP3    H264103   0.265   0.398   2.562  0.6693 -1.0541  1.0499
14230TIP3   OH264104   2.990   3.307   3.305 -0.2483 -0.0901  0.4448
14230TIP3    H164105   2.929   3.260   3.249 -0.2332 -0.8158  1.0291
14230TIP3    H264106   2.982   3.398   3.279 -0.1796 -0.4342 -0.7951
14231TIP3   OH264107   0.255   1.667  13.889 -0.4786  0.3643  0.2830
14231TIP3    H164108   0.241   1.647  13.796  0.4603 -1.3283  0.4757
14231TIP3    H264109   0.206   1.599  13.935 -0.7978  1.0973  1.0291
14232TIP3   OH264110   3.661   2.852   4.732 -0.1284 -0.3917  0.4311
14232TIP3    H164111   3.617   2.897   4.660 -0.3745 -0.4744  0.5271
14232TIP3    H264112   3.750   2.838   4.702 -0.3371 -0.7821 -0.0142
14233TIP3   OH264113   2.747   2.095   2.382  0.1796  0.2504  0.0610
14233TIP3    H164114   2.714   2.131   2.300 -1.4505 -0.0347  0.5569
14233TIP3    H264115   2.738   2.167   2.445 -1.4398 -0.4316  0.6538
14234TIP3   OH264116   1.860   1.951   4.139 -0.2616 -0.1044 -0.5087
14234TIP3    H164117   1.809   1.927   4.216 -0.7499  2.1402 -0.0959
14234TIP3    H264118   1.796   1.984   4.076  0.1119 -2.0897 -1.9640
14235TIP3   OH264119   6.675   0.968   4.822 -0.2270 -0.4976 -0.3648
14235TIP3    H164120   6.763   0.931   4.827 -0.7276 -1.6827 -0.3434
14235TIP3    H264121   6.621   0.909   4.873 -1.2172 -0.2947 -1.1751
14236TIP3   OH264122   5.651   1.926  13.969  0.3300 -0.4226  0.0022
14236TIP3    H164123   5.710   1.942  14.042  0.5279 -1.6953  0.1333
14236TIP3    H264124   5.592   1.857  13.999  1.2801 -1.9257 -1.4951
14237TIP3   OH264125   2.018   2.422   3.956 -0.9587  0.3266  0.2119
14237TIP3    H164126   2.057   2.368   3.887  1.7384  1.3548  0.8924
14237TIP3    H264127   1.961   2.362   4.004 -0.2654 -1.2097 -0.8570
14238TIP3   OH264128   0.795   5.364   1.810  0.4996  0.0870  0.1638
14238TIP3    H164129   0.792   5.295   1.744 -1.5269  0.9931 -0.7287
14238TIP3    H264130   0.749   5.328   1.885  1.8898 -0.5488  0.7366
14239TIP3   OH264131   4.218   6.581   4.728  0.7325  0.0329 -0.3878
14239TIP3    H164132   4.279   6.608   4.659  0.9315  0.1895 -0.1548
14239TIP3    H264133   4.228   6.648   4.795 -0.9641  1.0181 -1.0873
14240TIP3   OH264134   0.465   2.148   2.815  0.3234 -0.2521  0.2785
14240TIP3    H164135   0.416   2.181   2.891 -1.2263 -1.8735  0.0220
14240TIP3    H264136   0.546   2.198   2.816 -1.3254  2.5711  0.7171
14241TIP3   OH264137   4.344   0.803  11.666 -0.4025  0.0483  0.1316
14241TIP3    H164138   4.426   0.827  11.623 -0.9741  0.0685 -0.9592
14241TIP3    H264139   4.340   0.859  11.743  1.2466 -0.8762  0.9243
14242TIP3   OH264140   2.046   2.005   1.776  0.1783 -0.2945  0.3015
14242TIP3    H164141   2.024   2.062   1.702 -0.7665 -1.0546 -0.0112
14242TIP3    H264142   1.972   1.945   1.782  0.7408 -0.8901  1.2199
14243TIP3   OH264143   6.866   1.669   4.655 -0.0382  0.1425 -0.2629
14243TIP3    H164144   6.912   1.644   4.575 -0.1976  0.5856 -0.4955
14243TIP3    H264145   6.859   1.588   4.705 -1.2547 -0.4327 -1.3522
14244TIP3   OH264146   5.442   3.217   2.509  0.6551  0.2932 -0.0205
14244TIP3    H164147   5.379   3.282   2.477 -0.4663 -0.6622  0.2202
14244TIP3    H264148   5.417   3.136   2.465  1.1036 -0.3185  0.8456
14245TIP3   OH264149   2.653   2.142   1.846  0.4798 -0.1748  0.3548
14245TIP3    H164150   2.728   2.118   1.791  0.8206 -0.8738  1.1062
14245TIP3    H264151   2.576   2.116   1.794  0.8358 -2.3032  0.8537
14246TIP3   OH264152   2.106   1.776   2.212 -0.0715  0.3838  0.1373
14246TIP3    H164153   2.144   1.712   2.272 -0.4505  0.4324  0.4334
14246TIP3    H264154   2.066   1.842   2.268  1.0770  1.3503 -0.1697
14247TIP3   OH264155   5.835   1.397   3.193 -0.0322 -0.3034 -0.0930
14247TIP3    H164156   5.773   1.414   3.264 -0.5587 -1.4200 -0.2703
14247TIP3    H264157   5.783   1.354   3.125  0.3576  1.2140 -1.3813
14248TIP3   OH264158   5.363   1.631  13.522  0.1024 -0.1534 -0.2375
14248TIP3    H164159   5.440   1.618  13.577  0.4622 -2.0682 -1.1644
14248TIP3    H264160   5.289   1.625  13.583  0.5844 -0.3632  0.3318
14249TIP3   OH264161   1.971   0.296   4.975 -0.0603  0.2301 -0.1722
14249TIP3    H164162   1.980   0.210   5.017  1.0469  0.1365 -0.5843
14249TIP3    H264163   1.886   0.292   4.931 -0.9943  0.1412  1.5907
14250TIP3   OH264164   1.314   5.168   2.938 -0.3669  0.3156  0.4735
14250TIP3    H164165   1.347   5.207   2.857  0.7054  1.2695  1.3511
14250TIP3    H264166   1.226   5.204   2.948 -0.7196 -0.2372 -0.5410
14251TIP3   OH264167   5.286   3.942   1.186  0.3181 -0.2513  0.1921
14251TIP3    H164168   5.203   3.941   1.138  1.0850 -2.2356 -1.1361
14251TIP3    H264169   5.260   3.936   1.278 -1.0700  1.0648 -0.0975
14252TIP3   OH264170   2.310   6.966   1.997  0.3370  0.3650  0.3879
14252TIP3    H164171   2.315   6.990   2.090  0.8841 -0.8935  0.6952
14252TIP3    H264172   2.218   6.948   1.982  0.5330 -1.4721  1.2360
14253TIP3   OH264173   5.693   6.532   3.036  0.5837 -0.1699  0.5712
14253TIP3    H164174   5.703   6.565   3.126  2.2658  0.2844  0.2481
14253TIP3    H264175   5.712   6.439   3.043 -3.1571 -0.9531  1.3130
14254TIP3   OH264176   6.130   2.046   4.006  0.0039 -0.0690  0.4299
14254TIP3    H164177   6.194   2.039   3.935  1.5959  0.4248  1.7795
14254TIP3    H264178   6.077   2.123   3.984 -1.3065 -1.5281 -1.6118
14255TIP3   OH264179   7.111   2.307   2.322  0.2698 -0.5053 -0.0503
14255TIP3    H164180   7.131   2.386   2.372 -0.4886  1.4090 -2.6835
14255TIP3    H264181   7.018   2.315   2.301  0.4568 -1.5548 -1.3042
14256TIP3   OH264182   3.701   6.982   5.188  0.3475 -0.4677  0.6861
14256TIP3    H164183   3.629   6.991   5.250 -0.0131  0.0258  0.1999
14256TIP3    H264184   3.767   7.043   5.220  0.1694 -0.2269  0.5980
14257TIP3   OH264185   2.527   3.175   5.124  0.0706  0.1334 -0.1996
14257TIP3    H164186   2.586   3.099   5.117  0.6854  0.2484  2.8816
14257TIP3    H264187   2.586   3.250   5.127 -0.2126  0.3019  2.1292
14258TIP3   OH264188   0.281   5.801   1.464 -0.3695  0.4951  0.0261
14258TIP3    H164189   0.287   5.744   1.388  0.5076  0.8893 -0.2115
14258TIP3    H264190   0.188   5.820   1.473 -0.7415 -1.5076  0.5266
14259TIP3   OH264191   1.307   3.409   0.920 -0.2998  0.7893  0.4884
14259TIP3    H164192   1.235   3.403   0.983 -1.2062  0.4605 -0.5553
14259TIP3    H264193   1.288   3.341   0.856 -0.7813  2.7596 -1.5270
14260TIP3   OH264194   6.274   4.450  14.107  0.1792 -0.3425 -0.2528
14260TIP3    H164195   6.284   4.455  14.012  2.4648  1.3058  0.0357
14260TIP3    H264196   6.186   4.484  14.123  0.5692  1.4043 -1.6273
14261TIP3   OH264197   2.224   1.723   3.925 -0.6900  0.6062 -0.2717
14261TIP3    H164198   2.259   1.772   3.850 -1.4791  0.6250 -0.6316
14261TIP3    H264199   2.260   1.635   3.916 -0.6446  0.6568 -0.5790
14262TIP3   OH264200   3.667   1.365   2.319  0.1838 -0.0045 -0.0906
14262TIP3    H164201   3.712   1.398   2.242  0.6855  0.8095  0.5449
14262TIP3    H264202   3.575   1.382   2.302  0.3205  0.4746 -0.3672
14263TIP3   OH264203   0.441   5.485   0.844 -0.3597 -0.3559  0.1224
14263TIP3    H164204   0.502   5.526   0.783  1.3294 -2.0037  0.6454
14263TIP3    H264205   0.495   5.424   0.894 -2.1908 -0.8351  1.5659
14264TIP3   OH264206   2.986   2.556  15.128 -0.3087 -0.3350 -0.6554
14264TIP3    H164207   3.064   2.502  15.138 -1.2925 -1.5541  0.5801
14264TIP3    H264208   3.019   2.640  15.097  1.3747 -1.2037 -1.2846
14265TIP3   OH264209   5.390   3.452   2.059  0.3425  0.0190 -0.1678
14265TIP3    H164210   5.465   3.455   2.000  0.9345  0.6719  0.6109
14265TIP3    H264211   5.314   3.447   2.000  0.9079  0.8883 -1.0024
14266TIP3   OH264212   0.661   0.197  14.850  0.2822 -0.0543  0.3561
14266TIP3    H164213   0.645   0.248  14.770  0.1893 -0.9745 -0.2189
14266TIP3    H264214   0.695   0.113  14.819  0.4714 -0.3333  1.3004
14267TIP3   OH264215   1.135   0.305   5.156  0.0704  0.1453 -0.2770
14267TIP3    H164216   1.136   0.246   5.080  1.3909 -0.6221  0.3242
14267TIP3    H264217   1.227   0.321   5.175 -0.2306 -0.3198  1.6611
14268TIP3   OH264218   4.068   1.481   2.233 -0.4370 -0.4232 -0.4140
14268TIP3    H164219   4.143   1.525   2.274  0.0511  0.0134 -1.7706
14268TIP3    H264220   4.102   1.397   2.204 -1.2854 -1.6134  1.8524
14269TIP3   OH264221   7.085   5.126   5.462 -0.0420  0.3742 -0.2011
14269TIP3    H164222   7.138   5.169   5.529 -0.2292  2.0945 -1.1262
14269TIP3    H264223   7.149   5.086   5.402  0.2045  1.6384 -0.7919
14270TIP3   OH264224   2.061   4.236   3.833  0.2899 -0.5919 -0.1029
14270TIP3    H164225   1.987   4.296   3.834  0.0654 -0.8865  1.9289
14270TIP3    H264226   2.138   4.290   3.853  0.3434 -0.6531 -0.1413
14271TIP3   OH264227   0.193   2.885   4.733 -0.0515  0.2874 -0.6450
14271TIP3    H164228   0.122   2.901   4.796  1.8664  1.7407  1.2282
14271TIP3    H264229   0.189   2.959   4.673  0.4112  0.8554  0.0065
14272TIP3   OH264230   1.486   2.189   0.633 -0.1351 -0.2192 -0.2130
14272TIP3    H164231   1.435   2.163   0.557 -0.8205 -0.4344  0.3115
14272TIP3    H264232   1.442   2.147   0.707 -0.2676  1.0615  0.4558
14273TIP3   OH264233   6.250   5.772   1.779 -0.1657  0.3738  0.1162
14273TIP3    H164234   6.305   5.701   1.744 -1.6285 -1.3116  1.1510
14273TIP3    H264235   6.179   5.781   1.715 -1.2572 -0.7221  1.1516
14274TIP3   OH264236   3.786   4.793  13.894 -0.0247  0.4367 -0.4568
14274TIP3    H164237   3.828   4.844  13.964  0.1833 -1.7868  1.0849
14274TIP3    H264238   3.693   4.796  13.915  0.1822 -1.5684  0.8727
14275TIP3   OH264239   2.143   1.121   1.879  0.0809 -0.2157  0.0193
14275TIP3    H164240   2.070   1.147   1.823 -0.6655  1.1476  1.5619
14275TIP3    H264241   2.221   1.138   1.826 -0.7518 -4.3922 -2.7094
14276TIP3   OH264242   0.588   3.752  15.321  0.5558 -0.1490  0.3106
14276TIP3    H164243   0.658   3.735  15.385  0.8064  1.4234  0.4680
14276TIP3    H264244   0.512   3.706  15.357  1.3691 -1.4630  0.3903
14277TIP3   OH264245   1.178   5.171   4.299 -0.0446 -0.3777 -0.2311
14277TIP3    H164246   1.177   5.126   4.383 -3.0073  1.0443  0.5483
14277TIP3    H264247   1.120   5.118   4.243 -1.8612  1.2618  0.0677
14278TIP3   OH264248   2.260   1.254   0.800 -0.6916 -0.5369  0.4728
14278TIP3    H164249   2.277   1.202   0.721 -1.3225  1.3921 -0.9523
14278TIP3    H264250   2.170   1.285   0.790 -0.7805 -0.2652  1.9698
14279TIP3   OH264251   1.996   3.074   4.638  0.0674  0.0632  0.4718
14279TIP3    H164252   2.014   3.059   4.545  0.2246  1.3636  0.2918
14279TIP3    H264253   2.048   3.151   4.661  0.7381 -0.7742  1.8746
14280TIP3   OH264254   0.941   4.241   3.940  0.1273 -0.1883  0.0421
14280TIP3    H164255   0.951   4.164   3.996 -2.6898 -2.1767 -2.0883
14280TIP3    H264256   0.895   4.305   3.995 -0.0210 -1.0435  0.9143
14281TIP3   OH264257   0.464   1.943   1.188  0.2724  0.7396 -0.0019
14281TIP3    H164258   0.496   1.973   1.103 -0.4736  1.1213 -0.1519
14281TIP3    H264259   0.502   2.004   1.251  5.6881 -2.9183  0.6411
14282TIP3   OH264260   0.929   1.201   5.049  0.5430 -0.3609 -0.4498
14282TIP3    H164261   0.906   1.285   5.010  0.1317 -0.8490 -1.2862
14282TIP3    H264262   0.992   1.222   5.117 -4.2060  1.3749  3.7323
14283TIP3   OH264263   3.082   0.439   3.717  0.6133 -0.7307  0.5748
14283TIP3    H164264   3.144   0.490   3.770  0.2690 -1.0138  1.2584
14283TIP3    H264265   3.137   0.386   3.661  0.9847  0.7838 -0.5319
14284TIP3   OH264266   2.642   0.378   2.537  0.3890  0.0427 -0.1183
14284TIP3    H164267   2.708   0.438   2.502  0.6804 -0.2555 -0.0852
14284TIP3    H264268   2.579   0.369   2.466  0.6481 -0.0610 -0.3393
14285TIP3   OH264269   6.124   2.524  14.855  0.0899 -0.4987  0.4532
14285TIP3    H164270   6.166   2.446  14.892  2.1883  0.3558 -0.0681
14285TIP3    H264271   6.141   2.518  14.761 -0.0951  0.3754  0.3613
14286TIP3   OH264272   4.406   1.106   3.464 -0.0924 -0.5531 -0.0275
14286TIP3    H164273   4.339   1.045   3.493 -1.6539  1.2522  0.2994
14286TIP3    H264274   4.383   1.126   3.374  1.7023 -2.1298 -0.8536
14287TIP3   OH264275   2.539   2.676   3.784  0.2955  0.3749 -0.6910
14287TIP3    H164276   2.566   2.696   3.873 -2.9390  1.5409  0.1011
14287TIP3    H264277   2.451   2.640   3.793  0.5330 -0.9590 -3.3012
14288TIP3   OH264278   1.511   3.804   3.141 -0.0528  0.1660 -0.2406
14288TIP3    H164279   1.596   3.762   3.130  0.5633  1.5401 -0.8832
14288TIP3    H264280   1.523   3.892   3.104 -2.2433 -0.1956 -1.8391
14289TIP3   OH264281   5.543   3.675  14.902  0.1045 -0.3342  0.0823
14289TIP3    H164282   5.512   3.704  14.816 -2.1913  0.1728  1.0361
14289TIP3    H264283   5.492   3.595  14.919  1.3919 -1.0857  0.4851
14290TIP3   OH264284   1.475   1.007   4.314  0.3317  0.6668 -0.2971
14290TIP3    H164285   1.458   0.938   4.377 -0.3846  1.8235  0.8149
14290TIP3    H264286   1.532   1.069   4.360  0.3937  1.1581 -1.0180
14291TIP3   OH264287   4.922   2.625  14.968 -0.1677 -0.0952 -0.0835
14291TIP3    H164288   4.879   2.539  14.971  1.2392 -0.8853 -2.0936
14291TIP3    H264289   4.921   2.655  15.059  2.0530 -3.6423  1.2122
14292TIP3   OH264290   1.188   0.918  13.262  0.3969  0.2587 -0.0259
14292TIP3    H164291   1.175   0.827  13.234 -0.4281  1.2274 -2.8675
14292TIP3    H264292   1.279   0.922  13.289  0.5946 -1.2731 -0.4030
14293TIP3   OH264293   2.128   3.987   1.389 -0.3355 -0.0387  0.0876
14293TIP3    H164294   2.114   4.073   1.427 -0.4558 -0.4980  1.1076
14293TIP3    H264295   2.185   4.003   1.314  0.0450  0.8655  0.5603
14294TIP3   OH264296   1.422   2.034   0.147  0.1826  0.1591 -0.2294
14294TIP3    H164297   1.371   1.965   0.188 -0.9674 -0.6506 -2.9100
14294TIP3    H264298   1.512   2.020   0.178 -0.4124 -1.1921  0.9350
14295TIP3   OH264299   3.448   3.293  14.507  0.7192 -0.1188 -0.6054
14295TIP3    H164300   3.392   3.370  14.511 -1.0069 -1.3513 -0.1247
14295TIP3    H264301   3.386   3.219  14.506  2.3479 -1.5938  1.8065
14296TIP3   OH264302   5.111   0.510   1.006 -0.8148 -0.7420  0.8974
14296TIP3    H164303   5.024   0.483   0.978 -1.2450  0.5570  0.9369
14296TIP3    H264304   5.099   0.540   1.096 -0.4001 -0.1917  0.7721
14297TIP3   OH264305   4.257   0.856   2.641 -0.0507  0.0794 -0.0361
14297TIP3    H164306   4.202   0.796   2.691  0.0632 -0.7162 -0.8551
14297TIP3    H264307   4.202   0.932   2.625 -0.0661  0.3579  1.3445
14298TIP3   OH264308   0.977   5.389   5.119 -0.3488 -0.1660 -0.2007
14298TIP3    H164309   1.016   5.429   5.041 -1.1642  0.7359 -0.1485
14298TIP3    H264310   1.031   5.311   5.135 -0.2884 -0.4681 -1.7726
14299TIP3   OH264311   0.764   3.278  15.486  0.4844 -0.0257  0.0359
14299TIP3    H164312   0.746   3.213  15.418  2.0597  0.2365 -0.6549
14299TIP3    H264313   0.839   3.328  15.453 -0.4110  1.8531  0.7600
14300TIP3   OH264314   1.777   0.775  13.358  0.2961  0.3258 -0.1977
14300TIP3    H164315   1.820   0.851  13.397 -0.9902  0.0680  1.7691
14300TIP3    H264316   1.789   0.705  13.423 -1.1657 -0.3310 -0.6255
14301TIP3   OH264317   7.064   5.261   3.629  0.7756  0.2857 -0.9370
14301TIP3    H164318   7.146   5.304   3.605  0.5715  1.5528  0.5949
14301TIP3    H264319   6.996   5.325   3.611 -0.2175 -1.6850 -4.7430
14302TIP3   OH264320   2.940   3.208   4.947  0.2554 -0.2890 -0.4683
14302TIP3    H164321   2.941   3.244   5.035 -1.1806  0.0666 -0.5777
14302TIP3    H264322   2.967   3.280   4.891  0.5337 -0.3261 -0.3824
14303TIP3   OH264323   5.188   0.430   3.566 -0.6695 -0.5977  0.7176
14303TIP3    H164324   5.283   0.424   3.554 -0.8528 -0.1113 -1.3133
14303TIP3    H264325   5.152   0.397   3.483 -2.1971  1.5092  0.4984
14304TIP3   OH264326   6.850   4.923   2.349 -0.1257 -0.1117 -0.0508
14304TIP3    H164327   6.863   5.014   2.323 -1.2602  0.6217  1.8163
14304TIP3    H264328   6.759   4.920   2.379  0.1262 -1.6674  0.6033
14305TIP3   OH264329   6.049   1.309   3.018  0.2527  0.1948 -0.2522
14305TIP3    H164330   5.985   1.355   3.071  0.2557 -0.3193  0.2086
14305TIP3    H264331   6.007   1.226   2.997  0.8686 -0.2670  0.2962
14306TIP3   OH264332   0.462   1.205   4.811  0.2521  0.2156 -0.5898
14306TIP3    H164333   0.411   1.124   4.819 -1.8855  1.5078 -0.8929
14306TIP3    H264334   0.454   1.247   4.897  1.6657 -0.0247 -0.3132
14307TIP3   OH264335   5.266   5.273   2.658 -0.8068 -0.5654  0.1667
14307TIP3    H164336   5.179   5.248   2.627 -0.8978  0.9958 -0.9172
14307TIP3    H264337   5.253   5.358   2.700  0.2066 -0.3085 -0.0305
14308TIP3   OH264338   5.138   4.179   0.258  0.4630 -0.2286 -0.6092
14308TIP3    H164339   5.094   4.186   0.343 -0.1154 -0.4277 -0.8891
14308TIP3    H264340   5.175   4.090   0.257 -0.7682 -0.7444 -1.1539
14309TIP3   OH264341   1.612   2.145   1.467  0.0076 -0.4694 -0.5052
14309TIP3    H164342   1.682   2.186   1.417  1.2120 -1.8500  0.0123
14309TIP3    H264343   1.649   2.132   1.554 -1.0679 -0.7639 -0.0834
14310TIP3   OH264344   5.729   1.014   0.145 -0.4929 -0.3083 -0.1116
14310TIP3    H164345   5.651   1.030   0.093 -0.6155 -1.0831 -0.1797
14310TIP3    H264346   5.696   0.992   0.232 -0.3070  0.5422  0.1776
14311TIP3   OH264347   1.234   2.074   2.098 -0.0668  0.1041  0.2013
14311TIP3    H164348   1.233   1.981   2.122  3.2229 -0.4517 -1.5209
14311TIP3    H264349   1.259   2.119   2.179 -1.1101 -0.5635  0.8999
14312TIP3   OH264350   2.845   5.242   4.853 -0.2604 -0.1411 -0.5448
14312TIP3    H164351   2.929   5.203   4.829  0.3877  0.5319  0.6126
14312TIP3    H264352   2.841   5.234   4.948 -1.8437 -0.8255 -0.6572
14313TIP3   OH264353   1.217   4.257   2.118 -0.1698 -0.1129  0.3571
14313TIP3    H164354   1.251   4.288   2.034  1.0227  0.7737  1.1489
14313TIP3    H264355   1.294   4.221   2.163 -0.6451  0.1695  1.3991
14314TIP3   OH264356   2.553   1.913   5.413  0.5172 -0.1101  0.1184
14314TIP3    H164357   2.592   1.834   5.450  0.4533 -0.3184 -0.2588
14314TIP3    H264358   2.622   1.980   5.422  0.7635 -0.3392 -0.0392
14315TIP3   OH264359   6.584   2.585   1.968  0.3787 -0.4498 -0.0690
14315TIP3    H164360   6.530   2.506   1.976  0.9154 -0.9146 -0.9463
14315TIP3    H264361   6.672   2.557   1.991  0.2354  0.3534  1.5477
14316TIP3   OH264362   3.108   5.686   4.434 -0.5735 -0.3207  0.2546
14316TIP3    H164363   3.113   5.591   4.437 -0.4307 -0.3180  0.0547
14316TIP3    H264364   3.070   5.710   4.519  0.0793 -0.5070  0.5969
14317TIP3   OH264365   0.600   2.096   1.356 -0.2046  0.2341  0.1903
14317TIP3    H164366   0.689   2.096   1.390 -0.5635 -0.3266  1.1629
14317TIP3    H264367   0.548   2.137   1.425 -0.8702 -0.5008  0.1390
14318TIP3   OH264368   2.379   4.224   3.639 -0.2590  0.4304  0.6710
14318TIP3    H164369   2.400   4.146   3.589  2.2373  1.3575  0.2073
14318TIP3    H264370   2.392   4.198   3.730 -1.7432 -0.3458  0.6803
14319TIP3   OH264371   0.928   7.096   4.435 -0.4359  0.5059 -0.2737
14319TIP3    H164372   0.998   7.080   4.498  0.5614  2.4479 -0.8482
14319TIP3    H264373   0.868   7.155   4.480  0.4239  2.1230 -1.2002
14320TIP3   OH264374   4.310   5.870   1.798  0.8814 -0.1706  0.1755
14320TIP3    H164375   4.303   5.892   1.890  0.7307  0.1435  0.0900
14320TIP3    H264376   4.380   5.804   1.794 -0.7044 -1.9490  0.8156
14321TIP3   OH264377   0.440   3.339   0.363 -0.1181 -0.4499  0.0905
14321TIP3    H164378   0.390   3.416   0.335  0.7422  0.0302 -0.1549
14321TIP3    H264379   0.518   3.376   0.405  0.7860 -1.1897 -0.9132
14322TIP3   OH264380   1.407   6.865   5.234 -0.2027 -0.3393  0.5137
14322TIP3    H164381   1.395   6.931   5.302  0.6949 -0.7501  1.0966
14322TIP3    H264382   1.453   6.911   5.164  0.4078 -0.3263  0.9111
14323TIP3   OH264383   0.357   3.900   3.297  0.2081 -0.4332 -0.1900
14323TIP3    H164384   0.277   3.847   3.295  0.2534 -0.6610  2.1892
14323TIP3    H264385   0.330   3.983   3.335  0.9092 -0.1780 -0.2485
14324TIP3   OH264386   6.561   4.690  14.486 -0.1220  0.0056 -0.2691
14324TIP3    H164387   6.494   4.712  14.421 -0.7493 -0.8698  0.0596
14324TIP3    H264388   6.613   4.769  14.495 -1.2740  0.7939 -0.3506
14325TIP3   OH264389   0.957   2.588   2.499 -0.1406 -0.2827  0.1714
14325TIP3    H164390   0.942   2.658   2.563 -2.0448 -2.1844  1.8911
14325TIP3    H264391   1.006   2.522   2.548 -0.2451 -1.0822 -0.8032
14326TIP3   OH264392   0.748   6.481   0.901 -0.4016 -0.5482 -0.1581
14326TIP3    H164393   0.820   6.443   0.849  0.6273  0.8524  0.2326
14326TIP3    H264394   0.690   6.407   0.918  0.6802 -1.5964 -0.9341
14327TIP3   OH264395   6.795   0.844   0.909  0.7609  0.3164 -0.0727
14327TIP3    H164396   6.747   0.856   0.991  1.1334  0.9302  0.0611
14327TIP3    H264397   6.729   0.856   0.841  0.9393  2.4189  0.0726
14328TIP3   OH264398   2.012   2.917   1.784  0.6075 -0.3009  0.2772
14328TIP3    H164399   1.968   2.963   1.856  1.4425 -0.8434  1.1392
14328TIP3    H264400   1.963   2.944   1.706 -1.1210 -0.7344  1.1852
14329TIP3   OH264401   1.224   1.829   2.219  0.3081 -0.0960  0.3642
14329TIP3    H164402   1.128   1.826   2.210  0.2245 -1.3478  1.4940
14329TIP3    H264403   1.238   1.841   2.313  1.2700 -1.5404  0.4162
14330TIP3   OH264404   0.304   1.354   2.840 -0.4531 -0.1591  0.1461
14330TIP3    H164405   0.348   1.342   2.924  1.4318  0.3491 -0.7542
14330TIP3    H264406   0.342   1.434   2.803 -1.5788 -0.1296 -1.0030
14331TIP3   OH264407   1.788   4.031   2.426 -0.0506 -0.0745 -0.3361
14331TIP3    H164408   1.722   4.099   2.427  0.6722  0.6232  0.3477
14331TIP3    H264409   1.762   3.971   2.496 -0.3411 -0.1759 -0.5289
14332TIP3   OH264410   2.780   3.246   4.459  0.1260  0.1041 -0.3052
14332TIP3    H164411   2.829   3.182   4.511 -0.2321 -1.0136 -1.3231
14332TIP3    H264412   2.842   3.318   4.445  0.8404 -0.4368  0.0365
14333TIP3   OH264413   6.147   1.366   5.493  0.2453  0.4135  0.2677
14333TIP3    H164414   6.157   1.273   5.475 -0.8704  0.6371 -1.5704
14333TIP3    H264415   6.126   1.370   5.587 -0.5127 -1.2342  0.1873
14334TIP3   OH264416   0.338   1.948   3.827  0.4871 -0.0687  0.5818
14334TIP3    H164417   0.276   1.998   3.773  1.0619  0.7521  0.6737
14334TIP3    H264418   0.323   1.980   3.916  0.0698 -0.8782  0.8041
14335TIP3   OH264419   5.726   2.761   5.170  0.1035  0.6444  0.5094
14335TIP3    H164420   5.771   2.697   5.224 -2.5163 -0.3810  1.5379
14335TIP3    H264421   5.732   2.843   5.219 -1.6946 -0.1397  2.0829
14336TIP3   OH264422   6.219   3.571   1.417 -0.0139 -0.2641  0.4351
14336TIP3    H164423   6.277   3.644   1.394 -1.1913  0.5610  0.0372
14336TIP3    H264424   6.273   3.493   1.407  2.0809  0.7060  3.4272
14337TIP3   OH264425   2.322   2.952   1.735 -0.0222  0.1949 -0.2799
14337TIP3    H164426   2.409   2.914   1.722  0.5959  1.6259 -0.4851
14337TIP3    H264427   2.290   2.912   1.815  1.4333  0.7236  0.5889
14338TIP3   OH264428   5.969   2.448   0.618  0.2224  0.6882 -0.2709
14338TIP3    H164429   6.033   2.483   0.556  0.5912 -0.3033 -0.4505
14338TIP3    H264430   5.956   2.357   0.591  0.6464  0.1424  1.3240
14339TIP3   OH264431   0.869   4.131  12.863 -0.3520 -0.2256 -0.3971
14339TIP3    H164432   0.791   4.184  12.877 -0.5729 -0.6674  0.0810
14339TIP3    H264433   0.928   4.187  12.812 -0.7358  0.3323 -0.2329
14340TIP3   OH264434   3.229   2.230  14.478 -0.0609  0.9123 -0.3209
14340TIP3    H164435   3.298   2.296  14.489  1.8782 -1.0548 -0.2878
14340TIP3    H264436   3.276   2.146  14.479 -2.6197 -0.5733  1.3152
14341TIP3   OH264437   0.493   5.566   2.943  0.5063  0.2928  0.5582
14341TIP3    H164438   0.568   5.553   2.885 -0.8930 -0.8382 -1.0526
14341TIP3    H264439   0.473   5.660   2.935  0.2190  0.1120 -0.9312
14342TIP3   OH264440   6.300   2.512   3.194  0.0674 -0.0289 -0.1875
14342TIP3    H164441   6.309   2.601   3.161 -0.4978  0.4536  0.9469
14342TIP3    H264442   6.207   2.502   3.212  0.4048 -0.1866  1.5192
14343TIP3   OH264443   0.720   1.611   3.900 -0.3773 -0.2023  0.1686
14343TIP3    H164444   0.758   1.679   3.956 -0.3156 -1.4784  1.6978
14343TIP3    H264445   0.626   1.631   3.899 -0.2310  0.4902 -0.2023
14344TIP3   OH264446   0.394   5.484   3.529  0.3478  0.1552 -0.3148
14344TIP3    H164447   0.359   5.498   3.617  0.6050  1.6520 -0.4421
14344TIP3    H264448   0.484   5.455   3.543  0.7479  1.4917 -0.1103
14345TIP3   OH264449   1.330   1.316   3.725  0.0529 -0.0426  0.6888
14345TIP3    H164450   1.329   1.345   3.634  0.0316 -1.2571  0.2946
14345TIP3    H264451   1.418   1.336   3.756  0.5758 -1.0993 -0.0869
14346TIP3   OH264452   3.204   4.629   2.071  0.1467  0.2001 -0.5701
14346TIP3    H164453   3.129   4.647   2.014  0.1331  1.8179 -0.0685
14346TIP3    H264454   3.175   4.559   2.128 -1.2092  1.2139  0.0026
14347TIP3   OH264455   4.005   6.809   2.998  0.0398 -0.1730  0.6388
14347TIP3    H164456   4.085   6.833   2.951 -0.0839  2.2372  1.5482
14347TIP3    H264457   4.023   6.723   3.036  2.4184  0.6009  1.3142
14348TIP3   OH264458   4.124   4.806   2.774 -0.2393 -0.2628  0.4602
14348TIP3    H164459   4.195   4.741   2.776 -0.3496 -0.3676  1.0362
14348TIP3    H264460   4.153   4.870   2.710  0.7118  0.0647  1.1939
14349TIP3   OH264461   0.380   3.585  14.033 -0.1482  0.2883  0.0716
14349TIP3    H164462   0.366   3.577  14.128  0.5762  0.8060  0.2202
14349TIP3    H264463   0.292   3.602  13.998 -0.1523  2.0153  0.8592
14350TIP3   OH264464   0.648   3.251   2.316 -0.1475 -0.2624  0.6704
14350TIP3    H164465   0.571   3.255   2.259 -0.6380  1.2663  1.4135
14350TIP3    H264466   0.720   3.282   2.261 -0.5717  0.9559  0.7821
14351TIP3   OH264467   5.763   1.887   1.202 -0.2098  0.0150 -0.0531
14351TIP3    H164468   5.748   1.899   1.296  0.2926 -0.2797  0.0660
14351TIP3    H264469   5.690   1.932   1.160  0.7070  2.0196  0.4354
14352TIP3   OH264470   0.075   6.039   4.514  0.2250  0.2189  0.2459
14352TIP3    H164471   0.030   5.955   4.521 -0.7437  0.8209  1.2021
14352TIP3    H264472   0.128   6.031   4.435 -0.9846 -0.7614 -0.4720
14353TIP3   OH264473   5.021   1.122   0.479  0.4244  0.0267 -0.3196
14353TIP3    H164474   4.957   1.193   0.471 -0.1782 -0.6164 -1.2104
14353TIP3    H264475   5.084   1.155   0.543 -0.6774  0.7499  0.4212
14354TIP3   OH264476   2.682   5.835  14.404 -0.2671 -0.7689 -0.0189
14354TIP3    H164477   2.660   5.762  14.463 -1.6956  0.1117  0.5710
14354TIP3    H264478   2.640   5.813  14.321 -0.8896 -0.5256  0.2260
14355TIP3   OH264479   2.349   5.765   4.440 -0.2047 -0.1097 -0.6904
14355TIP3    H164480   2.329   5.773   4.347 -1.1709 -0.5377 -0.5212
14355TIP3    H264481   2.375   5.674   4.452 -0.8650 -0.2598 -0.3914
14356TIP3   OH264482   4.286   2.020   0.581  0.5028 -0.6721 -0.2036
14356TIP3    H164483   4.278   1.985   0.670 -2.1117  1.0936  0.3231
14356TIP3    H264484   4.222   1.969   0.530 -2.0566  2.0109  0.1968
14357TIP3   OH264485   1.640   3.283   3.115 -0.0667 -0.0212 -0.3222
14357TIP3    H164486   1.611   3.229   3.042  1.9839 -2.1705  0.3796
14357TIP3    H264487   1.715   3.332   3.080  0.2454 -0.2493  0.0204
14358TIP3   OH264488   6.078   2.932   3.656 -0.2744 -0.3819  0.3499
14358TIP3    H164489   6.125   2.850   3.639  1.3864  0.1098  2.3051
14358TIP3    H264490   5.999   2.926   3.603 -0.7108 -3.7242  1.2566
14359TIP3   OH264491   3.390   6.909   3.969 -0.1232  0.4389  0.5332
14359TIP3    H164492   3.382   6.877   3.880 -1.1373 -1.0243  1.1401
14359TIP3    H264493   3.306   6.888   4.010  0.0036  1.8893  1.5884
14360TIP3   OH264494   6.994   6.969   3.032 -0.3738  0.2277  0.3769
14360TIP3    H164495   6.939   6.983   2.955 -2.3796  0.2225  1.7620
14360TIP3    H264496   7.003   7.056   3.071 -1.1220 -0.0975  1.2854
14361TIP3   OH264497   5.811   3.820   2.699  0.0782  0.1030  0.2771
14361TIP3    H164498   5.829   3.819   2.793 -3.1744 -0.3256  0.9416
14361TIP3    H264499   5.844   3.905   2.670  1.0258  0.2877  1.8005
14362TIP3   OH264500   0.372   3.609   2.545 -0.0335 -0.3074 -0.4654
14362TIP3    H164501   0.339   3.690   2.584 -0.7194 -0.2734 -1.0928
14362TIP3    H264502   0.294   3.567   2.508  0.5905 -0.3411 -1.7725
14363TIP3   OH264503   6.841   4.206   3.860  0.0018  0.0279  0.4246
14363TIP3    H164504   6.828   4.288   3.813  2.2421  1.3047  1.9096
14363TIP3    H264505   6.928   4.214   3.899 -0.6074 -2.1605  2.3966
14364TIP3   OH264506   1.667   4.984   4.426  0.6014 -0.7269 -0.3717
14364TIP3    H164507   1.645   5.036   4.348  2.4088  0.1334 -0.3386
14364TIP3    H264508   1.631   4.897   4.408  2.0469 -0.8691 -2.7027
14365TIP3   OH264509   4.944   6.971   2.383 -0.0302 -0.2194  0.4062
14365TIP3    H164510   5.016   6.940   2.437  0.3164 -0.1397 -0.0058
14365TIP3    H264511   4.980   7.047   2.336 -0.6655  0.4077  0.9159
14366TIP3   OH264512   6.807   4.761   5.995  0.5394  0.5423  0.0812
14366TIP3    H164513   6.811   4.849   5.957 -1.3836 -0.0279 -1.5385
14366TIP3    H264514   6.813   4.703   5.919 -1.2646 -0.6706  0.8509
14367TIP3   OH264515   0.893   1.785   2.509  0.2703  0.3402 -0.1465
14367TIP3    H164516   0.888   1.805   2.416 -0.2392 -1.7610 -0.5805
14367TIP3    H264517   0.943   1.704   2.515 -0.6533 -0.1596  1.3106
14368TIP3   OH264518   1.306   1.316   5.044  0.2856  0.0444  0.1407
14368TIP3    H164519   1.255   1.352   4.971 -0.2932 -0.4911  0.2771
14368TIP3    H264520   1.241   1.293   5.110  0.5218 -2.3761 -0.4181
14369TIP3   OH264521   3.595   2.405   3.647  0.3850 -0.0870  0.3975
14369TIP3    H164522   3.669   2.367   3.599 -0.0510 -1.1048  0.5086
14369TIP3    H264523   3.526   2.414   3.581  1.2355  2.7423 -0.1578
14370TIP3   OH264524   2.618   2.661  15.117 -1.0345 -0.1900  0.1433
14370TIP3    H164525   2.645   2.750  15.092 -0.8832 -1.2121 -3.7138
14370TIP3    H264526   2.525   2.670  15.138 -1.3039  0.7191 -1.3290
14371TIP3   OH264527   3.443   3.370   4.905 -0.4645 -0.2582  0.1165
14371TIP3    H164528   3.471   3.318   4.829 -2.6738 -1.6646  0.2298
14371TIP3    H264529   3.379   3.432   4.869 -0.1868  0.2745  0.5357
14372TIP3   OH264530   6.989   6.529   4.489  0.3419 -0.0433  0.6081
14372TIP3    H164531   7.020   6.586   4.560  0.1319  1.5119 -0.5097
14372TIP3    H264532   7.060   6.467   4.475  1.5691  1.3893  0.3279
14373TIP3   OH264533   6.976   2.431   3.304 -0.0994 -0.8006  0.3814
14373TIP3    H164534   6.931   2.440   3.220 -0.7254  1.9020  0.9722
14373TIP3    H264535   6.905   2.430   3.369  0.4934 -0.8050  1.0333
14374TIP3   OH264536   2.599   3.589   3.879  0.2045  0.3834  0.5194
14374TIP3    H164537   2.544   3.510   3.875  1.0961 -0.2315  0.0734
14374TIP3    H264538   2.680   3.563   3.834 -0.1493  2.1088 -1.1584
14375TIP3   OH264539   6.370   3.795   1.334  0.1305 -0.5832 -0.4468
14375TIP3    H164540   6.389   3.886   1.313 -0.4235 -0.2787  0.3396
14375TIP3    H264541   6.451   3.761   1.371 -0.1320  0.0295  0.6954
14376TIP3   OH264542   7.073   2.369   1.812  0.7322  0.4588 -0.2393
14376TIP3    H164543   7.132   2.296   1.791  2.4272  1.6198  0.3277
14376TIP3    H264544   7.001   2.329   1.860 -0.1033 -1.3149 -2.8499
14377TIP3   OH264545   6.393   0.092   3.349  0.0325  0.7567  0.0131
14377TIP3    H164546   6.386   0.029   3.420  0.0659  0.3779 -0.3215
14377TIP3    H264547   6.343   0.054   3.277  0.9160  0.6233 -0.5375
14378TIP3   OH264548   2.027   4.354   5.659 -0.5508  0.1509 -0.0566
14378TIP3    H164549   2.034   4.309   5.744 -3.7750 -1.0670 -0.3335
14378TIP3    H264550   2.088   4.308   5.602  0.8717  0.2869  1.3306
14379TIP3   OH264551   2.176   0.824   4.433 -0.0715  0.1979 -0.2484
14379TIP3    H164552   2.138   0.864   4.512 -1.5468 -1.2415 -0.1962
14379TIP3    H264553   2.100   0.803   4.379  0.7197 -1.8745 -0.5758
14380TIP3   OH264554   6.377   1.535   4.312 -0.1554  0.5517  0.5145
14380TIP3    H164555   6.360   1.573   4.226 -1.0508  0.3716  0.6059
14380TIP3    H264556   6.446   1.590   4.350  2.4594 -1.1730 -1.5134
14381TIP3   OH264557   3.301   1.643   1.592 -0.3033 -0.0286  0.6597
14381TIP3    H164558   3.279   1.711   1.655 -0.9397  0.4012 -0.0241
14381TIP3    H264559   3.229   1.643   1.530  1.9811  2.0438 -2.1695
14382TIP3   OH264560   2.444   5.453   5.274 -0.0400 -0.5724 -0.0914
14382TIP3    H164561   2.477   5.533   5.315  1.8807 -0.9118 -0.9357
14382TIP3    H264562   2.349   5.467   5.268 -0.1242  0.3107  2.5997
14383TIP3   OH264563   7.090   5.816   3.933 -0.4657  0.5632 -0.0116
14383TIP3    H164564   7.106   5.824   4.027 -1.8261 -2.2063  0.4944
14383TIP3    H264565   7.177   5.805   3.895 -0.0993 -0.7416  1.1878
14384TIP3   OH264566   0.679   5.722   4.513 -0.0044  0.0213  0.1987
14384TIP3    H164567   0.688   5.683   4.599 -1.0740  1.4920  0.9955
14384TIP3    H264568   0.768   5.749   4.489  0.2586 -0.2014  0.9233
14385TIP3   OH264569   3.215   1.712   3.997 -0.1191  0.2408  0.6491
14385TIP3    H164570   3.143   1.660   4.033  1.8196 -4.1495 -1.4336
14385TIP3    H264571   3.292   1.684   4.048  1.2022 -0.0690 -1.4473
14386TIP3   OH264572   1.929   4.882   0.279  0.6700 -0.1939 -0.5031
14386TIP3    H164573   1.979   4.950   0.234  0.0455  0.1932 -0.6119
14386TIP3    H264574   1.989   4.847   0.345  1.0672  0.2923 -0.6094
14387TIP3   OH264575   5.330   2.454   1.473  0.0999  0.1268 -0.0838
14387TIP3    H164576   5.276   2.443   1.551 -1.4950 -0.8617 -1.2995
14387TIP3    H264577   5.387   2.529   1.493 -0.1826 -0.2209  2.0674
14388TIP3   OH264578   2.913   4.844   4.784 -0.0850 -0.3960  0.6876
14388TIP3    H164579   3.004   4.830   4.809 -0.0116  0.3383  0.8403
14388TIP3    H264580   2.883   4.758   4.753  0.4416 -0.8133  1.3128
14389TIP3   OH264581   0.593   2.659   1.838  0.1567 -0.1656 -0.5114
14389TIP3    H164582   0.533   2.690   1.906 -0.1898  0.2441 -0.9979
14389TIP3    H264583   0.653   2.600   1.884 -1.3161 -1.4850 -0.2182
14390TIP3   OH264584   6.686   0.938   0.645  0.4056 -0.5366  0.5015
14390TIP3    H164585   6.592   0.932   0.627  0.1875 -0.5266  1.5628
14390TIP3    H264586   6.700   1.031   0.664  0.6163 -0.5483  0.3991
14391TIP3   OH264587   3.143   6.684   1.460 -0.5265 -0.1397  0.2940
14391TIP3    H164588   3.098   6.759   1.421  0.7658  1.1294  1.2199
14391TIP3    H264589   3.231   6.716   1.480 -0.0160 -1.8509  0.8632
14392TIP3   OH264590   0.081   6.681   1.516  0.2301 -0.3881 -0.3703
14392TIP3    H164591  -0.011   6.705   1.508  0.4247  0.0648 -1.3593
14392TIP3    H264592   0.128   6.746   1.463  1.1669 -0.2779  0.5659
14393TIP3   OH264593   3.497   2.962   4.526  0.7282 -0.1769  0.0089
14393TIP3    H164594   3.527   3.028   4.463  0.8254  0.6493  0.9151
14393TIP3    H264595   3.402   2.970   4.525  0.6283 -1.3023 -1.2474
14394TIP3   OH264596   1.563   2.307  14.735 -0.2537  0.0690  0.1253
14394TIP3    H164597   1.473   2.327  14.759 -0.5871  0.0947 -1.1387
14394TIP3    H264598   1.609   2.391  14.746 -0.5551  0.2553 -0.0137
14395TIP3   OH264599   2.489   1.691  14.929  0.3989 -0.2644  0.4220
14395TIP3    H164600   2.576   1.675  14.964  0.6237 -0.3339 -0.1624
14395TIP3    H264601   2.451   1.604  14.916  0.5555 -0.2602 -0.0924
14396TIP3   OH264602   1.074   0.056   3.875  0.2420 -0.3660  0.6972
14396TIP3    H164603   1.165   0.074   3.899 -0.0179  1.3742  0.5032
14396TIP3    H264604   1.033   0.026   3.956  0.5175  0.8541  1.3081
14397TIP3   OH264605   5.401   3.650   0.292 -0.5259 -0.2359 -0.2509
14397TIP3    H164606   5.495   3.667   0.288 -0.2865 -1.1770  1.1388
14397TIP3    H264607   5.372   3.651   0.201  1.0111 -0.9663 -0.7558
14398TIP3   OH264608   5.802   3.018   4.706  0.5523  0.0268 -0.1517
14398TIP3    H164609   5.764   3.101   4.735  1.0919  0.2697 -0.1137
14398TIP3    H264610   5.877   3.004   4.764  1.5090  0.4098 -1.2599
14399TIP3   OH264611   3.046   4.426   1.093 -0.2555 -0.4407 -0.5499
14399TIP3    H164612   3.107   4.381   1.152  2.0905  1.7278 -1.1829
14399TIP3    H264613   2.960   4.392   1.116  0.6544 -0.2679  3.6368
14400TIP3   OH264614   7.155   4.502   5.085  0.1206  0.0597  0.3198
14400TIP3    H164615   7.077   4.554   5.066  0.1454  0.0873  0.2930
14400TIP3    H264616   7.221   4.566   5.110  0.1420  0.0384  0.3189
14401TIP3   OH264617   3.710   3.902  13.490  0.0027  0.5975  0.3988
14401TIP3    H164618   3.695   3.980  13.437 -1.7233  1.9526  2.7770
14401TIP3    H264619   3.631   3.895  13.545  0.8720 -1.8568  1.4008
14402TIP3   OH264620   4.557   3.274   2.883 -0.3799  0.0787  0.0791
14402TIP3    H164621   4.501   3.348   2.860  0.0941  0.9682  1.7011
14402TIP3    H264622   4.498   3.199   2.887 -1.3562  0.8902  1.1305
14403TIP3   OH264623   1.947   5.557   1.953 -0.2862  0.0011 -0.3871
14403TIP3    H164624   2.005   5.490   1.988  0.9202  0.7355 -0.9435
14403TIP3    H264625   1.882   5.508   1.902 -0.3599 -0.8534  0.5199
14404TIP3   OH264626   6.746   4.482   3.151 -0.2575 -0.5358  0.4340
14404TIP3    H164627   6.774   4.416   3.088 -0.6916 -0.3261  0.0232
14404TIP3    H264628   6.828   4.518   3.186 -0.0214 -1.0325  0.3934
14405TIP3   OH264629   7.102   3.189   2.067 -0.2553 -0.0273  0.4110
14405TIP3    H164630   7.132   3.272   2.103 -1.7792  1.0119 -0.6757
14405TIP3    H264631   7.181   3.134   2.064  0.9703  1.7341  0.1466
14406TIP3   OH264632   1.266   1.465   3.485  0.0901  0.0967 -0.1907
14406TIP3    H164633   1.218   1.505   3.412 -0.9000 -0.7492 -0.0235
14406TIP3    H264634   1.317   1.537   3.523 -0.2840  0.7969 -0.9965
14407TIP3   OH264635   1.353   3.139   3.447 -0.2425  0.5638  0.3567
14407TIP3    H164636   1.433   3.191   3.451  0.4780 -0.6105  2.1806
14407TIP3    H264637   1.307   3.159   3.529 -0.5444 -0.7052  0.5217
14408TIP3   OH264638   6.220   4.330   0.629  0.1803  0.3919  0.3598
14408TIP3    H164639   6.286   4.359   0.565  0.7834  1.7500  1.5387
14408TIP3    H264640   6.137   4.360   0.593  0.6720  2.5298  0.9313
14409TIP3   OH264641   3.084   0.609   1.486 -0.4238  0.2525  0.3501
14409TIP3    H164642   3.134   0.561   1.552 -0.4760  0.0942  0.2740
14409TIP3    H264643   3.019   0.547   1.455 -1.1115  0.6727  0.9316
14410TIP3   OH264644   6.773   4.505   4.224  0.1232  0.2768 -0.0442
14410TIP3    H164645   6.704   4.440   4.225  1.2870 -0.9622  1.1209
14410TIP3    H264646   6.794   4.516   4.131 -0.7955 -0.2244 -0.3174
14411TIP3   OH264647   2.702   5.152   4.644 -0.1416  0.4247 -0.4099
14411TIP3    H164648   2.763   5.082   4.619 -0.2642  0.1663  0.0006
14411TIP3    H264649   2.737   5.186   4.726 -0.3151  0.5582 -0.3918
14412TIP3   OH264650   6.575   5.576   3.758  0.1303  0.7172 -0.9966
14412TIP3    H164651   6.595   5.670   3.748 -1.8758  1.3628  0.6953
14412TIP3    H264652   6.543   5.549   3.672  0.4195  1.6636 -1.4099
14413TIP3   OH264653   1.936   1.583   4.065 -0.1027  0.3390 -0.0862
14413TIP3    H164654   1.983   1.508   4.028 -0.9251  0.1808 -0.8252
14413TIP3    H264655   1.863   1.544   4.113 -0.7187  0.6750 -0.7422
14414TIP3   OH264656   0.903   4.731   3.264 -0.2508 -0.0912 -0.1411
14414TIP3    H164657   0.830   4.768   3.315  0.3395  0.5614  0.2380
14414TIP3    H264658   0.980   4.746   3.318 -0.0313 -2.2188  0.2005
14415TIP3   OH264659   5.817   3.954   1.069 -0.3039  0.5893 -0.0580
14415TIP3    H164660   5.898   3.987   1.030 -0.7386  2.1585  0.3499
14415TIP3    H264661   5.804   4.007   1.147 -1.0434 -0.5319  0.6038
14416TIP3   OH264662   0.617   3.174   6.058 -0.1221 -0.0484  0.0419
14416TIP3    H164663   0.521   3.169   6.063 -0.2574  2.1033  0.3049
14416TIP3    H264664   0.644   3.200   6.146  0.6207  0.2403 -0.2643
14417TIP3   OH264665   0.159   5.462   1.855 -0.3236 -0.6565 -0.5335
14417TIP3    H164666   0.122   5.540   1.896 -0.1341 -0.4991 -0.6572
14417TIP3    H264667   0.086   5.400   1.849 -0.7940 -0.0122 -1.6173
14418TIP3   OH264668   3.796   1.364   2.575 -0.1567  0.1035 -0.4080
14418TIP3    H164669   3.890   1.377   2.562 -0.0870 -0.5064 -0.5366
14418TIP3    H264670   3.759   1.368   2.486 -0.2127  0.0656 -0.3864
14419TIP3   OH264671   6.825   7.099   4.901 -0.2785  0.2481  0.7067
14419TIP3    H164672   6.739   7.068   4.926 -0.2734  0.2820  0.7662
14419TIP3    H264673   6.853   7.038   4.832 -0.2207  0.0529  0.9033
14420TIP3   OH264674   4.178   6.740   3.949  0.2193  0.0099 -0.0598
14420TIP3    H164675   4.103   6.774   3.998 -0.5373 -2.3679  0.4793
14420TIP3    H264676   4.236   6.704   4.016  1.3861  0.8895 -0.5667
14421TIP3   OH264677   1.861   2.135  15.445  0.3932 -0.0601  0.3952
14421TIP3    H164678   1.813   2.099  15.520 -2.0311  4.5009  1.2339
14421TIP3    H264679   1.809   2.108  15.369  0.1105 -0.5907  0.7715
14422TIP3   OH264680   6.813   2.169   0.753  0.7234  0.0579 -0.1821
14422TIP3    H164681   6.735   2.209   0.714  0.8929  0.8110  0.2517
14422TIP3    H264682   6.784   2.081   0.779 -0.2340  0.6691  0.8370
14423TIP3   OH264683   2.244   3.444   5.128 -0.1284  0.0917 -0.0275
14423TIP3    H164684   2.309   3.496   5.082 -0.7020 -0.0697 -1.0220
14423TIP3    H264685   2.182   3.508   5.164  0.2967  0.2128  0.5011
14424TIP3   OH264686   3.823   2.531   2.976  0.2245  0.7918 -0.3409
14424TIP3    H164687   3.887   2.596   3.007  0.8259 -0.4905  1.1942
14424TIP3    H264688   3.759   2.582   2.926  1.8366  2.2619 -0.9693
14425TIP3   OH264689   5.687   3.744   2.441 -0.8192  0.7232  0.0127
14425TIP3    H164690   5.746   3.744   2.517  0.1179  0.2633 -0.6968
14425TIP3    H264691   5.741   3.708   2.370 -0.7287  3.8172 -1.5789
14426TIP3   OH264692   0.406   4.385   1.206 -0.1140 -0.3737  0.0020
14426TIP3    H164693   0.473   4.375   1.273 -0.7477  0.8946  0.8528
14426TIP3    H264694   0.338   4.323   1.231 -0.3156  0.0444  0.5011
14427TIP3   OH264695   6.803   0.151   1.217  0.3491  0.1048 -0.1751
14427TIP3    H164696   6.792   0.085   1.149  0.7349  1.4638 -1.5825
14427TIP3    H264697   6.790   0.234   1.172  0.1000  0.9995  1.5289
14428TIP3   OH264698   2.866   3.684   1.756 -0.1348  0.3247  0.5224
14428TIP3    H164699   2.792   3.675   1.696 -1.0907 -0.3480  1.7701
14428TIP3    H264700   2.827   3.680   1.844  0.9439  3.6426  1.2453
14429TIP3   OH264701   1.318   4.075   2.542 -0.4235  0.1222 -0.6055
14429TIP3    H164702   1.250   4.140   2.525  0.0504  0.8427  0.2178
14429TIP3    H264703   1.339   4.038   2.457 -1.1119  0.6287 -0.9953
14430TIP3   OH264704   2.981   4.346   0.696  0.5517  0.2392 -0.4730
14430TIP3    H164705   3.036   4.296   0.635  1.1922  0.1528  0.1629
14430TIP3    H264706   2.892   4.331   0.666  0.6654 -1.9527  0.1840
14431TIP3   OH264707   2.825   2.320   2.976 -0.4481  0.2367  0.4913
14431TIP3    H164708   2.773   2.303   3.054 -0.3107  0.8373  0.7183
14431TIP3    H264709   2.799   2.408   2.948  0.9389  0.8283  1.0198
14432TIP3   OH264710   6.513   1.302   3.514  0.2867 -0.6224 -0.6815
14432TIP3    H164711   6.522   1.396   3.528 -1.0698 -0.6962  0.9017
14432TIP3    H264712   6.433   1.292   3.463 -0.0344 -0.9418 -0.1326
14433TIP3   OH264713   3.839   1.340   1.030  0.4417  0.3167  0.3970
14433TIP3    H164714   3.752   1.338   1.071  0.4046  1.0095  0.3606
14433TIP3    H264715   3.885   1.411   1.075  1.0558 -0.1708  0.5462
14434TIP3   OH264716   4.170   6.381   4.205 -0.7467  0.2232 -0.0876
14434TIP3    H164717   4.145   6.336   4.286 -1.7911  1.0023  0.0395
14434TIP3    H264718   4.258   6.414   4.222 -0.3957 -0.8461  0.2050
14435TIP3   OH264719   1.672   4.445  14.365  0.3172 -0.4077 -0.5217
14435TIP3    H164720   1.705   4.485  14.445  0.4150 -0.1301 -0.6990
14435TIP3    H264721   1.632   4.518  14.317 -1.2557 -0.8788  0.0525
14436TIP3   OH264722   0.314   2.989   0.412 -0.1503  0.2184  1.1097
14436TIP3    H164723   0.297   3.081   0.435  1.9678  1.0919 -0.5354
14436TIP3    H264724   0.229   2.953   0.390 -1.1360  1.5486  2.6312
14437TIP3   OH264725   0.294   5.930   0.599  0.0846 -0.0390 -0.4236
14437TIP3    H164726   0.359   5.865   0.571  0.8794  0.1999  0.8401
14437TIP3    H264727   0.210   5.896   0.568  0.7476 -0.5924 -1.6471
14438TIP3   OH264728   1.136   4.295   2.545  0.8756  0.1403  0.5620
14438TIP3    H164729   1.092   4.234   2.603  1.9430  1.0035  2.3373
14438TIP3    H264730   1.154   4.372   2.600  1.4842  1.1731 -1.0292
14439TIP3   OH264731   1.797   0.604   3.854  0.0475 -0.5810 -0.3316
14439TIP3    H164732   1.875   0.631   3.807  0.4935  0.1674  0.8068
14439TIP3    H264733   1.749   0.685   3.872 -2.0539 -1.2188 -2.7996
14440TIP3   OH264734   7.003   3.363   2.895 -0.6637  0.2044  0.0344
14440TIP3    H164735   7.024   3.322   2.979  1.4718  0.0412 -0.5429
14440TIP3    H264736   6.982   3.454   2.918 -1.7519 -0.2572  0.9109
14441TIP3   OH264737   5.685   3.017   5.306  0.2350  0.3622 -0.8624
14441TIP3    H164738   5.762   3.012   5.363  0.4527  2.4548 -0.9573
14441TIP3    H264739   5.661   3.109   5.306 -2.4087 -0.2843 -0.6777
14442TIP3   OH264740   4.116   6.329  13.798 -0.0992 -0.1992 -1.0629
14442TIP3    H164741   4.167   6.328  13.717 -1.3937 -1.4625 -1.8999
14442TIP3    H264742   4.069   6.412  13.795  0.9380  0.3981 -0.9019
14443TIP3   OH264743   0.889   2.941   2.980  0.3322 -0.1141 -0.1233
14443TIP3    H164744   0.984   2.946   2.977  0.3241  0.3891  0.3800
14443TIP3    H264745   0.860   3.032   2.988 -0.2384 -0.1615 -1.4014
14444TIP3   OH264746   3.569   4.544   4.901  0.0905 -0.0579  0.2823
14444TIP3    H164747   3.553   4.481   4.831 -1.1072 -0.0616  0.5617
14444TIP3    H264748   3.624   4.497   4.964 -0.8721 -0.8615  0.5337
14445TIP3   OH264749   1.537   2.529   3.835  0.0948 -0.3715  0.4272
14445TIP3    H164750   1.505   2.510   3.747 -0.5034 -2.2669  1.0344
14445TIP3    H264751   1.590   2.453   3.858  1.1224  0.5938  1.3035
14446TIP3   OH264752   6.031   2.277   3.604 -0.2510  0.7861 -0.0946
14446TIP3    H164753   5.947   2.243   3.572 -1.0195  1.2076  1.4394
14446TIP3    H264754   6.035   2.367   3.571 -1.1182  1.2780  1.1291
14447TIP3   OH264755   2.207   4.003   4.328 -0.2879 -0.2063  0.2607
14447TIP3    H164756   2.166   3.924   4.364  0.3139  0.0683  1.5875
14447TIP3    H264757   2.300   3.993   4.350 -0.1597  0.7046  0.1411
14448TIP3   OH264758   4.619   4.105   2.129  0.0085  0.3860  0.1708
14448TIP3    H164759   4.605   4.094   2.223  1.7601 -0.6276  0.3432
14448TIP3    H264760   4.581   4.026   2.090  2.0940 -0.7400  0.3407
14449TIP3   OH264761   1.474   0.288   0.557 -0.7064 -0.1651 -0.3103
14449TIP3    H164762   1.561   0.306   0.595 -0.9184  0.1057  0.0506
14449TIP3    H264763   1.455   0.366   0.504 -0.9608  0.0063  0.0338
14450TIP3   OH264764   0.801   5.693   3.389  0.8863 -0.2446 -0.1968
14450TIP3    H164765   0.895   5.675   3.384  0.9336 -0.4718  1.3131
14450TIP3    H264766   0.768   5.670   3.302  1.9280 -1.8610 -0.1885
14451TIP3   OH264767   3.050   5.809   5.036 -0.5942  0.3005  0.4588
14451TIP3    H164768   3.024   5.723   5.003 -0.0700  0.8318 -1.3822
14451TIP3    H264769   3.049   5.799   5.132 -1.1273 -1.5655  0.2799
14452TIP3   OH264770   4.263   4.841  14.993 -0.7908  0.4505 -0.3071
14452TIP3    H164771   4.353   4.870  14.979 -0.8454  1.0375  0.4653
14452TIP3    H264772   4.230   4.819  14.906 -0.6826  2.5644 -0.9228
14453TIP3   OH264773   2.622   5.787   5.766  0.0251  0.0821  0.1598
14453TIP3    H164774   2.588   5.822   5.684  0.7594  0.5648  0.0571
14453TIP3    H264775   2.628   5.863   5.824  0.3468 -0.1059  0.3755
14454TIP3   OH264776   5.170   2.660   2.944  0.6674  0.0672  0.5672
14454TIP3    H164777   5.219   2.714   2.882 -0.4823  0.4537 -0.0199
14454TIP3    H264778   5.082   2.698   2.945 -0.0399 -1.5223  0.4581
14455TIP3   OH264779   5.340   4.911   5.341 -0.2394 -0.3373 -0.0973
14455TIP3    H164780   5.394   4.894   5.264 -0.9914 -2.8083 -0.1398
14455TIP3    H264781   5.389   4.874   5.414 -0.3574  0.3815  0.3539
14456TIP3   OH264782   2.951   5.098   1.143  0.7337 -0.2727  0.1227
14456TIP3    H164783   2.902   5.180   1.139  1.1966  0.1260  2.2814
14456TIP3    H264784   2.934   5.056   1.058 -1.0967  1.1271 -0.2318
14457TIP3   OH264785   1.106   2.930   3.952  0.1616  0.1941  0.0136
14457TIP3    H164786   1.163   2.856   3.973 -0.1981  0.1253  0.7778
14457TIP3    H264787   1.072   2.910   3.864 -0.7091 -1.0496  0.6192
14458TIP3   OH264788   7.132   3.553   3.400  0.5882  0.5508  0.9053
14458TIP3    H164789   7.200   3.524   3.461 -0.4202 -1.4998  1.0687
14458TIP3    H264790   7.060   3.491   3.412 -0.4816  1.4166 -0.8107
14459TIP3   OH264791   5.001   3.788   3.051  0.1794 -0.8873  0.0283
14459TIP3    H164792   5.036   3.785   3.140  2.2500  0.6514 -0.7103
14459TIP3    H264793   4.980   3.880   3.035 -1.7260 -1.3865 -0.5158
14460TIP3   OH264794   2.303   1.612   3.553 -0.0944 -0.7204  0.5770
14460TIP3    H164795   2.348   1.647   3.630 -0.4069 -0.8486  0.8172
14460TIP3    H264796   2.214   1.594   3.583 -0.9627  1.5901 -0.4708
14461TIP3   OH264797   0.058   1.292  14.526 -0.4204  0.6162  0.2596
14461TIP3    H164798   0.063   1.384  14.552 -0.4243  0.0421  2.3987
14461TIP3    H264799   0.013   1.249  14.598 -0.9321 -0.9822 -0.9783
14462TIP3   OH264800   1.097   4.180   1.217 -0.3909  0.2538  0.5396
14462TIP3    H164801   1.136   4.192   1.303  1.8779  0.1331 -0.4282
14462TIP3    H264802   1.003   4.181   1.232 -0.0166 -1.7226  3.2889
14463TIP3   OH264803   2.490   2.034  15.388 -0.0012  0.0271  0.7575
14463TIP3    H164804   2.481   2.012  15.295 -0.1026  0.2536  0.7115
14463TIP3    H264805   2.400   2.046  15.418  0.0951  1.7568  0.4384
14464TIP3   OH264806   2.046   5.590   1.453 -0.2915  0.8288  0.2262
14464TIP3    H164807   2.046   5.627   1.542 -0.1391 -1.2622  1.1247
14464TIP3    H264808   1.956   5.602   1.422 -0.7792  0.0589  1.3212
14465TIP3   OH264809   0.392   6.942   1.689 -0.2086 -0.3578 -0.8672
14465TIP3    H164810   0.479   6.906   1.706 -0.4477 -0.4928  0.1205
14465TIP3    H264811   0.393   7.028   1.732 -1.2431 -1.2224  0.9530
14466TIP3   OH264812   6.659   6.901   0.515 -0.2317 -0.1390  0.5083
14466TIP3    H164813   6.620   6.856   0.590  1.7442 -1.0540  1.0429
14466TIP3    H264814   6.599   6.883   0.442 -1.6653 -0.0646  1.6480
14467TIP3   OH264815   1.755   4.947   3.338 -0.2410  0.5343  0.2222
14467TIP3    H164816   1.824   4.910   3.393 -0.7094  0.6018  0.8583
14467TIP3    H264817   1.800   4.975   3.258  0.7938  2.3730  1.4218
14468TIP3   OH264818   0.927   0.491   4.261  0.0320 -0.0292 -0.3170
14468TIP3    H164819   0.912   0.402   4.294 -0.0546  0.1051  0.0122
14468TIP3    H264820   0.999   0.524   4.315 -0.9532  0.6520  0.6156
14469TIP3   OH264821   3.725   1.574   3.950  0.0938  0.0913 -0.0504
14469TIP3    H164822   3.713   1.618   3.866 -2.4733 -1.3581 -0.4763
14469TIP3    H264823   3.792   1.508   3.934  1.0977  1.1601 -0.3917
14470TIP3   OH264824   1.159   6.854   1.682 -0.8607  0.2059  0.5256
14470TIP3    H164825   1.246   6.890   1.692 -0.0924 -1.8032  1.3529
14470TIP3    H264826   1.121   6.856   1.770 -0.6960 -1.1874  0.6493
14471TIP3   OH264827   3.861   5.536   1.931 -0.2620  0.4892  0.2566
14471TIP3    H164828   3.948   5.567   1.907 -0.1210  0.3060  0.5365
14471TIP3    H264829   3.827   5.603   1.990 -0.0579  0.2378  0.6586
14472TIP3   OH264830   2.903   2.220   5.301 -0.3909 -0.2477  0.7463
14472TIP3    H164831   2.899   2.126   5.318  1.9238 -0.2779  1.2001
14472TIP3    H264832   2.887   2.260   5.387  2.7654 -0.3056  1.4100
14473TIP3   OH264833   3.614   6.255   4.538 -0.2154  0.1427  0.5039
14473TIP3    H164834   3.678   6.317   4.502  0.5695  1.0630  3.3513
14473TIP3    H264835   3.667   6.190   4.583 -1.1434 -1.4471 -0.6580
14474TIP3   OH264836   3.698   1.931   3.296 -0.2241  0.1893 -0.3748
14474TIP3    H164837   3.663   1.842   3.296 -1.3556  0.6243  0.1491
14474TIP3    H264838   3.756   1.934   3.372 -0.8200  0.1415  0.0828
14475TIP3   OH264839   6.217   2.974   0.148  0.1575  0.2498 -0.4196
14475TIP3    H164840   6.269   2.932   0.217  1.4453  1.9050 -0.3219
14475TIP3    H264841   6.137   3.002   0.192  0.1963 -0.2652 -0.0133
14476TIP3   OH264842   4.209   0.807   5.591  0.0836 -0.3789 -0.1366
14476TIP3    H164843   4.196   0.901   5.602  2.0197  0.0228 -1.0170
14476TIP3    H264844   4.303   0.794   5.606 -0.5099 -2.4926  2.0425
14477TIP3   OH264845   6.408   4.756   5.447 -0.2936 -0.2575  0.0232
14477TIP3    H164846   6.484   4.813   5.455 -0.7396  0.8143 -2.6736
14477TIP3    H264847   6.444   4.667   5.446  1.1683  0.2940 -2.9760
14478TIP3   OH264848   1.408   7.119   5.382  0.3468  0.1286  0.0839
14478TIP3    H164849   1.466   7.191   5.357 -0.6292  1.2842  1.1047
14478TIP3    H264850   1.394   7.131   5.476  0.3968 -1.5737  0.3282
14479TIP3   OH264851   2.582   2.855   2.485  0.5407  0.5228  0.4843
14479TIP3    H164852   2.580   2.916   2.558  0.4272  1.1426 -0.0258
14479TIP3    H264853   2.534   2.900   2.415 -2.5849 -1.5826  1.1798
14480TIP3   OH264854   4.856   4.652   1.402 -0.7396  0.2943 -0.0870
14480TIP3    H164855   4.839   4.703   1.323  0.3501  0.1604 -0.4108
14480TIP3    H264856   4.831   4.563   1.379  0.3487  0.1048 -0.5494
14481TIP3   OH264857   1.839   1.459   3.227 -0.7832  0.3498 -0.2648
14481TIP3    H164858   1.794   1.390   3.177 -1.4864  1.9771 -1.9337
14481TIP3    H264859   1.887   1.509   3.161 -1.4271  2.3121  0.7234
14482TIP3   OH264860   4.326   0.616   3.231 -0.0742  0.1083 -0.1119
14482TIP3    H164861   4.375   0.698   3.221 -1.0572  0.6584 -0.4515
14482TIP3    H264862   4.382   0.562   3.287  0.6363  0.9666  0.0258
14483TIP3   OH264863   0.467   1.270   3.451  0.1831  0.0260  0.3171
14483TIP3    H164864   0.421   1.219   3.517 -0.9442 -0.4223 -0.7813
14483TIP3    H264865   0.465   1.215   3.373  1.6152  0.4870 -0.0489
14484TIP3   OH264866   3.686   1.217   3.843 -0.8410  0.1210  0.0966
14484TIP3    H164867   3.674   1.141   3.787  0.5682 -0.6872  0.8739
14484TIP3    H264868   3.646   1.193   3.927 -1.4424  0.6818 -0.0276
14485TIP3   OH264869   5.004   2.808   5.007 -0.1749 -0.0895 -0.3653
14485TIP3    H164870   5.095   2.786   4.986 -0.2034 -0.4712 -0.1108
14485TIP3    H264871   4.956   2.727   4.989 -0.8202  0.7817 -2.6288
14486TIP3   OH264872   3.042   2.872   3.352  0.1170 -0.3485  0.0544
14486TIP3    H164873   3.113   2.823   3.394  0.0792  0.0527  0.5860
14486TIP3    H264874   2.990   2.804   3.309  1.7718 -0.4763 -1.7788
14487TIP3   OH264875   2.936   2.681   3.768 -0.2332  0.2003 -0.4565
14487TIP3    H164876   2.946   2.619   3.841 -2.2497  0.4876  0.0919
14487TIP3    H264877   2.882   2.636   3.704  0.7725  0.2984 -1.3969
14488TIP3   OH264878   1.387   0.602   1.057 -0.4722  0.0384 -0.1205
14488TIP3    H164879   1.365   0.545   0.983 -0.3888 -0.6294  0.3613
14488TIP3    H264880   1.436   0.545   1.117  0.4431  0.8734 -0.0718
14489TIP3   OH264881   4.309   3.462   0.005 -0.4118 -0.6407  0.3355
14489TIP3    H164882   4.295   3.415   0.087  0.7425 -0.6107  0.5495
14489TIP3    H264883   4.371   3.531   0.027 -1.3135  0.3510 -0.2109
14490TIP3   OH264884   6.743   2.058   4.991 -0.0549  0.2795  0.5085
14490TIP3    H164885   6.760   2.000   4.917  1.1815 -0.2444  1.1880
14490TIP3    H264886   6.663   2.025   5.030 -0.4047  0.2149 -0.2645
14491TIP3   OH264887   0.961   4.532   5.259 -0.3292 -0.4584 -0.0588
14491TIP3    H164888   0.924   4.522   5.346 -0.9156 -0.2907 -0.2831
14491TIP3    H264889   0.984   4.444   5.231  1.1172 -0.3647  0.8066
14492TIP3   OH264890   3.569   6.150  15.223 -0.4530  0.1864 -0.3855
14492TIP3    H164891   3.588   6.058  15.206 -1.1895 -0.0791  0.2219
14492TIP3    H264892   3.648   6.183  15.266 -0.7359 -0.5241  0.7010
14493TIP3   OH264893   4.598   0.196   5.282  0.5292 -1.0790  0.2712
14493TIP3    H164894   4.565   0.108   5.298  0.2450 -1.1901 -0.8662
14493TIP3    H264895   4.592   0.240   5.367 -2.9938 -0.9544  0.0275
14494TIP3   OH264896   4.078   1.400   2.507  0.1812 -0.0189  0.5824
14494TIP3    H164897   4.057   1.489   2.478 -0.6862 -0.9246 -1.7499
14494TIP3    H264898   4.171   1.403   2.530 -0.1046  1.7340  1.5496
14495TIP3   OH264899   3.253   5.239   4.637 -0.3690  0.1585 -0.2486
14495TIP3    H164900   3.256   5.244   4.733 -0.7058  2.4257 -0.3134
14495TIP3    H264901   3.345   5.236   4.611 -0.2865 -1.0487  0.1600
14496TIP3   OH264902   4.067   5.597   4.474 -0.4406  0.1388  0.1651
14496TIP3    H164903   4.061   5.517   4.525  0.6764 -0.0000  0.0819
14496TIP3    H264904   4.095   5.568   4.387 -0.4679  0.5704  0.0094
14497TIP3   OH264905   5.356   4.447   0.340  0.1197 -0.0891 -0.3565
14497TIP3    H164906   5.350   4.539   0.314  2.1412  0.0157 -0.4934
14497TIP3    H264907   5.307   4.400   0.272  0.8051  0.6941 -1.3987
14498TIP3   OH264908   0.028   1.445   5.563 -0.2816 -0.4459 -0.3547
14498TIP3    H164909   0.054   1.356   5.541 -0.4713 -1.1327  2.1163
14498TIP3    H264910   0.059   1.459   5.652 -1.2685  1.5519 -0.2837
14499TIP3   OH264911   3.876   3.011   5.906 -0.5465 -0.2589 -0.3393
14499TIP3    H164912   3.809   3.078   5.919  0.0445  0.6406 -1.7472
14499TIP3    H264913   3.959   3.058   5.913 -0.1260 -0.8163 -1.3644
14500TIP3   OH264914   1.085   0.523   3.380 -0.4959 -0.3089  0.3852
14500TIP3    H164915   1.002   0.476   3.383 -0.5089 -0.2533  1.0427
14500TIP3    H264916   1.151   0.454   3.376 -0.6028 -0.3442 -1.4146
14501TIP3   OH264917   7.123   5.311   2.974 -1.0390 -0.4410 -0.0934
14501TIP3    H164918   7.172   5.372   3.030  0.6055 -0.3972 -1.5227
14501TIP3    H264919   7.063   5.267   3.034  0.5272 -0.2569  1.6864
14502TIP3   OH264920   1.305   1.876   2.478  0.4612 -0.1578 -0.0288
14502TIP3    H164921   1.294   1.795   2.527  0.5532  0.4851  1.0815
14502TIP3    H264922   1.399   1.883   2.463  0.4722 -0.1860  0.0248
14503TIP3   OH264923   4.139   0.535   5.082 -0.0622  0.5815  0.3677
14503TIP3    H164924   4.044   0.535   5.073 -0.1428  1.1270  1.1404
14503TIP3    H264925   4.172   0.553   4.993 -0.6348 -0.9755 -0.1705
14504TIP3   OH264926   1.166   2.720  14.644  0.1229 -0.5652 -0.5997
14504TIP3    H164927   1.224   2.791  14.618 -1.3687  0.1027 -2.2185
14504TIP3    H264928   1.096   2.721  14.578 -0.2657 -3.1096 -0.2852
14505TIP3   OH264929   2.103   7.145   1.674 -0.7490  1.0930  0.4501
14505TIP3    H164930   2.095   7.051   1.684  4.2805  0.4166 -0.6435
14505TIP3    H264931   2.130   7.176   1.760 -0.1360  1.2151  0.2152
14506TIP3   OH264932   1.170   0.845   5.098  0.3938 -0.4870  0.1386
14506TIP3    H164933   1.233   0.781   5.131  1.5967 -0.0373 -1.2256
14506TIP3    H264934   1.211   0.930   5.116 -0.2384 -0.1572  0.0500
14507TIP3   OH264935   1.035   2.413  14.822  0.3973 -0.1553 -0.3787
14507TIP3    H164936   1.041   2.357  14.899  1.6542  0.5652  0.0734
14507TIP3    H264937   1.058   2.500  14.854  0.3086  0.2699 -1.4434
14508TIP3   OH264938   4.720   5.660   3.133  0.1278 -0.1962  0.3727
14508TIP3    H164939   4.683   5.598   3.070 -1.2806  0.9200  0.0785
14508TIP3    H264940   4.709   5.746   3.091 -1.7455  0.6685  2.5583
14509TIP3   OH264941   5.043   2.332   3.327  0.0581 -0.2179  0.5859
14509TIP3    H164942   5.076   2.363   3.243 -0.5112 -0.0264  0.4253
14509TIP3    H264943   5.003   2.248   3.307  0.7305 -0.5995  0.8383
14510TIP3   OH264944   0.536   6.039   2.954 -0.0956  0.7924  0.3249
14510TIP3    H164945   0.483   5.985   3.014 -0.4209 -0.0254 -0.6816
14510TIP3    H264946   0.473   6.094   2.909  0.1336  1.2940  0.6148
14511TIP3   OH264947   1.871   3.385   3.978  0.4254  0.6222 -0.7327
14511TIP3    H164948   1.778   3.398   3.957  0.1492 -0.9585 -0.5270
14511TIP3    H264949   1.902   3.324   3.912  1.0397  0.2582 -0.1081
14512TIP3   OH264950   5.635   4.664  14.857 -0.3839 -0.1691 -0.3678
14512TIP3    H164951   5.713   4.711  14.886 -1.1040  0.5435  0.4429
14512TIP3    H264952   5.631   4.678  14.762 -0.4220  1.1577 -0.1778
14513TIP3   OH264953   2.174   0.529   3.268  0.0818 -0.2978 -0.2389
14513TIP3    H164954   2.243   0.555   3.207  0.9024 -0.6506  0.5372
14513TIP3    H264955   2.150   0.440   3.241 -0.8927  0.2504 -1.2365
14514TIP3   OH264956   1.277   2.795   1.028  0.0489  0.2090  0.6160
14514TIP3    H164957   1.320   2.852   1.092 -2.2235  0.4470  1.9835
14514TIP3    H264958   1.297   2.834   0.943  0.5406  1.6522  1.3833
14515TIP3   OH264959   2.629   1.998   4.884  0.1650 -0.2973 -0.4889
14515TIP3    H164960   2.620   1.923   4.943  1.2878 -1.0407 -1.2424
14515TIP3    H264961   2.711   2.040   4.911 -0.1034  0.2547 -0.5261
14516TIP3   OH264962   4.674   1.669   1.727  0.1042 -0.0599 -0.5077
14516TIP3    H164963   4.762   1.639   1.704 -0.0490  0.6810 -2.1747
14516TIP3    H264964   4.688   1.736   1.794  0.6837 -1.2325  0.5562
14517TIP3   OH264965   2.390   4.389  14.144  0.4128 -0.2723 -0.4651
14517TIP3    H164966   2.435   4.309  14.116 -1.8148 -1.6959 -0.1317
14517TIP3    H264967   2.318   4.398  14.082 -0.4678  0.4277  0.6627
14518TIP3   OH264968   2.075   3.276  13.700 -0.1444 -0.3455  0.8217
14518TIP3    H164969   2.075   3.285  13.605  0.3894 -0.3577  0.8204
14518TIP3    H264970   1.982   3.280  13.724 -0.3574 -1.4867  0.2019
14519TIP3   OH264971   3.016   1.590   0.624  0.4725  0.4234  0.4886
14519TIP3    H164972   3.103   1.589   0.586 -1.0912  0.3261 -3.2771
14519TIP3    H264973   3.013   1.513   0.681  2.8542  0.5098  0.7410
14520TIP3   OH264974   2.016   4.586   0.241 -0.3158 -0.1157 -0.5074
14520TIP3    H164975   2.003   4.493   0.224 -1.0281 -0.3376  1.1069
14520TIP3    H264976   2.111   4.598   0.243 -0.2210 -0.9138 -0.1998
14521TIP3   OH264977   2.270   4.186   3.182 -0.7079  0.3408 -0.2567
14521TIP3    H164978   2.186   4.217   3.215 -0.8783 -0.5754  0.2041
14521TIP3    H264979   2.301   4.125   3.250  0.2642  0.5767 -0.4808
14522TIP3   OH264980   3.929   4.395   2.800 -0.1916  0.0650 -0.2092
14522TIP3    H164981   3.946   4.432   2.887  0.9992 -0.7638 -0.0664
14522TIP3    H264982   3.906   4.470   2.746 -1.1317  0.5712  0.8607
14523TIP3   OH264983   2.993   5.748   1.952  0.5224 -0.3953  0.2353
14523TIP3    H164984   3.061   5.814   1.954  0.0711  0.1565 -1.8507
14523TIP3    H264985   3.034   5.672   1.911 -0.4143  0.3336 -2.1312
14524TIP3   OH264986   3.718   4.224   4.234 -0.6065 -0.0866  0.1902
14524TIP3    H164987   3.692   4.145   4.188  0.2515  0.2788 -0.9420
14524TIP3    H264988   3.636   4.272   4.248 -1.3932 -2.0784  2.6483
14525TIP3   OH264989   4.077   7.105   4.605  0.2741 -0.1809 -0.7048
14525TIP3    H164990   4.030   7.161   4.544  1.2680  0.9743 -0.4359
14525TIP3    H264991   4.008   7.064   4.657 -0.4501  1.5704 -0.2321
14526TIP3   OH264992   1.228   2.902   3.619 -0.7872  0.6060  0.1661
14526TIP3    H164993   1.232   2.987   3.663 -0.0217  0.8256 -0.3068
14526TIP3    H264994   1.241   2.923   3.526  0.4766 -0.1268  0.1660
14527TIP3   OH264995   0.864   5.802   0.091 -0.1544 -0.3823 -0.0624
14527TIP3    H164996   0.844   5.750   0.169  0.1649 -0.7565 -0.2292
14527TIP3    H264997   0.778   5.823   0.054 -0.3069 -0.2111  0.3808
14528TIP3   OH264998   2.007   1.930   0.077  0.1617 -0.3401  0.1652
14528TIP3    H164999   2.060   1.894   0.148 -0.2638  1.0346  1.2000
14528TIP3    H265000   2.028   2.023   0.077 -1.9262  0.1423  0.3108
14529TIP3   OH265001   5.578   1.059   4.507 -0.2147 -0.2398  0.4186
14529TIP3    H165002   5.518   1.130   4.486  0.8526  0.3667 -0.6091
14529TIP3    H265003   5.524   0.996   4.556 -1.5681  0.4825 -0.1186
14530TIP3   OH265004   2.075   6.588   3.308 -0.0597 -0.1471 -0.7575
14530TIP3    H165005   1.983   6.601   3.282 -0.5478 -1.4744  0.2278
14530TIP3    H265006   2.122   6.661   3.268 -1.7887  1.4243  0.0366
14531TIP3   OH265007   2.524   0.949   5.078  0.2820 -0.1985  0.0039
14531TIP3    H165008   2.569   0.962   5.161 -0.6810  1.2170  0.3194
14531TIP3    H265009   2.433   0.934   5.102 -0.0970  0.7195 -0.7984
14532TIP3   OH265010   1.133   2.391   2.110 -0.2653 -0.7059 -0.1511
14532TIP3    H165011   1.107   2.469   2.059  2.1930  1.2811  1.5147
14532TIP3    H265012   1.198   2.348   2.055 -1.5021 -1.5062 -1.0017
14533TIP3   OH265013   4.912   3.584   2.334  0.9986 -0.9396  0.6130
14533TIP3    H165014   4.918   3.509   2.274  2.8316  0.2723 -0.7705
14533TIP3    H265015   4.822   3.615   2.325  1.0740 -1.1696 -1.0280
14534TIP3   OH265016   0.819   3.237   1.556  0.1244  0.4184 -0.4198
14534TIP3    H165017   0.884   3.306   1.540  0.0940  0.8389  1.2096
14534TIP3    H265018   0.738   3.284   1.576  0.0566 -0.0920  0.5189
14535TIP3   OH265019   2.084   1.946   5.548 -0.2470  0.2110 -0.8843
14535TIP3    H165020   2.172   1.984   5.553 -0.5222  1.2227 -3.3134
14535TIP3    H265021   2.100   1.851   5.554  1.0114  0.3753 -1.3639
14536TIP3   OH265022   4.765   2.412   5.671 -0.0456 -0.2418 -0.0800
14536TIP3    H165023   4.702   2.443   5.737 -0.7296 -0.6802 -0.5194
14536TIP3    H265024   4.784   2.322   5.697  0.9581  0.1172  0.4618
14537TIP3   OH265025   6.865   4.963   3.156  0.1436  0.0171  0.0489
14537TIP3    H165026   6.844   4.928   3.243 -0.4435  1.1687  0.3814
14537TIP3    H265027   6.957   4.987   3.161  0.2182 -0.2929  0.2133
14538TIP3   OH265028   3.018   3.657   2.226  0.3279 -0.3913  0.8171
14538TIP3    H165029   3.004   3.700   2.310  0.2394 -1.9445  1.6126
14538TIP3    H265030   3.089   3.595   2.243 -0.0940 -1.1382 -0.0985
14539TIP3   OH265031   2.866   2.119   4.926  0.1173 -0.0415 -0.0754
14539TIP3    H165032   2.850   2.169   5.006 -0.7512  0.0693 -0.3141
14539TIP3    H265033   2.838   2.178   4.856  0.6052 -0.2506 -0.4471
14540TIP3   OH265034   4.288   2.783   1.600  0.4336  0.5104  0.3788
14540TIP3    H165035   4.284   2.750   1.510 -1.8396 -0.5730  0.8286
14540TIP3    H265036   4.204   2.829   1.612 -0.2475 -1.2144  2.6045
14541TIP3   OH265037   3.856   2.856   3.354  0.3763 -0.3574  0.3018
14541TIP3    H165038   3.777   2.802   3.362  0.9548 -1.1301  0.7641
14541TIP3    H265039   3.887   2.840   3.265 -0.2655  0.3455 -0.0631
14542TIP3   OH265040   2.904   1.282   3.908  0.3308 -0.1596 -0.1990
14542TIP3    H165041   2.839   1.246   3.968 -1.6014  2.3311 -0.7196
14542TIP3    H265042   2.870   1.265   3.821  0.3286  1.1875 -0.4778
14543TIP3   OH265043   2.320   0.866   1.840  0.3465  0.2575  0.2083
14543TIP3    H165044   2.412   0.852   1.815 -0.0421  1.2841 -1.8842
14543TIP3    H265045   2.323   0.884   1.934  2.5736  2.6422 -0.2567
14544TIP3   OH265046   3.947   0.581   0.785 -0.1970  0.4341 -0.3143
14544TIP3    H165047   3.865   0.593   0.833 -1.6519 -0.3834 -2.5154
14544TIP3    H265048   3.967   0.667   0.749 -0.9836  0.2806 -1.1339
14545TIP3   OH265049   3.263   3.006   0.896 -0.5458  0.1959  0.4469
14545TIP3    H165050   3.185   3.032   0.848 -0.9759 -0.0573  1.0046
14545TIP3    H265051   3.284   3.082   0.951  0.3634  0.7578 -0.6604
14546TIP3   OH265052   6.831   3.471   0.822 -0.3418 -0.2191 -0.3006
14546TIP3    H165053   6.921   3.503   0.814 -1.2236  1.8148 -2.6169
14546TIP3    H265054   6.812   3.478   0.915  2.5102 -2.5460  0.5607
14547TIP3   OH265055   4.644   2.224   2.827  0.0884 -0.0320 -0.2997
14547TIP3    H165056   4.663   2.279   2.751  0.4266 -1.4831 -1.2846
14547TIP3    H265057   4.666   2.136   2.799  0.1150 -0.6038  1.4662
14548TIP3   OH265058   6.380   6.467   3.907  0.6200 -0.4026  0.0686
14548TIP3    H165059   6.320   6.414   3.855 -0.4427  1.7823 -0.9550
14548TIP3    H265060   6.467   6.447   3.871  0.5411 -3.3389  1.3633
14549TIP3   OH265061   2.769   1.534   2.144  0.1161 -0.4925 -0.1389
14549TIP3    H165062   2.818   1.473   2.200 -1.1958 -1.7469 -0.3111
14549TIP3    H265063   2.836   1.589   2.104  1.2703 -1.2290  0.7370
14550TIP3   OH265064   2.335   6.377   4.306  0.4560  0.1694 -0.2113
14550TIP3    H165065   2.400   6.441   4.278  3.0428 -2.1830  0.2813
14550TIP3    H265066   2.263   6.387   4.244  1.5177  2.4102 -1.1119
14551TIP3   OH265067   1.643   1.183   1.495  0.4737 -0.2358  0.0292
14551TIP3    H165068   1.714   1.124   1.521  2.0395  0.9876 -1.3448
14551TIP3    H265069   1.638   1.247   1.567 -0.4861 -1.3668  0.9903
14552TIP3   OH265070   6.646   6.387   3.867 -0.2820 -0.0053 -0.3096
14552TIP3    H165071   6.693   6.455   3.916  1.7182 -0.3365 -1.6751
14552TIP3    H265072   6.697   6.377   3.786 -1.3681 -2.0948 -0.7696
14553TIP3   OH265073   6.048   7.081  13.723  0.3047  0.1149 -0.3301
14553TIP3    H165074   6.098   7.110  13.647 -2.3914  0.7854 -1.8747
14553TIP3    H265075   5.957   7.093  13.699 -0.6298 -0.0669  2.8595
14554TIP3   OH265076   1.789   1.144  14.763  0.3466  0.5996 -0.2417
14554TIP3    H165077   1.742   1.188  14.692 -1.0982 -0.5150 -0.0006
14554TIP3    H265078   1.826   1.065  14.723 -2.9220 -1.5823  0.8088
14555TIP3   OH265079   5.910   6.300   5.068 -0.4025  0.0761  0.2738
14555TIP3    H165080   5.965   6.309   5.146 -1.4044  0.5267  0.9376
14555TIP3    H265081   5.905   6.388   5.031 -1.6230  0.2626  0.8683
14556TIP3   OH265082   2.129   2.707   6.039 -0.2982  0.5090  0.2374
14556TIP3    H165083   2.157   2.642   5.975  0.0446  1.4279 -0.5464
14556TIP3    H265084   2.141   2.663   6.124 -3.5081 -1.7927 -0.3990
14557TIP3   OH265085   0.758   1.641  14.691 -0.0430 -0.3973  0.0715
14557TIP3    H165086   0.746   1.715  14.632  0.3694 -0.4587 -0.0900
14557TIP3    H265087   0.669   1.618  14.719 -0.2736 -0.5870 -0.7862
14558TIP3   OH265088   2.312   6.694   3.081  0.1552 -0.4605  0.1224
14558TIP3    H165089   2.293   6.752   3.155 -1.9709 -0.2353 -0.5481
14558TIP3    H265090   2.318   6.607   3.120  0.3864 -0.1685  0.7494
14559TIP3   OH265091   3.124   6.990   5.005  0.2352 -0.2848 -0.0247
14559TIP3    H165092   3.195   7.010   5.065 -0.3145  0.0618  0.5122
14559TIP3    H265093   3.068   7.068   5.006  0.4392 -0.0985 -1.3014
14560TIP3   OH265094   0.750   3.490   3.223  0.1973  0.0685 -0.0186
14560TIP3    H165095   0.799   3.527   3.150  0.7964  2.1570  1.4276
14560TIP3    H265096   0.814   3.479   3.293 -1.0478  1.3374  1.3614
14561TIP3   OH265097   2.859   4.566   4.666 -0.3135  0.3132 -1.1031
14561TIP3    H165098   2.857   4.532   4.755 -0.6318  0.9976 -0.8429
14561TIP3    H265099   2.780   4.529   4.625 -1.9795  2.6307 -0.0944
14562TIP3   OH265100   6.131   0.684  12.692 -0.3468 -0.0073 -0.4033
14562TIP3    H165101   6.198   0.752  12.679  4.0020 -4.3433 -2.3149
14562TIP3    H265102   6.095   0.670  12.605 -1.0174 -0.3642 -0.0666
14563TIP3   OH265103   6.052   6.754   3.442  0.3074 -0.3513  0.0564
14563TIP3    H165104   5.975   6.782   3.490 -0.9829  0.0542 -2.1709
14563TIP3    H265105   6.101   6.835   3.425  0.9983 -0.5502  1.0729
14564TIP3   OH265106   5.208   0.685   3.735 -0.1253 -0.4665 -0.1262
14564TIP3    H165107   5.217   0.593   3.713  0.0727 -0.6960  0.9212
14564TIP3    H265108   5.163   0.686   3.819  0.9438  0.3526  0.4535
14565TIP3   OH265109   5.091   6.721   0.420 -0.3887  0.1112  0.2135
14565TIP3    H165110   5.152   6.669   0.367 -2.0474 -0.2623 -1.4033
14565TIP3    H265111   5.131   6.807   0.424  0.5411 -0.2784 -0.3295
14566TIP3   OH265112   4.440   6.373   2.974  0.1321 -0.7469  0.5743
14566TIP3    H165113   4.534   6.353   2.975  0.0449 -1.1464  1.2343
14566TIP3    H265114   4.417   6.378   3.067 -0.7384 -1.7383  0.4130
14567TIP3   OH265115   4.387   5.118   4.759  0.4533 -0.6215 -0.0281
14567TIP3    H165116   4.420   5.029   4.768  1.3102 -0.1546  1.5216
14567TIP3    H265117   4.422   5.165   4.835 -1.4436  0.5849  0.1467
14568TIP3   OH265118   4.480   0.932   1.615 -0.1488  1.0547 -0.1184
14568TIP3    H165119   4.427   0.873   1.668  0.8970  0.3334  0.1468
14568TIP3    H265120   4.486   1.013   1.667 -3.8043  2.4025 -1.6665
14569TIP3   OH265121   6.887   4.990   0.342  0.4285 -0.0427 -0.2573
14569TIP3    H165122   6.932   5.065   0.303  0.7803  1.1545  2.3478
14569TIP3    H265123   6.946   4.959   0.409 -1.4539 -0.1337  1.4080
14570TIP3   OH265124   0.124   2.097   3.682  0.2944  0.6240 -0.7697
14570TIP3    H165125   0.174   2.104   3.600  2.1075 -0.7068  0.1726
14570TIP3    H265126   0.044   2.051   3.658  0.8939  0.0966 -1.7695
14571TIP3   OH265127   2.641   2.815   4.146 -0.0008  0.1352  0.1311
14571TIP3    H165128   2.690   2.880   4.196 -0.0411  1.7171 -1.8587
14571TIP3    H265129   2.558   2.806   4.192  0.7823 -0.0147  1.5459
14572TIP3   OH265130   2.139   4.569   1.976 -0.0809  0.2868 -0.0361
14572TIP3    H165131   2.184   4.502   2.028 -0.4469 -0.4958 -0.7046
14572TIP3    H265132   2.183   4.651   1.998  0.1268 -0.1212  1.0799
14573TIP3   OH265133   0.922   3.323   5.442 -0.3426 -0.1789  0.3396
14573TIP3    H165134   0.893   3.245   5.489 -0.2082 -0.9475 -0.8400
14573TIP3    H265135   1.015   3.330   5.462 -0.5290  0.1537  1.1056
14574TIP3   OH265136   2.795   6.718   0.131  0.2286 -0.0713 -0.5542
14574TIP3    H165137   2.838   6.801   0.112  0.0430  0.5320  1.5593
14574TIP3    H265138   2.703   6.733   0.113 -0.0612  0.7387  1.5169
14575TIP3   OH265139   1.015   2.659   1.721  0.3197  0.1598 -0.5900
14575TIP3    H165140   0.932   2.621   1.691 -0.2568 -1.8547  3.2975
14575TIP3    H265141   1.082   2.605   1.679 -0.3920 -0.7491 -0.5717
14576TIP3   OH265142   1.221   6.328  15.007 -0.1579 -0.1946 -0.5484
14576TIP3    H165143   1.137   6.355  14.970 -0.8100 -1.9283 -0.3541
14576TIP3    H265144   1.222   6.367  15.095 -0.7781 -0.2277 -0.5272
14577TIP3   OH265145   2.531   4.535   2.716 -0.1034 -0.1218 -0.3094
14577TIP3    H165146   2.619   4.553   2.682  0.7901 -2.2584  0.7226
14577TIP3    H265147   2.537   4.556   2.809 -0.2878 -1.4736  0.0215
14578TIP3   OH265148   1.016   5.871   3.737 -0.5266  0.7961  0.4015
14578TIP3    H165149   1.065   5.939   3.783 -0.3581 -0.2376  1.7859
14578TIP3    H265150   1.033   5.791   3.787 -0.7723 -0.2644 -1.1485
14579TIP3   OH265151   2.572   5.357   4.155 -0.2668 -0.1672  0.6520
14579TIP3    H165152   2.654   5.402   4.175 -1.3847  1.2654  2.1883
14579TIP3    H265153   2.553   5.305   4.233 -2.0183  1.4031  1.3192
14580TIP3   OH265154   7.115   2.575   4.278  0.0903 -0.0901  0.4013
14580TIP3    H165155   7.152   2.507   4.335  0.0875 -0.6029 -0.2063
14580TIP3    H265156   7.021   2.574   4.298 -0.1191 -1.2233 -0.6004
14581TIP3   OH265157   3.681   0.924   1.333  0.1890 -0.2868 -0.2930
14581TIP3    H165158   3.610   0.907   1.395 -0.3404 -0.6711 -1.0025
14581TIP3    H265159   3.761   0.922   1.387 -0.3242  0.0915  0.4960
14582TIP3   OH265160   0.535   3.406   3.398 -0.3861 -0.5760  0.2393
14582TIP3    H165161   0.631   3.402   3.400 -0.3801 -0.7856 -0.2868
14582TIP3    H265162   0.511   3.360   3.318 -0.7055  3.0958 -1.9178
14583TIP3   OH265163   5.196   2.033   3.283  0.3961 -0.4608  0.4222
14583TIP3    H165164   5.126   2.073   3.335  2.2071 -0.8664  3.3138
14583TIP3    H265165   5.251   2.107   3.256  0.2135 -0.3808  0.2705
14584TIP3   OH265166   0.500   0.810   4.884 -0.7577  0.0279  0.1720
14584TIP3    H165167   0.435   0.876   4.857  0.8739  1.9024  0.6996
14584TIP3    H265168   0.571   0.861   4.923  1.0506 -1.9738 -0.3985
14585TIP3   OH265169   3.069   3.671   4.012  0.2848 -0.9132  0.0157
14585TIP3    H165170   3.087   3.616   4.089  0.7957 -0.7955 -0.0202
14585TIP3    H265171   3.036   3.610   3.947  2.5246 -1.4760 -0.6223
14586TIP3   OH265172   6.213   3.003   1.862  0.2018  0.0424 -0.3934
14586TIP3    H165173   6.130   3.044   1.838  1.1360  2.4799  0.3097
14586TIP3    H265174   6.200   2.974   1.952 -0.1286 -0.2487 -0.5350
14587TIP3   OH265175   0.314   6.245   2.419  0.5756 -0.4055 -0.1303
14587TIP3    H165176   0.305   6.249   2.514 -0.9244  3.9305 -0.3465
14587TIP3    H265177   0.224   6.246   2.386  1.0961  0.4334 -1.5754
14588TIP3   OH265178   6.848   4.621   1.604 -0.1398  0.1204  0.2338
14588TIP3    H165179   6.885   4.665   1.527  0.4778 -1.1381 -0.2096
14588TIP3    H265180   6.838   4.690   1.669  1.3371  0.8140 -0.2605
14589TIP3   OH265181   6.512   1.904   4.174 -0.3786 -0.0461  0.0146
14589TIP3    H165182   6.433   1.913   4.227 -0.5815 -0.8529 -0.1448
14589TIP3    H265183   6.567   1.843   4.224  0.2193  0.6530  0.2145
14590TIP3   OH265184   5.979   2.387   5.484 -0.0433 -0.0225  0.3777
14590TIP3    H165185   6.020   2.425   5.562 -0.6239  0.3067  0.5262
14590TIP3    H265186   5.930   2.312   5.517 -1.8008  1.1917  0.6224
14591TIP3   OH265187   1.854   5.747   3.746 -0.2441  0.3894 -0.5848
14591TIP3    H165188   1.877   5.658   3.773 -0.4565  0.7093  0.6513
14591TIP3    H265189   1.937   5.786   3.719  0.2814  0.6980  1.4311
14592TIP3   OH265190   0.480   3.587   2.097  0.3472 -0.2647  0.4032
14592TIP3    H165191   0.493   3.498   2.063  2.3927  0.1029  0.1360
14592TIP3    H265192   0.429   3.631   2.030  1.2447 -0.6018 -0.5132
14593TIP3   OH265193   3.585   3.596   2.892 -0.2383  0.0759  0.9768
14593TIP3    H165194   3.545   3.515   2.925  0.4126 -0.6672 -0.0363
14593TIP3    H265195   3.658   3.613   2.952  1.4067 -1.6826 -0.4915
14594TIP3   OH265196   1.915   4.860   5.814  0.2556  0.1227  0.3561
14594TIP3    H165197   1.825   4.892   5.822  0.0607 -0.5674  0.9265
14594TIP3    H265198   1.906   4.770   5.784  0.7096 -0.4228  1.8290
14595TIP3   OH265199   4.107   3.736   1.468 -0.0366  0.4069 -0.0072
14595TIP3    H165200   4.183   3.753   1.523  0.5705 -2.5088  0.1196
14595TIP3    H265201   4.143   3.703   1.386 -1.0659  2.0341 -1.1588
14596TIP3   OH265202   4.614   3.626   4.750  0.2341  0.3210 -0.1581
14596TIP3    H165203   4.541   3.679   4.716 -0.4652  0.1023  0.9899
14596TIP3    H265204   4.615   3.549   4.692  0.3279  0.8923 -0.9251
14597TIP3   OH265205   1.691   0.485   4.267  0.2436 -0.5564 -0.1659
14597TIP3    H165206   1.706   0.391   4.281  0.5494 -0.2600  1.6712
14597TIP3    H265207   1.778   0.522   4.255  0.1052 -0.5348 -1.1349
14598TIP3   OH265208   2.966   1.553   4.029  0.1146 -0.0192 -0.0568
14598TIP3    H165209   2.894   1.597   3.984  1.6097  0.8687 -1.6205
14598TIP3    H265210   2.956   1.461   4.005 -0.4961  0.0976 -0.2618
14599TIP3   OH265211   6.296   1.310   5.168  0.2141 -0.5600 -0.0824
14599TIP3    H165212   6.296   1.280   5.077 -0.2183  1.6979 -0.8538
14599TIP3    H265213   6.203   1.315   5.191  0.2503  1.1668 -0.3053
14600TIP3   OH265214   4.080   4.140   1.660 -0.2139  0.5792  0.3178
14600TIP3    H165215   4.035   4.087   1.594  0.4436 -1.4911  1.4933
14600TIP3    H265216   4.173   4.124   1.646 -0.0329  0.8314  1.1627
14601TIP3   OH265217   4.450   4.409   3.230 -0.9038  0.4850  0.2821
14601TIP3    H165218   4.533   4.363   3.218  0.7691  2.6535  2.8739
14601TIP3    H265219   4.464   4.494   3.187 -1.5115  1.0984  1.2805
14602TIP3   OH265220   2.337   4.270   1.337 -0.2335 -0.0375 -0.0328
14602TIP3    H165221   2.395   4.313   1.401 -0.2850 -1.3370  0.8895
14602TIP3    H265222   2.250   4.275   1.377 -0.2383 -0.9944  0.0894
14603TIP3   OH265223   3.946   1.919   2.407 -0.0376 -0.8243  1.1256
14603TIP3    H165224   3.880   1.974   2.450 -0.3356  0.7763 -1.3078
14603TIP3    H265225   4.017   1.979   2.386  0.0717 -1.5644 -0.6534
14604TIP3   OH265226   2.978   0.891   3.999 -0.2417 -0.3259 -0.1741
14604TIP3    H165227   2.971   0.838   3.919  0.3626 -0.5466 -0.0760
14604TIP3    H265228   3.042   0.959   3.977 -0.7129  0.1344 -0.1618
14605TIP3   OH265229   3.036   2.039   4.307 -0.0832  0.4612 -0.2962
14605TIP3    H165230   2.951   1.997   4.319 -0.5236  0.2553 -3.7713
14605TIP3    H265231   3.086   2.013   4.385 -1.6436 -3.2819 -0.4301
14606TIP3   OH265232   4.684   4.866   1.822  0.8931 -0.9250 -0.2165
14606TIP3    H165233   4.624   4.820   1.880 -0.2472  1.1997  0.3598
14606TIP3    H265234   4.645   4.856   1.735 -1.3619  1.9037  0.3657
14607TIP3   OH265235   3.040   0.284   5.537 -1.1003  0.0926  0.5273
14607TIP3    H165236   3.073   0.293   5.626 -1.7329 -0.6285  0.8437
14607TIP3    H265237   2.944   0.281   5.547 -1.1793  0.1980 -0.1856
14608TIP3   OH265238   4.201   3.970   4.054 -0.0809  0.2373  0.0224
14608TIP3    H165239   4.253   3.972   4.134 -0.8395  0.9732  0.5023
14608TIP3    H265240   4.121   4.018   4.075 -0.7216 -0.4067 -0.8774
14609TIP3   OH265241   1.858   6.205   3.039  0.0548  0.2330 -0.1264
14609TIP3    H165242   1.898   6.140   3.097  1.9235  0.8894 -0.6282
14609TIP3    H265243   1.886   6.178   2.951 -1.9022 -0.1703 -0.6377
14610TIP3   OH265244   5.121   5.561  13.616  0.1058  0.0593  0.2538
14610TIP3    H165245   5.071   5.641  13.631  2.3033  1.4791  0.2139
14610TIP3    H265246   5.065   5.491  13.649 -1.1225  1.7894  1.9367
14611TIP3   OH265247   2.091   6.247   2.052 -0.7472 -0.1985  0.2374
14611TIP3    H165248   2.135   6.330   2.038 -0.8059 -0.2236 -0.0928
14611TIP3    H265249   2.103   6.199   1.970 -0.9493 -0.4066  0.3289
14612TIP3   OH265250   0.278   0.409   2.832  0.4138 -0.0119  0.2004
14612TIP3    H165251   0.234   0.430   2.750  0.7447  1.9466  0.4988
14612TIP3    H265252   0.214   0.427   2.900  0.4607 -0.6966  0.4296
14613TIP3   OH265253   4.211   6.276   3.924  0.0812  0.1999 -0.3811
14613TIP3    H165254   4.264   6.200   3.949  0.1173  0.2880 -0.1920
14613TIP3    H265255   4.146   6.284   3.994  0.1302  0.3961 -0.3591
14614TIP3   OH265256   3.860   3.168   4.771 -0.6733 -0.2592 -0.0085
14614TIP3    H165257   3.786   3.135   4.822 -0.3798 -0.0308  0.5679
14614TIP3    H265258   3.822   3.235   4.714 -1.0961 -0.8932 -0.4840
14615TIP3   OH265259   2.393   0.930   2.083  1.5272 -0.6118 -0.4064
14615TIP3    H165260   2.410   0.836   2.084 -2.1798 -1.3209  0.1838
14615TIP3    H265261   2.407   0.958   2.174  0.2776 -1.0420 -0.0813
14616TIP3   OH265262   4.567   4.253   0.571  0.5936 -0.4685 -0.5636
14616TIP3    H165263   4.543   4.287   0.485  0.7653 -0.1189 -0.4716
14616TIP3    H265264   4.589   4.161   0.554  1.7064 -0.1124 -1.0790
14617TIP3   OH265265   2.732   3.044   4.870  0.1700 -0.6324 -0.2389
14617TIP3    H165266   2.687   3.011   4.948 -0.2666 -1.8620 -0.9916
14617TIP3    H265267   2.807   3.092   4.904  0.0353 -1.2463  0.9408
14618TIP3   OH265268   6.989   3.165   5.092 -0.3297 -0.3766 -0.2424
14618TIP3    H165269   6.907   3.129   5.056 -0.5512  0.1890 -0.3167
14618TIP3    H265270   7.004   3.245   5.041  0.4453 -0.6475 -0.4506
14619TIP3   OH265271   4.842   4.539  14.371  0.5514  0.2825  0.3760
14619TIP3    H165272   4.870   4.448  14.360  0.9922  0.2777  1.5143
14619TIP3    H265273   4.866   4.561  14.460  0.5412  1.5647  0.0702
14620TIP3   OH265274   3.824   1.073   2.881  0.4385  0.0484 -0.1841
14620TIP3    H165275   3.750   1.080   2.821  0.6374 -1.1674 -0.5798
14620TIP3    H265276   3.890   1.134   2.846 -0.0881  0.5874 -0.2404
14621TIP3   OH265277   3.649   3.019   4.973  0.2483  0.1403 -0.0612
14621TIP3    H165278   3.573   3.000   5.027 -0.5333 -1.0065 -1.5311
14621TIP3    H265279   3.656   2.944   4.914  1.9741  0.6613 -0.5454
14622TIP3   OH265280   4.359   6.515   0.310  0.5795 -0.1795 -0.1470
14622TIP3    H165281   4.302   6.473   0.374 -0.0655  0.3247 -0.3847
14622TIP3    H265282   4.371   6.604   0.343  1.7931 -0.4753  0.2605
14623TIP3   OH265283   0.939   2.596   3.631 -0.0928  0.3176 -0.3273
14623TIP3    H165284   0.886   2.608   3.710 -1.1159  0.3986 -1.0198
14623TIP3    H265285   0.995   2.522   3.651  0.6544  1.2125  1.0050
14624TIP3   OH265286   3.898   0.385   2.922 -0.1262 -0.0291 -0.4078
14624TIP3    H165287   3.908   0.416   3.012  1.5021 -1.7537  0.0455
14624TIP3    H265288   3.985   0.397   2.883 -0.6526  0.0964 -1.5552
14625TIP3   OH265289   4.935   1.712   1.651  0.3800  0.4534 -0.2971
14625TIP3    H165290   4.931   1.756   1.566 -1.7135 -2.7483 -1.9681
14625TIP3    H265291   4.909   1.779   1.714 -1.6007  1.9553 -2.6010
14626TIP3   OH265292   3.691   3.970   4.082 -0.0279 -0.3626  0.3706
14626TIP3    H165293   3.617   3.942   4.028 -0.2536 -0.1804  0.5853
14626TIP3    H265294   3.696   3.905   4.153 -1.4109  0.9002  1.6485
14627TIP3   OH265295   4.685   4.511   2.986 -0.3914 -0.1277  0.3637
14627TIP3    H165296   4.664   4.481   3.075 -2.5312  3.3497  1.1475
14627TIP3    H265297   4.609   4.485   2.934 -0.8298  1.0726  0.3854
14628TIP3   OH265298   2.818   0.312   4.438 -0.2498  0.2529  0.3920
14628TIP3    H165299   2.801   0.267   4.520  1.3949 -1.7725 -0.3187
14628TIP3    H265300   2.907   0.347   4.448 -0.3388  0.6690 -0.2329
14629TIP3   OH265301   1.729   5.340   5.714 -0.5423 -0.1879 -0.9675
14629TIP3    H165302   1.723   5.246   5.702 -1.4651 -0.3890  0.8610
14629TIP3    H265303   1.638   5.371   5.706 -0.5247  0.2669  0.5142
14630TIP3   OH265304   2.988   2.802   5.666  0.2233 -0.1312  0.1609
14630TIP3    H165305   2.985   2.877   5.607 -1.8833  0.3752  0.8361
14630TIP3    H265306   3.077   2.801   5.700  0.6396  1.2810 -0.8446
14631TIP3   OH265307   2.633   2.899   4.680 -0.1929 -0.1791  0.3728
14631TIP3    H165308   2.632   2.960   4.753 -0.2961 -0.1314  0.3317
14631TIP3    H265309   2.720   2.859   4.683  0.0230  0.2692  0.1527
14632TIP3   OH265310   4.075   3.101   2.199  0.1436  0.1573 -0.4969
14632TIP3    H165311   4.134   3.101   2.123 -0.6959 -0.9213 -1.1618
14632TIP3    H265312   4.126   3.143   2.268  1.7611 -0.8470 -1.0259
14633TIP3   OH265313   3.577   6.820   0.920  0.8460 -0.0549 -0.2855
14633TIP3    H165314   3.499   6.814   0.866  2.1400 -1.2229 -2.0515
14633TIP3    H265315   3.646   6.850   0.861  1.8583  0.5003  1.1386
14634TIP3   OH265316   1.932   3.136   2.389  0.0356  0.2201 -0.2696
14634TIP3    H165317   1.924   3.080   2.311 -0.0024  0.4908 -0.4617
14634TIP3    H265318   1.984   3.211   2.359 -1.2734  1.0759 -0.4395
14635TIP3   OH265319   4.820   5.069  14.157 -0.2894  0.1882  0.0884
14635TIP3    H165320   4.725   5.068  14.164 -0.3240  1.4475 -0.1186
14635TIP3    H265321   4.849   4.996  14.212 -1.4662 -1.4862 -1.4441
14636TIP3   OH265322   5.935   6.390   1.968 -0.3668  0.0723 -0.5638
14636TIP3    H165323   6.011   6.335   1.989  0.3572  1.6690  1.1084
14636TIP3    H265324   5.860   6.333   1.982  0.3543 -0.3606  1.6604
14637TIP3   OH265325   4.131   5.010   2.323 -0.2587  0.1678 -0.8099
14637TIP3    H165326   4.119   4.956   2.245  1.9460  0.7075 -1.5669
14637TIP3    H265327   4.129   4.948   2.396 -1.6327 -0.4247 -1.3304
14638TIP3   OH265328   5.492   2.253   3.511 -0.4719  0.1496 -0.3695
14638TIP3    H165329   5.526   2.164   3.505  2.4221  1.2065 -0.2670
14638TIP3    H265330   5.543   2.303   3.447  1.0932  2.6495  2.7005
14639TIP3   OH265331   2.452   4.554   5.693 -0.1865  0.1694  0.3871
14639TIP3    H165332   2.394   4.626   5.672  1.3414  1.4503  0.4806
14639TIP3    H265333   2.526   4.594   5.739  1.2771 -1.2542 -0.6270
14640TIP3   OH265334   0.552   3.537   4.736 -0.0399  1.4711 -0.1012
14640TIP3    H165335   0.462   3.515   4.712 -0.9343  2.7181  1.9334
14640TIP3    H265336   0.595   3.452   4.744 -1.3013  0.8023 -0.1937
14641TIP3   OH265337   1.502   3.750  14.992 -0.1082 -0.2147  0.2927
14641TIP3    H165338   1.445   3.820  15.026 -0.0010  0.1578 -0.2976
14641TIP3    H265339   1.570   3.740  15.059  1.2269  1.8777 -0.7291
14642TIP3   OH265340   3.172   5.994   4.406 -0.2440 -0.0181 -0.0814
14642TIP3    H165341   3.228   5.917   4.413 -0.6559 -0.2696  0.4350
14642TIP3    H265342   3.233   6.068   4.407 -0.0345 -0.2102  2.3864
14643TIP3   OH265343   2.591   6.767   1.791 -0.3467  0.0364  0.3066
14643TIP3    H165344   2.641   6.741   1.869  0.8040  1.6900  0.1582
14643TIP3    H265345   2.584   6.863   1.798 -3.5332 -0.1430  0.3101
14644TIP3   OH265346   4.738   2.026   5.548  0.0561  0.2985  0.5200
14644TIP3    H165347   4.754   2.088   5.619 -0.4820  0.8726  0.1465
14644TIP3    H265348   4.660   1.978   5.575  0.5383 -0.2902  0.8598
14645TIP3   OH265349   6.695   2.330   1.758  0.1725 -0.1464 -0.6723
14645TIP3    H165350   6.769   2.278   1.791 -1.2740 -2.6933 -1.3741
14645TIP3    H265351   6.698   2.319   1.663 -1.7029 -1.1438 -0.6440
14646TIP3   OH265352   2.330   0.967   0.152  0.0100  0.2549 -0.1579
14646TIP3    H165353   2.320   1.008   0.066 -0.6910  1.3247  0.4263
14646TIP3    H265354   2.264   1.010   0.207  0.5128 -0.3590  0.9375
14647TIP3   OH265355   2.138   3.594   3.237 -0.3055  0.3228  0.4073
14647TIP3    H165356   2.116   3.632   3.322  0.5587 -0.2509  0.8990
14647TIP3    H265357   2.143   3.669   3.177 -1.3294  0.6862  0.7609
14648TIP3   OH265358   0.797   2.886   1.239  0.0034  0.6028  0.0022
14648TIP3    H165359   0.833   2.839   1.315 -0.9753  0.0891  0.1556
14648TIP3    H265360   0.857   2.960   1.227  1.3032 -0.4099  0.0477
14649TIP3   OH265361   6.689   1.689   1.877 -0.3746 -0.5317  0.4430
14649TIP3    H165362   6.730   1.698   1.791  0.4417  1.0687  0.9888
14649TIP3    H265363   6.682   1.594   1.890  1.3989 -0.8004 -0.4861
14650TIP3   OH265364   1.475   5.818   1.086 -0.2042 -0.0122 -0.3042
14650TIP3    H165365   1.558   5.865   1.075 -0.6208  0.4669 -1.4716
14650TIP3    H265366   1.475   5.751   1.018 -0.7712 -0.0100 -0.3133
14651TIP3   OH265367   0.850   3.037   4.265 -1.0032 -0.3806 -0.1730
14651TIP3    H165368   0.900   3.091   4.204 -1.0620 -0.8873 -0.6742
14651TIP3    H265369   0.762   3.034   4.228 -0.8115 -1.4327 -0.5397
14652TIP3   OH265370   2.367   3.411   3.871  0.3484 -0.0248 -0.6462
14652TIP3    H165371   2.301   3.406   3.939  0.2990 -0.0122 -0.6932
14652TIP3    H265372   2.419   3.331   3.881  0.5311  0.1237 -0.3981
14653TIP3   OH265373   2.737   3.485   2.001 -0.3790  0.4146 -0.2791
14653TIP3    H165374   2.686   3.495   2.082  1.1439  2.1010  0.5043
14653TIP3    H265375   2.671   3.488   1.932 -1.7045 -1.0720  0.8887
14654TIP3   OH265376   6.318   0.016   4.825 -0.3630  0.5801 -0.1938
14654TIP3    H165377   6.371   0.095   4.833  0.1965  0.2232 -0.3089
14654TIP3    H265378   6.304   0.005   4.731 -0.1511  0.3594 -0.2024
14655TIP3   OH265379   4.251   4.742  14.355 -0.0720  0.7417  0.1331
14655TIP3    H165380   4.329   4.689  14.374  0.4785  1.2833 -0.6042
14655TIP3    H265381   4.219   4.769  14.442  0.4758  0.4011  0.4437
14656TIP3   OH265382   1.229   4.139   1.717  0.1205 -1.1086  0.4825
14656TIP3    H165383   1.152   4.119   1.771 -0.5464  0.2093  0.0418
14656TIP3    H265384   1.304   4.123   1.775 -0.5507 -0.7036  1.4817
14657TIP3   OH265385   0.908   0.692   5.162  0.3696  0.7082 -0.0195
14657TIP3    H165386   0.966   0.760   5.129 -0.0640  1.0720 -0.0345
14657TIP3    H265387   0.857   0.735   5.230 -0.2383  0.5196 -0.3559
14658TIP3   OH265388   2.615   6.035   2.022  0.4727  0.4943 -0.0113
14658TIP3    H165389   2.583   6.031   1.932 -0.2329  0.6369  0.2323
14658TIP3    H265390   2.622   5.943   2.049  0.5959  0.4545 -0.1771
14659TIP3   OH265391   1.877   7.047   5.185 -0.0565  0.3304  0.8744
14659TIP3    H165392   1.826   7.112   5.233 -0.6391  0.3023  0.2978
14659TIP3    H265393   1.968   7.066   5.208 -0.2083  1.4388  0.5811
14660TIP3   OH265394   0.672   1.043   5.046  1.0638 -0.6038  0.2468
14660TIP3    H165395   0.614   1.044   5.122  1.0243 -2.0798  0.2439
14660TIP3    H265396   0.746   1.098   5.072  1.9015 -2.5389  2.0218
14661TIP3   OH265397   6.061   3.757   1.021 -0.1458  0.1662  0.2924
14661TIP3    H165398   6.140   3.812   1.019 -1.0282  1.4494 -0.3829
14661TIP3    H265399   6.083   3.684   1.078  0.6931  1.7994  2.0936
14662TIP3   OH265400   0.617   1.364   1.341  0.6327 -0.1614  0.1970
14662TIP3    H165401   0.605   1.269   1.350  0.3973 -0.1227  0.2913
14662TIP3    H265402   0.584   1.401   1.423  1.5622 -0.0618  0.5277
14663TIP3   OH265403   1.942   4.240   2.315 -0.5659 -0.0016 -0.4108
14663TIP3    H165404   1.895   4.274   2.239  0.1054 -0.6825 -1.1364
14663TIP3    H265405   1.899   4.157   2.334  0.2919 -0.5960 -1.0364
14664TIP3   OH265406   3.748   4.867  15.034 -0.6439 -0.5325  0.0371
14664TIP3    H165407   3.704   4.948  15.061  0.8486  0.7965 -1.3856
14664TIP3    H265408   3.690   4.797  15.064 -1.7888  1.0451  1.6198
14665TIP3   OH265409   7.087   3.506   2.562 -0.0701 -0.3786 -0.3234
14665TIP3    H165410   7.167   3.534   2.518  0.3454  0.5297  0.9933
14665TIP3    H265411   7.067   3.421   2.522  1.9511 -0.9617 -0.1697
14666TIP3   OH265412   1.616   3.122   5.142  0.2657  0.1606 -0.0147
14666TIP3    H165413   1.672   3.050   5.171  0.1801 -0.1103 -0.5143
14666TIP3    H265414   1.585   3.162   5.223 -0.1304 -0.7215  0.2787
14667TIP3   OH265415   3.876   3.306   5.448  0.4200 -0.4527 -0.2846
14667TIP3    H165416   3.854   3.309   5.541 -0.2487  1.2773 -0.4762
14667TIP3    H265417   3.823   3.235   5.413  1.5669 -1.9038  0.8702
14668TIP3   OH265418   7.120   6.676   4.677  0.4918 -0.0651 -0.6240
14668TIP3    H165419   7.196   6.727   4.650 -0.3390  0.5679 -1.8404
14668TIP3    H265420   7.094   6.712   4.761  1.2385  0.0421 -0.4401
14669TIP3   OH265421   1.548   5.306   2.075  0.3110  0.1081  0.4076
14669TIP3    H165422   1.512   5.302   1.987  0.1840  1.8977  0.3539
14669TIP3    H265423   1.521   5.224   2.116 -0.6943 -0.1853 -0.8184
14670TIP3   OH265424   5.978   4.474  13.850  0.1043  0.0315  0.4564
14670TIP3    H165425   5.945   4.539  13.911 -0.5805 -0.5639  0.7213
14670TIP3    H265426   5.984   4.520  13.766 -0.2135  0.4778  0.6835
14671TIP3   OH265427   7.136   4.293   3.814 -0.0044  0.4076  0.3148
14671TIP3    H165428   7.202   4.340   3.866  0.4149 -0.4415  0.5606
14671TIP3    H265429   7.182   4.271   3.733  0.0825 -0.3704  0.5730
14672TIP3   OH265430   3.236   1.166   2.757  0.1208  0.3771 -0.3087
14672TIP3    H165431   3.317   1.173   2.706 -1.6294  0.7991 -3.0902
14672TIP3    H265432   3.238   1.076   2.792  2.4046  0.8061  0.7718
14673TIP3   OH265433   5.904   5.602   1.636 -0.2693  0.5486 -0.1509
14673TIP3    H165434   5.816   5.602   1.598 -2.1632 -1.5308  3.9973
14673TIP3    H265435   5.938   5.515   1.616  0.6536  1.1175 -1.1467
14674TIP3   OH265436   1.508   4.810   1.634  0.5672  0.4853 -0.0078
14674TIP3    H165437   1.424   4.855   1.633  0.6673  0.7520  2.1553
14674TIP3    H265438   1.509   4.760   1.552 -1.6245  0.5817 -0.1264
14675TIP3   OH265439   3.485   4.710   0.995  0.5290 -0.4364 -0.3177
14675TIP3    H165440   3.430   4.764   0.938 -0.4914  0.7800  1.7470
14675TIP3    H265441   3.571   4.750   0.989  0.0713  0.6405  0.1947
14676TIP3   OH265442   5.416   6.476   4.946  0.3893 -0.4078 -0.0826
14676TIP3    H165443   5.494   6.523   4.978 -1.1253  2.1668 -0.0687
14676TIP3    H265444   5.347   6.542   4.945 -2.0683 -2.8646  0.8049
14677TIP3   OH265445   3.282   1.488   5.412 -0.6251  0.6222 -0.0334
14677TIP3    H165446   3.256   1.446   5.493  2.8369 -2.0267 -0.2080
14677TIP3    H265447   3.229   1.446   5.344  0.6480 -1.3972  0.1821
14678TIP3   OH265448   2.615   0.301   3.167  0.7481  0.0340 -0.1515
14678TIP3    H165449   2.642   0.284   3.257  1.5948 -0.6956 -0.5424
14678TIP3    H265450   2.522   0.278   3.165  0.9274 -0.7446  0.3265
14679TIP3   OH265451   4.303   0.588   4.495  0.3722 -0.2114 -0.2964
14679TIP3    H165452   4.365   0.580   4.422  0.6819  1.3657 -0.2246
14679TIP3    H265453   4.324   0.513   4.551 -0.6563 -2.1299 -2.3799
14680TIP3   OH265454   3.470   4.099  15.059  0.1009  0.2142 -0.3749
14680TIP3    H165455   3.378   4.125  15.071 -0.1582 -1.2482  1.0520
14680TIP3    H265456   3.520   4.172  15.095 -0.5012  0.9426 -1.0028
14681TIP3   OH265457   0.268   4.470   4.505  0.2384 -0.0431 -0.2273
14681TIP3    H165458   0.334   4.400   4.508  2.0186  1.6292  0.8244
14681TIP3    H265459   0.257   4.497   4.596 -0.6490  0.8405 -0.5864
14682TIP3   OH265460   0.643   0.012   4.776 -0.0627 -0.4560 -0.2802
14682TIP3    H165461   0.719  -0.009   4.830 -0.5262 -0.6604  0.2965
14682TIP3    H265462   0.665   0.096   4.735 -0.2235  0.3158  1.1903
14683TIP3   OH265463   2.207   2.961   3.028 -0.2955 -0.4145 -0.2316
14683TIP3    H165464   2.152   2.884   3.042 -0.0103 -0.5771 -0.0076
14683TIP3    H265465   2.246   2.979   3.113 -1.4166  0.7972  0.0506
14684TIP3   OH265466   4.546   5.250   4.958 -0.1976 -0.5679 -0.5564
14684TIP3    H165467   4.639   5.261   4.976 -0.3287 -0.6093  0.1538
14684TIP3    H265468   4.510   5.213   5.039 -0.6216 -1.6235 -1.2142
14685TIP3   OH265469   2.953   3.711   2.799  0.2505  0.1723  0.0392
14685TIP3    H165470   2.980   3.775   2.732 -0.0332 -0.8955 -1.1208
14685TIP3    H265471   3.026   3.650   2.804  0.2080  0.1711  0.6075
14686TIP3   OH265472   3.462   4.089  15.457  0.1389 -0.3728 -0.3283
14686TIP3    H165473   3.543   4.132  15.485 -1.2791  2.0694  0.1403
14686TIP3    H265474   3.419   4.064  15.539 -1.2536  1.5599 -0.4439
14687TIP3   OH265475   4.989   0.667   3.390  0.5784 -0.9346 -0.2460
14687TIP3    H165476   4.896   0.652   3.374  0.2305  0.4653  0.3606
14687TIP3    H265477   5.032   0.644   3.308 -0.5661  0.7139 -1.3561
14688TIP3   OH265478   2.968   0.967   2.136 -0.3112 -0.0564 -0.0712
14688TIP3    H165479   3.014   0.984   2.218 -0.9783  1.1946  0.0581
14688TIP3    H265480   3.016   1.017   2.070  0.7829 -1.7974 -0.6364
14689TIP3   OH265481   1.150   4.632   3.358  0.0565 -0.0136 -0.4245
14689TIP3    H165482   1.181   4.605   3.272  0.2766 -2.2700  0.3222
14689TIP3    H265483   1.114   4.552   3.397  1.7988  0.4439  2.3304
14690TIP3   OH265484   1.873   3.052   3.118  0.0961  0.2436 -0.2262
14690TIP3    H165485   1.796   3.033   3.064 -0.2830 -1.3174  0.8445
14690TIP3    H265486   1.922   3.118   3.067 -1.6555  0.8549 -1.1556
14691TIP3   OH265487   3.995   6.979  13.645 -0.1390  0.2889 -0.8929
14691TIP3    H165488   4.089   6.962  13.637 -0.0782  0.5132 -0.6724
14691TIP3    H265489   3.961   6.968  13.556  0.2652  1.1927 -1.1633
14692TIP3   OH265490   6.659   1.519   3.134  0.2343 -0.1137  0.7975
14692TIP3    H165491   6.625   1.592   3.082  1.2120  0.1632  0.5504
14692TIP3    H265492   6.689   1.559   3.215  0.9257 -0.2121  0.5953
14693TIP3   OH265493   5.312   3.349   0.730  0.4866  0.2785 -0.5942
14693TIP3    H165494   5.328   3.358   0.823  1.6403 -0.7020 -0.6915
14693TIP3    H265495   5.394   3.315   0.694 -0.2947 -0.3950 -1.7934
14694TIP3   OH265496   5.203   6.949   1.361 -0.5915  0.0327  0.3779
14694TIP3    H165497   5.205   7.028   1.307 -0.9949  0.5946  1.1823
14694TIP3    H265498   5.259   6.969   1.436 -1.4324 -0.0979  1.0492
14695TIP3   OH265499   4.340   2.790   4.400 -0.4082  0.4063  0.5878
14695TIP3    H165500   4.417   2.769   4.453 -0.9529 -1.6372  0.6199
14695TIP3    H265501   4.315   2.878   4.428  0.9029  0.4106  1.7941
14696TIP3   OH265502   4.243   6.401   0.951  0.1263 -0.0324 -0.0042
14696TIP3    H165503   4.161   6.442   0.979  0.3333 -0.0275  0.5858
14696TIP3    H265504   4.254   6.326   1.009  1.2352  0.7462  0.8198
14697TIP3   OH265505   6.089   1.837   2.564 -0.2682  0.3653 -0.3213
14697TIP3    H165506   6.086   1.812   2.657  0.4413 -1.7400 -0.8252
14697TIP3    H265507   6.141   1.918   2.563  0.8736 -0.3172  0.9933
14698TIP3   OH265508   1.252   2.817   1.787  0.4010 -0.1290 -0.2219
14698TIP3    H165509   1.244   2.751   1.856  0.8263  0.1718  0.1159
14698TIP3    H265510   1.171   2.808   1.736 -0.3352  0.2664  0.8571
14699TIP3   OH265511   6.153   1.932   4.687  0.4400 -0.4599  0.3341
14699TIP3    H165512   6.135   1.872   4.760 -1.5189  0.1946  0.4178
14699TIP3    H265513   6.083   1.916   4.624  1.2289  0.0951 -0.7051
14700TIP3   OH265514   5.362   1.363  13.995  0.3310 -0.1165  0.3793
14700TIP3    H165515   5.382   1.357  14.089 -0.3734 -1.9587  0.4270
14700TIP3    H265516   5.283   1.416  13.990  2.0064  2.5091  0.5861
14701TIP3   OH265517   1.990   1.265   3.457 -0.6824  0.6975 -0.6575
14701TIP3    H165518   1.959   1.175   3.445  1.9055 -0.6782  2.1274
14701TIP3    H265519   2.070   1.270   3.405 -0.1135  0.9395  0.2274
14702TIP3   OH265520   6.023   3.214   3.151 -0.3009  0.1761 -0.0874
14702TIP3    H165521   6.031   3.148   3.082 -0.5611  0.2233 -0.1652
14702TIP3    H265522   5.940   3.258   3.132 -1.1924 -0.8929  1.1806
14703TIP3   OH265523   6.822   1.705   2.785 -0.4250  0.1171  0.1277
14703TIP3    H165524   6.880   1.637   2.817  0.6818  1.2645  0.6283
14703TIP3    H265525   6.777   1.666   2.709  0.2391 -1.1143  0.3628
14704TIP3   OH265526   4.881   2.626   2.214  0.2737  0.2801 -0.7149
14704TIP3    H165527   4.965   2.594   2.248  0.5439 -0.6614 -2.2129
14704TIP3    H265528   4.846   2.552   2.164 -1.0594  0.9549 -0.8046
14705TIP3   OH265529   4.460   3.826   5.621  0.5401  0.5924  0.0805
14705TIP3    H165530   4.374   3.846   5.657  0.4788  1.4344 -0.5157
14705TIP3    H265531   4.515   3.810   5.698 -0.4200 -1.1928  0.4341
14706TIP3   OH265532   0.869   1.886   2.238 -0.2886  0.1912  0.5115
14706TIP3    H165533   0.781   1.913   2.264  0.3138  2.3524  0.4009
14706TIP3    H265534   0.856   1.801   2.195 -2.2710  0.3459  0.7456
14707TIP3   OH265535   2.314   0.359   5.527 -0.7036  0.0381  0.1653
14707TIP3    H165536   2.275   0.382   5.612 -2.2056 -0.5150 -0.3581
14707TIP3    H265537   2.401   0.399   5.529 -0.8833  0.3890  1.7969
14708TIP3   OH265538   6.073   3.364   0.857 -0.0979 -0.4155  0.1207
14708TIP3    H165539   6.156   3.405   0.884 -0.4838  0.8198 -0.5015
14708TIP3    H265540   6.076   3.367   0.761 -0.2291 -1.6635  0.0803
14709TIP3   OH265541   4.355   1.815   4.880  0.3184 -0.9450 -0.1584
14709TIP3    H165542   4.317   1.730   4.855  0.1004 -0.9744  0.2731
14709TIP3    H265543   4.317   1.877   4.818 -1.8366 -0.6808  1.3867
14710TIP3   OH265544   0.501   5.209   0.001 -0.0831 -0.7352  0.6437
14710TIP3    H165545   0.408   5.223  -0.016  0.2612  1.8272  0.7669
14710TIP3    H265546   0.536   5.177  -0.082 -1.0491 -1.7739  0.6107
14711TIP3   OH265547   0.973   3.422  14.636 -0.3839  0.2355 -0.1976
14711TIP3    H165548   1.009   3.439  14.723  1.9256 -1.1613 -0.8645
14711TIP3    H265549   0.882   3.396  14.653  0.1844 -0.5038  1.8379
14712TIP3   OH265550   2.763   2.617   5.690 -0.3296  0.5099  0.7961
14712TIP3    H165551   2.708   2.624   5.611 -1.2133  0.8357  1.4348
14712TIP3    H265552   2.840   2.670   5.669 -0.8025  1.0292  0.3484
14713TIP3   OH265553   3.275   3.444   3.226 -0.8427 -0.5633  0.3919
14713TIP3    H165554   3.260   3.361   3.271 -0.4705 -0.2795  1.0460
14713TIP3    H265555   3.285   3.508   3.297 -1.4447  0.0933 -0.1098
14714TIP3   OH265556   4.053   1.108   3.942 -0.0392 -0.8521 -0.0715
14714TIP3    H165557   4.008   1.093   4.026 -1.3435  0.2364 -0.5592
14714TIP3    H265558   4.051   1.023   3.898 -0.7841 -1.0516  0.3280
14715TIP3   OH265559   3.985   5.640   5.213 -0.0081  0.1133 -0.1638
14715TIP3    H165560   3.999   5.733   5.196  1.6919  0.1896  1.4308
14715TIP3    H265561   3.945   5.637   5.301 -0.3687 -0.6450 -0.3466
14716TIP3   OH265562   5.502   4.052   1.051  0.0506 -0.0297 -0.6855
14716TIP3    H165563   5.440   4.005   1.107 -1.9403  3.0827 -0.1424
14716TIP3    H265564   5.575   4.073   1.109 -0.3624  0.0423 -0.1864
14717TIP3   OH265565   5.334   5.276   4.637 -0.5791  0.2625 -0.9310
14717TIP3    H165566   5.363   5.359   4.675 -0.7916 -0.8416  1.7728
14717TIP3    H265567   5.415   5.228   4.619 -0.5218 -0.7571  1.8221
14718TIP3   OH265568   3.987   1.855   3.095 -0.4376  0.3520  0.0591
14718TIP3    H165569   3.984   1.854   3.000  0.7723 -0.6643  0.0108
14718TIP3    H265570   3.918   1.796   3.123  0.7313 -1.1781 -0.2536
14719TIP3   OH265571   4.250   1.620   1.261  0.2929 -0.1049  0.5977
14719TIP3    H165572   4.247   1.637   1.355 -0.0814  0.8580  0.4153
14719TIP3    H265573   4.314   1.683   1.228  0.6960 -0.6898  0.2569
14720TIP3   OH265574   4.770   2.721   4.091  0.4194 -0.1361 -0.2533
14720TIP3    H165575   4.815   2.680   4.018  0.3686 -0.0160 -0.3513
14720TIP3    H265576   4.684   2.678   4.094  0.5670 -0.4164 -0.0217
14721TIP3   OH265577   6.650   4.506   4.949 -0.0151 -0.5199 -0.2020
14721TIP3    H165578   6.695   4.517   5.033  1.6732 -0.2515 -1.1150
14721TIP3    H265579   6.680   4.422   4.916  0.3851 -0.0068 -1.1675
14722TIP3   OH265580   5.956   5.860   1.275  0.3864  0.2500 -0.6312
14722TIP3    H165581   5.990   5.930   1.220  0.7195 -0.3356 -1.1753
14722TIP3    H265582   5.862   5.859   1.258  0.4574  0.2170 -1.0213
14723TIP3   OH265583   0.553   2.726   0.234  0.9053 -0.1839  0.2290
14723TIP3    H165584   0.576   2.707   0.326 -0.0876 -0.2594  0.4661
14723TIP3    H265585   0.532   2.640   0.197 -1.0360  0.1185  0.5884
14724TIP3   OH265586   2.085   1.335   3.989 -0.4017  0.5252 -0.8333
14724TIP3    H165587   2.006   1.281   3.982 -0.3656  0.5991 -1.9913
14724TIP3    H265588   2.142   1.303   3.918  1.4305 -0.8479  1.1652
14725TIP3   OH265589   4.518   1.328   4.550 -0.8050 -0.4827  0.1068
14725TIP3    H165590   4.542   1.421   4.558 -0.2127 -0.6964  0.8214
14725TIP3    H265591   4.422   1.330   4.542 -1.0092  0.0718  2.3749
14726TIP3   OH265592   4.420   1.115   2.196  0.4402  0.0350 -0.1872
14726TIP3    H165593   4.413   1.151   2.108  1.0146 -0.7382 -0.5534
14726TIP3    H265594   4.509   1.081   2.201 -0.3030 -1.9404 -0.0864
14727TIP3   OH265595   0.558   1.330  15.378  0.0809  0.0831 -0.0227
14727TIP3    H165596   0.558   1.252  15.432  0.1695 -0.7886 -1.2481
14727TIP3    H265597   0.645   1.369  15.392  0.8913 -1.2735 -1.1215
14728TIP3   OH265598   3.701   2.734   2.189 -0.3440  0.8095 -0.4182
14728TIP3    H165599   3.762   2.665   2.164 -2.0871 -1.3781  1.1731
14728TIP3    H265600   3.757   2.811   2.203  1.7864 -0.5684 -1.0216
14729TIP3   OH265601   5.241   3.936   2.302 -0.0214  0.2155  0.4015
14729TIP3    H165602   5.180   3.968   2.236 -1.1244 -0.7744  0.9037
14729TIP3    H265603   5.204   3.852   2.330  0.6131  0.4388  2.0031
14730TIP3   OH265604   6.537   0.036   3.959 -0.1253  0.0219 -0.0568
14730TIP3    H165605   6.452   0.047   3.916 -0.2379 -2.5417 -0.5793
14730TIP3    H265606   6.595   0.098   3.914 -1.3170  0.5953 -0.8283
14731TIP3   OH265607   4.582   2.550   5.808 -0.0780  0.4317 -0.4409
14731TIP3    H165608   4.571   2.635   5.766  1.4722  0.6748 -0.3937
14731TIP3    H265609   4.550   2.562   5.898  2.0070  1.5494  0.1800
14732TIP3   OH265610   4.206   0.655   5.316 -0.3778 -0.5281 -0.0833
14732TIP3    H165611   4.185   0.608   5.236  0.7126 -1.4297  0.1459
14732TIP3    H265612   4.250   0.591   5.371 -1.7413 -0.1231  1.5414
14733TIP3   OH265613   6.991   4.342   4.208 -0.1887 -0.1372 -0.3621
14733TIP3    H165614   7.070   4.374   4.252 -0.0354 -1.7566  0.5481
14733TIP3    H265615   6.919   4.389   4.251  0.2302  0.9755 -0.8624
14734TIP3   OH265616   2.955   4.130   0.128 -0.2407 -0.2007  0.0868
14734TIP3    H165617   2.947   4.193   0.199 -1.4922 -1.9907  1.5915
14734TIP3    H265618   3.041   4.090   0.141 -0.7829 -1.0706  1.0902
14735TIP3   OH265619   3.081   2.300   4.174  0.0315  0.1154  0.3027
14735TIP3    H165620   3.073   2.363   4.245 -1.6845  0.5168 -0.2371
14735TIP3    H265621   3.063   2.215   4.216 -1.4179  0.3963  0.2720
14736TIP3   OH265622   2.788   2.815   3.090 -0.6309 -0.4266  0.5034
14736TIP3    H165623   2.823   2.882   3.032 -1.6984  0.6753  1.1158
14736TIP3    H265624   2.759   2.745   3.031  0.0738 -0.1641 -0.1638
14737TIP3   OH265625   6.034   1.844   3.548 -0.0578 -0.1536 -0.2364
14737TIP3    H165626   5.945   1.810   3.548 -0.6068  1.2655 -0.8296
14737TIP3    H265627   6.052   1.865   3.640 -0.5891  0.2221 -0.2169
14738TIP3   OH265628   1.785   6.093   4.980  0.1292 -0.4815 -0.4824
14738TIP3    H165629   1.813   6.121   5.067  0.8873  1.7448 -1.3922
14738TIP3    H265630   1.696   6.126   4.972  0.3388  0.0214 -0.8217
14739TIP3   OH265631   0.942   2.328   1.439 -0.2942 -0.2289  0.3186
14739TIP3    H165632   1.018   2.271   1.428 -0.9670 -0.9491 -0.7530
14739TIP3    H265633   0.867   2.269   1.434 -1.0155  0.7643 -1.0912
14740TIP3   OH265634   2.996   5.446   5.173  0.0368 -0.1618  0.8710
14740TIP3    H165635   3.046   5.366   5.187 -2.3488 -1.4530  2.2985
14740TIP3    H265636   3.040   5.512   5.228  1.3026 -0.7728  0.6002
14741TIP3   OH265637   6.084   1.160   3.400 -0.1589 -0.3171 -0.2433
14741TIP3    H165638   6.022   1.215   3.449  1.9428  0.2566  1.8775
14741TIP3    H265639   6.147   1.223   3.363 -0.4226 -0.9442 -1.7769
14742TIP3   OH265640   0.929   4.930   1.938  0.0490  0.3619 -0.3722
14742TIP3    H165641   1.003   4.988   1.956 -0.1239  0.6672 -0.6420
14742TIP3    H265642   0.964   4.842   1.952  1.0313  0.4016 -2.4657
14743TIP3   OH265643   6.982   5.501   2.371  0.3834 -0.4741  0.2480
14743TIP3    H165644   6.929   5.473   2.296  0.7558 -0.3104 -0.0755
14743TIP3    H265645   7.063   5.533   2.332  0.5662 -0.3655  0.7216
14744TIP3   OH265646   4.153   3.394   4.580 -0.4796  0.1281 -0.0786
14744TIP3    H165647   4.211   3.370   4.508 -0.8230 -0.7281 -0.0747
14744TIP3    H265648   4.212   3.422   4.650 -0.0930 -0.2770 -0.2410
14745TIP3   OH265649   6.028   3.968   3.461  0.8922 -0.3654  0.4075
14745TIP3    H165650   6.054   4.047   3.413  1.9977 -0.7891  0.3021
14745TIP3    H265651   6.083   3.898   3.425 -1.0090 -1.4774 -0.4555
14746TIP3   OH265652   6.265   6.119   4.148  0.0043 -0.6349 -0.5302
14746TIP3    H165653   6.311   6.036   4.160 -0.6180 -0.8939  0.1738
14746TIP3    H265654   6.234   6.117   4.057 -0.5695 -1.4807 -0.3278
14747TIP3   OH265655   3.394   4.324   1.702 -0.2700 -0.3202 -0.0727
14747TIP3    H165656   3.470   4.304   1.756 -0.5384  0.5034  0.6171
14747TIP3    H265657   3.390   4.420   1.701 -1.4695 -0.3630  0.1330
14748TIP3   OH265658   4.235   4.555   4.551 -0.2075 -0.7496  0.5899
14748TIP3    H165659   4.146   4.539   4.583 -0.7818  2.8018  0.9947
14748TIP3    H265660   4.290   4.554   4.629 -0.1130 -1.4125  0.5206
14749TIP3   OH265661   5.057   4.522   4.891  0.0200 -0.4141  0.0154
14749TIP3    H165662   5.076   4.538   4.798 -1.2052 -0.3412 -0.2299
14749TIP3    H265663   5.104   4.592   4.937  0.4643 -0.3270 -0.5625
14750TIP3   OH265664   6.254   6.592   1.605  0.0770 -0.2858  0.0509
14750TIP3    H165665   6.259   6.675   1.652 -0.8980  0.0389 -0.4084
14750TIP3    H265666   6.161   6.570   1.606 -0.0821  0.1935 -2.5262
14751TIP3   OH265667   0.372   1.257   5.856 -0.4555 -0.4225  0.3476
14751TIP3    H165668   0.442   1.199   5.827 -0.9140 -0.4108 -0.7833
14751TIP3    H265669   0.298   1.198   5.873 -0.6233 -0.2698  0.1378
14752TIP3   OH265670   5.289   6.831   5.345  0.6195 -0.0474 -0.0037
14752TIP3    H165671   5.194   6.844   5.335  0.5701  1.5129  2.2356
14752TIP3    H265672   5.324   6.843   5.256 -1.2425 -0.3853 -0.8123
14753TIP3   OH265673   4.668   1.111   1.783  0.7979 -0.2257 -0.2947
14753TIP3    H165674   4.741   1.052   1.768  0.7996 -0.1617 -0.5395
14753TIP3    H265675   4.611   1.063   1.843  2.1392  0.6386  1.7066
14754TIP3   OH265676   4.141   4.537   1.927  0.5715 -0.2841 -0.2458
14754TIP3    H165677   4.159   4.459   1.981 -1.7127  0.2804  1.4258
14754TIP3    H265678   4.154   4.507   1.837  1.2428 -2.1766  0.4482
14755TIP3   OH265679   6.262   2.544   2.868  0.5885  0.2531  0.1929
14755TIP3    H165680   6.301   2.491   2.938 -1.0548 -1.8370 -0.4184
14755TIP3    H265681   6.182   2.578   2.907 -0.4815 -1.1541 -0.7274
14756TIP3   OH265682   1.078   3.385   1.539  0.3760  0.3980 -0.4767
14756TIP3    H165683   1.159   3.363   1.585  0.3347 -1.0580 -1.0797
14756TIP3    H265684   1.094   3.471   1.501  2.2721 -0.5842 -2.0040
14757TIP3   OH265685   2.040   2.678  14.483  0.6160  0.0122  0.5157
14757TIP3    H165686   2.124   2.724  14.480  0.3847  0.3755 -0.4743
14757TIP3    H265687   1.986   2.730  14.543  0.8627  0.1715  0.5993
14758TIP3   OH265688   3.166   6.680   2.827  0.0823 -1.0875  0.0790
14758TIP3    H165689   3.211   6.648   2.905  0.7106  0.7416  0.4731
14758TIP3    H265690   3.076   6.696   2.857 -0.2529 -2.4496 -0.1306
14759TIP3   OH265691   3.239   4.100   3.411  0.1931 -1.0426 -0.1614
14759TIP3    H165692   3.331   4.085   3.435  0.5514 -0.9589 -1.4358
14759TIP3    H265693   3.242   4.173   3.349 -0.6770 -1.3744 -0.6041
14760TIP3   OH265694   0.385   1.522   2.438 -0.0594  0.8425  0.1558
14760TIP3    H165695   0.345   1.520   2.350  0.4680 -0.4656 -0.0675
14760TIP3    H265696   0.380   1.431   2.468  1.5883  0.9040  0.6490
14761TIP3   OH265697   5.238   1.872  15.139  0.0249  0.8977 -0.2318
14761TIP3    H165698   5.211   1.843  15.052  2.5346  1.2132 -1.1514
14761TIP3    H265699   5.267   1.793  15.183 -1.4216  0.7105  0.3964
14762TIP3   OH265700   5.181   3.498   1.897 -0.1340  0.3411 -0.9065
14762TIP3    H165701   5.214   3.544   1.820  0.2464  0.1822 -0.8392
14762TIP3    H265702   5.143   3.566   1.952 -1.6167  0.2993 -1.8479
14763TIP3   OH265703   6.537   3.788   1.041 -0.2716  0.1082 -0.3010
14763TIP3    H165704   6.472   3.856   1.021 -0.0546  0.8217  1.3840
14763TIP3    H265705   6.511   3.754   1.126  0.8526 -0.4693 -0.1807
14764TIP3   OH265706   1.715   3.337   1.727  0.0219  0.2899  0.5276
14764TIP3    H165707   1.743   3.394   1.655 -0.1750  0.0462  0.2561
14764TIP3    H265708   1.668   3.266   1.684  0.9380 -0.4966  0.7971
14765TIP3   OH265709   6.372   1.986  15.071 -0.6371  0.6131 -0.1159
14765TIP3    H165710   6.409   2.046  15.135 -0.3444  0.8204 -0.4777
14765TIP3    H265711   6.409   1.900  15.095 -0.2509  0.7489 -0.2202
14766TIP3   OH265712   5.142   1.522   2.053  0.1481 -0.3343  0.1136
14766TIP3    H165713   5.134   1.613   2.023 -1.3097 -0.5212 -0.0833
14766TIP3    H265714   5.181   1.476   1.979  0.4246  0.0312  0.0294
14767TIP3   OH265715   4.603   1.421  14.092  0.1023  0.2752 -0.0816
14767TIP3    H165716   4.578   1.333  14.118  0.2248 -0.1664 -1.4657
14767TIP3    H265717   4.607   1.419  13.997 -0.7449  2.0098 -0.1764
14768TIP3   OH265718   4.392   6.085   4.020 -0.3469 -0.1571 -0.1884
14768TIP3    H165719   4.425   6.138   4.093  2.0225 -1.1787 -0.4613
14768TIP3    H265720   4.377   5.999   4.059 -2.7303  0.2831 -0.0864
14769TIP3   OH265721   6.201   0.994   3.138  0.0970  0.3617  0.1260
14769TIP3    H165722   6.124   0.979   3.193  0.9564  0.3853  1.3241
14769TIP3    H265723   6.194   1.085   3.111  0.6519  0.8659  1.6898
14770TIP3   OH265724   2.677   0.641   1.550 -0.1121  0.5212  0.0458
14770TIP3    H165725   2.669   0.600   1.464  1.3411 -0.8604  0.5344
14770TIP3    H265726   2.768   0.668   1.556 -0.1168  0.3247  1.2507
14771TIP3   OH265727   6.674   7.089   0.302  0.2001 -0.2970 -0.1838
14771TIP3    H165728   6.589   7.054   0.275 -0.5847  1.4357  0.0085
14771TIP3    H265729   6.717   7.016   0.347 -1.8419 -0.6986  1.1427
14772TIP3   OH265730   3.781   0.361   0.500  0.5668 -0.2025 -0.2066
14772TIP3    H165731   3.810   0.289   0.444 -0.1664 -1.4013  0.9197
14772TIP3    H265732   3.834   0.435   0.473  2.4970 -1.5811 -0.2954
14773TIP3   OH265733   6.225   4.577   2.903  0.2693  0.0601 -0.3060
14773TIP3    H165734   6.320   4.575   2.917  0.3553  1.6750 -0.5965
14773TIP3    H265735   6.195   4.491   2.931  1.8555 -0.5492 -0.4434
14774TIP3   OH265736   3.269   2.520   1.978  0.3201 -0.1028 -0.6150
14774TIP3    H165737   3.283   2.514   1.884  1.6342  0.8641 -0.4957
14774TIP3    H265738   3.356   2.541   2.014 -0.5120  1.3077  0.6302
14775TIP3   OH265739   4.823   4.466   5.005 -0.3105  0.1198 -0.1592
14775TIP3    H165740   4.871   4.459   5.088 -0.4924  1.9122  0.1181
14775TIP3    H265741   4.890   4.461   4.937 -0.2338 -2.1034  0.0516
14776TIP3   OH265742   6.685   0.634   1.237  0.0766 -0.6626 -0.5486
14776TIP3    H165743   6.700   0.692   1.312  2.0993 -0.2091 -1.2685
14776TIP3    H265744   6.636   0.688   1.174  1.0039 -0.0723 -0.7712
14777TIP3   OH265745   5.698   1.559   1.895 -0.3650  0.0525  0.0816
14777TIP3    H165746   5.674   1.519   1.978  1.2443  3.0409  2.0797
14777TIP3    H265747   5.791   1.539   1.884 -1.1831 -2.7344 -2.4959
14778TIP3   OH265748   5.121   6.430   4.853  0.9505  0.3597  0.3273
14778TIP3    H165749   5.158   6.354   4.807 -1.7464 -0.0094 -1.3434
14778TIP3    H265750   5.094   6.396   4.938 -2.1462 -1.1620 -1.1634
14779TIP3   OH265751   2.112   2.306   2.948  0.6911  0.2161  0.1330
14779TIP3    H165752   2.061   2.370   2.997  1.4178 -0.4524  1.7809
14779TIP3    H265753   2.050   2.234   2.931  0.3943  0.5202 -0.0680
14780TIP3   OH265754   2.782   4.902   3.184  0.0509 -0.0672 -0.1844
14780TIP3    H165755   2.698   4.908   3.229  0.1541 -1.4076  0.2033
14780TIP3    H265756   2.836   4.970   3.226  0.2441 -1.4925  1.9938
14781TIP3   OH265757   0.253   3.488  14.852 -0.0613  0.3107 -0.0355
14781TIP3    H165758   0.168   3.492  14.895  0.6213 -0.6696  1.4712
14781TIP3    H265759   0.316   3.489  14.924  1.1093 -1.3088 -1.0021
14782TIP3   OH265760   4.549   5.244   5.402 -0.1782  0.0130 -0.3610
14782TIP3    H165761   4.486   5.181   5.368  0.4340 -0.2825 -0.9337
14782TIP3    H265762   4.623   5.191   5.432  0.8981  0.5319 -2.0310
14783TIP3   OH265763   4.506   5.584   1.495 -0.1594 -0.0445 -0.0302
14783TIP3    H165764   4.417   5.551   1.492  0.8649 -2.9599  0.5373
14783TIP3    H265765   4.559   5.509   1.523  2.6278  1.2923 -1.5447
14784TIP3   OH265766   2.676   0.555   2.777 -0.0176 -0.0826  0.1955
14784TIP3    H165767   2.679   0.648   2.754  0.6620  0.1654  1.2674
14784TIP3    H265768   2.767   0.533   2.801 -0.9999  0.1917  4.6304
14785TIP3   OH265769   5.166   5.843   2.263  0.0959  0.1635  0.2567
14785TIP3    H165770   5.231   5.781   2.228 -1.9417 -1.2727 -1.1528
14785TIP3    H265771   5.216   5.899   2.322  2.9145  0.0817 -1.9197
14786TIP3   OH265772   2.577   4.006   5.296 -0.4538  0.4290 -0.4023
14786TIP3    H165773   2.556   3.940   5.362 -0.6463 -0.1415 -1.0305
14786TIP3    H265774   2.673   4.009   5.294 -0.4313 -0.4965 -1.0233
14787TIP3   OH265775   5.205   6.228   0.575 -0.9060 -0.0829  0.1584
14787TIP3    H165776   5.164   6.298   0.525 -1.9263 -0.9713 -0.2808
14787TIP3    H265777   5.147   6.215   0.650 -1.1195 -0.9405 -0.1455
14788TIP3   OH265778   2.862   6.604   4.675 -0.4451  0.0498 -0.0467
14788TIP3    H165779   2.924   6.633   4.608  0.9893  2.1240  2.1146
14788TIP3    H265780   2.777   6.612   4.633  0.4184  1.3896 -1.6132
14789TIP3   OH265781   5.786   4.078   1.354 -0.3879  0.1041 -0.1464
14789TIP3    H165782   5.786   4.145   1.422  0.0263  1.8059 -1.7883
14789TIP3    H265783   5.744   4.120   1.279  1.6866 -0.7859 -1.8567
14790TIP3   OH265784   3.027   0.201   3.918  0.3596 -0.0337 -0.2115
14790TIP3    H165785   3.077   0.227   3.840  1.6329  0.5490  0.7937
14790TIP3    H265786   2.937   0.224   3.896  0.7893  0.6834 -1.2901
14791TIP3   OH265787   5.893   3.070   3.822 -0.3909 -0.2218 -0.1216
14791TIP3    H165788   5.938   3.122   3.888 -1.2210  0.0224  0.2617
14791TIP3    H265789   5.962   3.022   3.777  0.4534  1.7059 -0.9213
14792TIP3   OH265790   6.273   1.405   0.360 -0.1307 -0.2773  0.0330
14792TIP3    H165791   6.248   1.349   0.286 -1.0092 -0.1185  0.1953
14792TIP3    H265792   6.252   1.494   0.332  0.6771 -0.0881  0.0141
14793TIP3   OH265793   3.354   3.042   1.246 -0.3564 -0.4792 -0.3696
14793TIP3    H165794   3.411   3.041   1.169  0.2370  1.8455  0.0020
14793TIP3    H265795   3.388   3.114   1.299 -1.2845 -1.5226  1.6697
14794TIP3   OH265796   5.032   3.911   4.274 -0.7253 -0.5081  0.1158
14794TIP3    H165797   5.020   3.947   4.186 -2.2575 -0.1215  0.4741
14794TIP3    H265798   5.044   3.817   4.260  0.3187 -0.2813 -0.5911
14795TIP3   OH265799   6.378   1.248   2.010 -0.4091  0.1547 -0.2757
14795TIP3    H165800   6.294   1.205   2.024  0.7226 -1.6285  1.1732
14795TIP3    H265801   6.361   1.313   1.942 -2.7235 -0.8660 -0.6880
14796TIP3   OH265802   5.622   6.335   4.767 -0.1899  0.4747  0.0408
14796TIP3    H165803   5.568   6.348   4.688  0.6940 -1.9571 -1.0156
14796TIP3    H265804   5.577   6.385   4.835 -2.3849  0.5798 -1.4148
14797TIP3   OH265805   6.088   4.772   1.505 -0.4013 -0.1201 -0.2508
14797TIP3    H165806   6.044   4.808   1.581 -0.8101 -0.2675 -0.4154
14797TIP3    H265807   6.150   4.708   1.541  2.2516  2.6332  0.2284
14798TIP3   OH265808   5.712   2.052   5.342  0.4333 -0.1122 -0.0844
14798TIP3    H165809   5.633   2.043   5.395 -0.3428  2.7570 -0.6743
14798TIP3    H265810   5.781   2.073   5.405  0.0560  0.6748  0.0622
14799TIP3   OH265811   6.011   1.263  14.895 -0.0878 -0.7659 -1.0764
14799TIP3    H165812   5.968   1.349  14.886  0.5212 -0.3303  0.0917
14799TIP3    H265813   6.095   1.274  14.849 -0.7141 -1.2695 -2.3797
14800TIP3   OH265814   3.220   2.178   5.332 -0.2199 -0.2296  0.1971
14800TIP3    H165815   3.147   2.123   5.305  0.0073 -0.2501 -0.3703
14800TIP3    H265816   3.241   2.230   5.255  0.6970 -0.5802  0.2039
14801TIP3   OH265817   6.393   5.545  15.469  0.1547  0.4765  0.1429
14801TIP3    H165818   6.362   5.463  15.507  0.0664  1.0578  1.3488
14801TIP3    H265819   6.445   5.586  15.538 -0.1479  1.6274 -0.2939
14802TIP3   OH265820   6.227   1.348   2.318 -0.0827 -0.0811 -0.3029
14802TIP3    H165821   6.237   1.431   2.270 -1.1893 -0.2032 -0.7577
14802TIP3    H265822   6.217   1.282   2.249 -0.3733 -0.4359  0.0805
14803TIP3   OH265823   5.138   1.692   5.207  0.0723 -0.2153  0.0056
14803TIP3    H165824   5.097   1.606   5.212 -0.1838 -0.1178 -0.3981
14803TIP3    H265825   5.169   1.710   5.296 -0.3675 -0.4779  0.2080
14804TIP3   OH265826   0.288   2.909   5.049 -0.5118  0.2100 -0.0343
14804TIP3    H165827   0.307   2.907   4.955  0.6221  0.7643  0.1695
14804TIP3    H265828   0.228   2.982   5.060  2.0336  2.3758  0.1026
14805TIP3   OH265829   4.500   0.740   4.137  1.0391 -0.1149  0.1293
14805TIP3    H165830   4.424   0.683   4.150  1.6537 -0.3667  3.1157
14805TIP3    H265831   4.564   0.684   4.092  0.0266 -0.3510 -1.0620
14806TIP3   OH265832   0.186   5.201   3.764 -0.1780  0.0032 -0.1960
14806TIP3    H165833   0.261   5.177   3.818  0.2365 -1.0065 -1.2053
14806TIP3    H265834   0.111   5.160   3.807  0.4281 -2.5512 -1.5046
14807TIP3   OH265835   5.959   0.151   3.410  0.0434  0.3185 -0.5280
14807TIP3    H165836   5.937   0.182   3.499  0.8854  0.2374 -0.2868
14807TIP3    H265837   6.000   0.227   3.369  0.4234  0.0932 -0.5627
14808TIP3   OH265838   1.747   3.634   2.040 -0.2774  0.1379  0.0610
14808TIP3    H165839   1.704   3.552   2.016 -2.2797  1.4850 -1.0245
14808TIP3    H265840   1.767   3.677   1.957  1.2703  0.4903  0.6084
14809TIP3   OH265841   1.356   2.418   1.958 -0.2362  0.2186 -0.9245
14809TIP3    H165842   1.333   2.433   1.867 -0.2905 -1.2752 -1.1745
14809TIP3    H265843   1.437   2.367   1.954 -0.3530 -0.0329 -0.1448
14810TIP3   OH265844   6.677   5.121   5.141 -0.2555  0.5218 -0.2102
14810TIP3    H165845   6.652   5.170   5.220 -0.4989 -0.6876  0.4855
14810TIP3    H265846   6.598   5.071   5.118  0.1518  0.0441 -0.5849
14811TIP3   OH265847   4.225   5.312   3.117 -0.1427 -0.3110 -0.3248
14811TIP3    H165848   4.150   5.333   3.062  0.6537 -3.1971 -2.6556
14811TIP3    H265849   4.189   5.261   3.189 -0.5605 -0.7133 -0.8196
14812TIP3   OH265850   4.864   2.168   5.782  0.4804 -0.8798 -0.2390
14812TIP3    H165851   4.809   2.155   5.859  1.8376  1.5019  1.1844
14812TIP3    H265852   4.952   2.143   5.810  0.9741 -0.0860 -1.0407
14813TIP3   OH265853   6.529   6.149   3.936  0.0336  0.1908  0.0187
14813TIP3    H165854   6.512   6.161   4.029 -0.9897  1.7384 -0.3486
14813TIP3    H265855   6.578   6.228   3.911 -0.6729  0.3211 -0.9779
14814TIP3   OH265856   3.948   1.647   2.499 -0.2884 -0.4914 -0.1669
14814TIP3    H165857   3.953   1.740   2.477  0.5462 -0.5420 -0.1895
14814TIP3    H265858   3.931   1.646   2.593  0.2417 -0.3297 -0.0726
14815TIP3   OH265859   5.704   1.155  14.331 -0.4731  0.1655  0.6869
14815TIP3    H165860   5.701   1.113  14.245  0.4259  0.1265  0.6673
14815TIP3    H265861   5.729   1.086  14.391  2.3799  0.9258  0.4541
14816TIP3   OH265862   3.613   5.560   1.046  0.3127 -0.0714 -0.1360
14816TIP3    H165863   3.690   5.548   1.102  1.3824 -0.6553 -1.6939
14816TIP3    H265864   3.539   5.543   1.104  1.3031  1.2538  1.5945
14817TIP3   OH265865   3.708   4.218   4.521  0.3691 -0.4381 -1.0398
14817TIP3    H165866   3.726   4.219   4.427  0.8936 -0.1648 -0.9368
14817TIP3    H265867   3.715   4.309   4.548 -0.0463 -0.4795 -0.7816
14818TIP3   OH265868   0.407   4.987   1.648  0.1298 -0.1084  0.0807
14818TIP3    H165869   0.339   4.924   1.625 -0.1871 -1.0517  3.3104
14818TIP3    H265870   0.461   4.941   1.712  0.3517  2.6314  1.9437
14819TIP3   OH265871   0.747   3.885   2.205  0.6380  0.5042 -0.0115
14819TIP3    H165872   0.685   3.831   2.254  2.0273  0.4665  1.7783
14819TIP3    H265873   0.752   3.844   2.119 -0.6362 -0.4188  0.3429
14820TIP3   OH265874   1.083   1.052  15.024 -0.1427 -0.5813 -0.0591
14820TIP3    H165875   1.070   1.143  14.995 -1.2205 -1.1328 -1.3439
14820TIP3    H265876   1.157   1.021  14.972 -0.2504 -0.6747 -0.1553
14821TIP3   OH265877   3.615   3.263   3.730 -0.0670 -0.6481  0.1206
14821TIP3    H165878   3.528   3.253   3.691  0.4283  0.4423 -1.2840
14821TIP3    H265879   3.597   3.294   3.819 -1.1188  0.5047 -0.4648
14822TIP3   OH265880   2.248   3.332   4.163  0.1189  0.2065  0.0660
14822TIP3    H165881   2.200   3.251   4.150 -1.6563  1.3857 -0.8757
14822TIP3    H265882   2.336   3.304   4.188 -0.1576 -1.9941 -1.3509
14823TIP3   OH265883   2.672   6.020   5.433 -0.4913  0.0436  0.5284
14823TIP3    H165884   2.628   5.965   5.498  0.3559 -1.4365 -0.1196
14823TIP3    H265885   2.608   6.087   5.410 -0.8805  0.4525  2.7149
14824TIP3   OH265886   0.565   2.851   1.118 -1.1108 -0.2961  0.5001
14824TIP3    H165887   0.525   2.766   1.136 -1.0513 -0.6633 -1.0320
14824TIP3    H265888   0.653   2.844   1.156 -1.2033 -0.8096  0.6345
14825TIP3   OH265889   2.540   3.235   3.174  0.1192 -0.5907 -0.1941
14825TIP3    H165890   2.510   3.206   3.260  2.4958 -0.9682  0.5453
14825TIP3    H265891   2.520   3.162   3.115 -2.8393  0.2279 -0.3215
14826TIP3   OH265892   0.745   4.242   0.373  0.3508  0.1216  0.0898
14826TIP3    H165893   0.711   4.152   0.376 -1.2041  0.7344  4.0861
14826TIP3    H265894   0.676   4.292   0.329 -0.0254 -0.1569  0.3602
14827TIP3   OH265895   5.727   2.649   4.546  0.0863 -0.6874 -0.2866
14827TIP3    H165896   5.771   2.626   4.628 -0.0900  1.3833  0.4156
14827TIP3    H265897   5.695   2.566   4.512  1.3462 -1.7522  1.0525
14828TIP3   OH265898   0.741   1.985   3.823  0.3647 -0.1526 -0.6028
14828TIP3    H165899   0.687   1.931   3.767  0.9504  0.0063 -1.3289
14828TIP3    H265900   0.807   1.925   3.858  1.3223  0.1811 -1.8067
14829TIP3   OH265901   2.758   0.860   0.936  0.1800  0.4881  0.0231
14829TIP3    H165902   2.677   0.870   0.887 -0.4211  0.1736  0.9401
14829TIP3    H265903   2.788   0.949   0.952  0.1325  0.5992 -0.5029
14830TIP3   OH265904   3.288   4.208   4.730 -0.5146  0.0893 -0.0062
14830TIP3    H165905   3.314   4.299   4.747  2.2098 -0.5275 -0.6539
14830TIP3    H265906   3.303   4.163   4.813  0.8950 -0.3451 -0.4843
14831TIP3   OH265907   1.408   2.383   3.209 -0.2870 -0.1057 -0.2822
14831TIP3    H165908   1.319   2.386   3.245 -0.4556  0.2498 -0.7313
14831TIP3    H265909   1.451   2.460   3.246  0.1561 -0.8296  0.7587
14832TIP3   OH265910   6.244   2.068   2.548 -0.5044  0.1020  0.3483
14832TIP3    H165911   6.212   2.157   2.535  0.1381  0.4091  0.8095
14832TIP3    H265912   6.320   2.061   2.489  0.9721  0.7051  2.1422
14833TIP3   OH265913   4.135   1.822   0.446 -0.5807 -0.1413  0.1823
14833TIP3    H165914   4.206   1.757   0.443 -0.7454 -0.2581 -1.1974
14833TIP3    H265915   4.060   1.773   0.482  0.1635  0.1286  2.1945
14834TIP3   OH265916   5.143   2.839   4.112 -0.1755 -0.2270 -0.4351
14834TIP3    H165917   5.112   2.880   4.032 -0.1258 -0.1528 -0.4161
14834TIP3    H265918   5.201   2.904   4.152 -1.2004  0.2466  0.3188
14835TIP3   OH265919   4.974   0.476  12.544 -0.3245 -0.0652 -0.2594
14835TIP3    H165920   4.923   0.474  12.463 -4.1832 -0.5288  2.0305
14835TIP3    H265921   5.022   0.559  12.540 -1.9851  0.8533 -2.1567
14836TIP3   OH265922   1.950   2.505   4.712 -0.1487 -0.1620 -0.4995
14836TIP3    H165923   1.982   2.566   4.779  0.8525 -0.0825 -1.0439
14836TIP3    H265924   1.867   2.543   4.683 -0.2138  0.2083  0.1594
14837TIP3   OH265925   2.268   6.737  15.546  0.3050 -0.2229  0.0824
14837TIP3    H165926   2.234   6.742  15.457 -1.3715 -1.5094  0.6278
14837TIP3    H265927   2.194   6.761  15.602  1.3958  0.7734  1.1307
14838TIP3   OH265928   5.487   4.006   0.588  0.2526 -0.0522  0.0603
14838TIP3    H165929   5.416   4.030   0.528 -0.0945  0.3241  0.6099
14838TIP3    H265930   5.566   4.006   0.534  0.0945  1.2977 -0.1824
14839TIP3   OH265931   5.685   5.879   2.167 -0.8204 -0.0491 -0.1151
14839TIP3    H165932   5.652   5.849   2.252  0.2460  0.1479  0.3836
14839TIP3    H265933   5.754   5.943   2.189  0.3951 -0.9863 -1.1090
14840TIP3   OH265934   0.006   2.879   0.880 -0.2401  0.0330 -0.0881
14840TIP3    H165935  -0.077   2.834   0.898 -0.3989  0.2064 -0.3666
14840TIP3    H265936  -0.014   2.971   0.896 -0.0708  0.0604 -0.0439
14841TIP3   OH265937   3.304   6.272   3.139  0.0925 -0.2101  0.4288
14841TIP3    H165938   3.242   6.287   3.068 -0.0259  2.1212  0.9701
14841TIP3    H265939   3.388   6.261   3.095 -0.3211 -1.0424 -0.1751
14842TIP3   OH265940   2.334   2.389   0.694 -0.1889  0.5588  0.4198
14842TIP3    H165941   2.424   2.400   0.664  0.3826  0.8962  2.2257
14842TIP3    H265942   2.282   2.396   0.614  1.1769  3.0393 -0.2987
14843TIP3   OH265943   3.496   1.196   1.419  0.3512 -0.6260 -0.2831
14843TIP3    H165944   3.527   1.231   1.503 -0.1669  0.7744 -0.6549
14843TIP3    H265945   3.557   1.232   1.355 -0.6133  0.1908 -0.7541
14844TIP3   OH265946   4.931   0.231   0.674  0.2346  0.3633  0.1528
14844TIP3    H165947   5.020   0.252   0.646 -0.1587  1.1094 -0.5773
14844TIP3    H265948   4.875   0.268   0.605 -0.4456 -4.5090 -2.1322
14845TIP3   OH265949   1.705   4.483   5.305  0.2309  0.6038  0.1835
14845TIP3    H165950   1.676   4.420   5.239 -0.3423  0.7485  0.2943
14845TIP3    H265951   1.787   4.447   5.339 -1.8272 -1.9085  2.7549
14846TIP3   OH265952   4.598   1.100   4.641 -0.9396  0.1047  0.2516
14846TIP3    H165953   4.558   1.043   4.576  1.2246  0.4628 -1.4706
14846TIP3    H265954   4.579   1.189   4.611 -0.7645  0.2784  0.6440
14847TIP3   OH265955   5.730   5.873  15.468  0.8654 -0.5631 -0.1616
14847TIP3    H165956   5.811   5.826  15.447  1.7086  0.2599  1.1500
14847TIP3    H265957   5.735   5.953  15.415  0.7651 -0.6499 -0.3035
14848TIP3   OH265958   2.257   0.144   4.126  0.4226  0.6949  0.0932
14848TIP3    H165959   2.179   0.198   4.138 -0.1341  0.1386 -0.9239
14848TIP3    H265960   2.226   0.054   4.136  0.7125  0.4204 -1.2742
14849TIP3   OH265961   5.977   4.439   3.880 -0.1956 -0.1731 -0.4531
14849TIP3    H165962   5.977   4.390   3.962  0.0583 -1.6374 -1.3159
14849TIP3    H265963   5.906   4.401   3.829 -0.5798  0.9629 -0.7806
14850TIP3   OH265964   5.369   5.062   2.787 -0.8442  0.5796 -0.5362
14850TIP3    H165965   5.333   5.086   2.872  0.1489  0.2516 -0.0071
14850TIP3    H265966   5.345   5.134   2.729 -0.1056  1.6048  0.4189
14851TIP3   OH265967   4.580   4.210   1.692  0.0980  0.1116  0.4218
14851TIP3    H165968   4.627   4.257   1.623  1.7572  0.0592  1.4777
14851TIP3    H265969   4.645   4.198   1.761 -0.8371 -2.0110  0.9787
14852TIP3   OH265970   4.733   0.910   5.912  0.0645 -0.7668  0.0255
14852TIP3    H165971   4.680   0.835   5.888 -0.1410 -0.7514  0.4411
14852TIP3    H265972   4.700   0.938   5.997 -2.2895  2.0029 -1.6841
14853TIP3   OH265973   3.548   4.608   1.526  0.0749 -0.2420 -0.8560
14853TIP3    H165974   3.576   4.558   1.450  2.3683 -0.1808 -0.0745
14853TIP3    H265975   3.609   4.583   1.596 -1.5366  0.2405  0.7815
14854TIP3   OH265976   4.908   7.027   4.533 -0.4074 -0.2230 -0.1651
14854TIP3    H165977   4.975   6.959   4.528 -0.1223  0.0290  0.1981
14854TIP3    H265978   4.957   7.108   4.551 -0.8057 -0.0302  0.0523
14855TIP3   OH265979   5.459   3.306   3.928 -0.4659 -0.1324  0.0451
14855TIP3    H165980   5.466   3.211   3.912 -0.9022 -0.4158  1.4613
14855TIP3    H265981   5.550   3.335   3.937 -0.1835  0.1103 -3.2125
14856TIP3   OH265982   4.545   6.509  15.268 -0.2261  0.1584  0.2980
14856TIP3    H165983   4.613   6.490  15.332  0.0236  0.7733  0.2182
14856TIP3    H265984   4.592   6.529  15.187 -0.4638  1.1612  0.3912
14857TIP3   OH265985   6.143   1.766   4.888  0.6478  0.7655 -0.1782
14857TIP3    H165986   6.076   1.704   4.857  0.0234  1.3764 -0.0727
14857TIP3    H265987   6.134   1.764   4.983  0.0756  1.6174 -0.2120
14858TIP3   OH265988   3.406   6.917   5.047  0.3262 -0.2016 -0.4416
14858TIP3    H165989   3.460   6.975   5.101 -0.0571 -0.7078  0.4834
14858TIP3    H265990   3.469   6.867   4.995  0.6654  0.9767 -1.1821
14859TIP3   OH265991   6.984   3.307   1.792 -0.5314  0.3629  0.5341
14859TIP3    H165992   6.984   3.385   1.847  0.6124  0.8090 -0.0883
14859TIP3    H265993   7.076   3.295   1.767 -1.0450  0.1829 -1.2962
14860TIP3   OH265994   3.527   0.921   2.068 -0.4057 -0.0482  0.4800
14860TIP3    H165995   3.608   0.903   2.021 -0.4495 -0.7749  0.6646
14860TIP3    H265996   3.548   0.994   2.126  0.3156 -0.6713  1.0185
14861TIP3   OH265997   4.855   6.956   5.030  0.0610  0.2378 -0.1025
14861TIP3    H165998   4.774   6.927   5.072 -1.3417  3.1134 -0.7183
14861TIP3    H265999   4.838   6.947   4.936  0.1316  1.5930 -0.2583
14862TIP3   OH266000   3.356   3.345   2.057 -0.6945 -0.3018 -0.5371
14862TIP3    H166001   3.314   3.259   2.051  0.1282 -0.8105  0.8193
14862TIP3    H266002   3.431   3.331   2.115 -0.8073  1.4397  0.0462
14863TIP3   OH266003   4.748   6.227   3.265  0.6784  0.1113 -0.2001
14863TIP3    H166004   4.663   6.214   3.308  0.9881 -1.7762 -0.1446
14863TIP3    H266005   4.749   6.320   3.243 -0.8155  0.4493  1.0633
14864TIP3   OH266006   6.093   3.419   5.081 -0.3214 -0.3208 -0.2769
14864TIP3    H166007   6.074   3.326   5.071 -0.5678 -0.3453  0.3622
14864TIP3    H266008   6.186   3.423   5.100  0.0390 -0.3100 -1.9850
14865TIP3   OH266009   3.795   2.818   5.227 -0.2311  0.1216 -0.4039
14865TIP3    H166010   3.807   2.901   5.181 -2.4984  0.1791 -0.9174
14865TIP3    H266011   3.865   2.817   5.293 -0.6343  2.7871  0.1145
14866TIP3   OH266012   0.262   7.118   0.861  0.1038 -0.2813  0.2479
14866TIP3    H166013   0.178   7.072   0.855 -0.9880  1.6753  0.3297
14866TIP3    H266014   0.250   7.197   0.809  1.4767  0.6401  1.2934
14867TIP3   OH266015   1.153   4.679   2.198 -0.0648  0.4796  0.1704
14867TIP3    H166016   1.086   4.743   2.223 -2.2058 -0.7815 -2.1277
14867TIP3    H266017   1.139   4.606   2.258 -2.2841 -0.7070 -1.7122
14868TIP3   OH266018   2.300   3.809   5.385  0.1204 -0.0807  0.1575
14868TIP3    H166019   2.231   3.813   5.452  0.1050 -2.0785  0.3027
14868TIP3    H266020   2.381   3.802   5.435  0.0874 -1.8622 -0.0001
14869TIP3   OH266021   0.468   1.834   3.234  0.3404  0.6791 -0.6300
14869TIP3    H166022   0.510   1.869   3.156 -0.8570  2.5548 -0.4569
14869TIP3    H266023   0.513   1.876   3.307  0.0489  0.5395 -0.3684
14870TIP3   OH266024   3.074   4.296   2.505 -0.3877  0.4963 -0.2602
14870TIP3    H166025   3.089   4.286   2.599  0.4056  1.3711 -0.2767
14870TIP3    H266026   3.162   4.300   2.467 -0.7042 -0.2101 -1.0821
14871TIP3   OH266027   3.602   3.284   2.709 -0.6716  0.3881  0.5329
14871TIP3    H166028   3.585   3.369   2.668 -0.4126  0.8332  1.3335
14871TIP3    H266029   3.676   3.300   2.768 -1.2448 -0.1687  1.4091
14872TIP3   OH266030   4.436   6.883   4.837  0.0408 -0.1629  0.3420
14872TIP3    H166031   4.375   6.842   4.898  0.1571  0.3745  0.8203
14872TIP3    H266032   4.432   6.976   4.858 -0.5586  0.1387 -1.0424
14873TIP3   OH266033   2.837   5.235   0.719 -0.6478 -0.0624  0.0089
14873TIP3    H166034   2.778   5.304   0.749 -1.2649  0.5548 -2.4830
14873TIP3    H266035   2.903   5.281   0.667 -1.1153 -1.3219 -1.7608
14874TIP3   OH266036   6.773   2.195   3.907  0.1464  0.1607  0.2915
14874TIP3    H166037   6.721   2.167   3.983  0.2900  2.1275  1.1463
14874TIP3    H266038   6.708   2.230   3.846  0.2317  0.5760  0.4333
14875TIP3   OH266039   2.684   0.877   5.355  0.0367 -0.7284 -0.3840
14875TIP3    H166040   2.666   0.943   5.422  1.4965 -1.6089  0.9255
14875TIP3    H266041   2.645   0.796   5.390  1.5702 -1.3841 -0.1546
14876TIP3   OH266042   5.178   2.540   5.722 -0.7929  0.2927 -0.4986
14876TIP3    H166043   5.176   2.505   5.811 -1.0059 -1.2497 -1.1066
14876TIP3    H266044   5.121   2.483   5.672  0.2712  0.4392 -1.8931
14877TIP3   OH266045   4.031   0.076  14.850 -0.0972  0.0099 -0.2497
14877TIP3    H166046   4.093   0.125  14.904  0.5003 -1.1274  0.0995
14877TIP3    H266047   4.015  -0.005  14.898 -0.2877 -0.5914 -1.3173
14878TIP3   OH266048   4.525   4.388   0.325 -0.1311  0.5925 -0.5256
14878TIP3    H166049   4.471   4.455   0.368  1.7030  2.0888 -0.4664
14878TIP3    H266050   4.539   4.422   0.237  0.0452 -0.1688 -0.7873
14879TIP3   OH266051   3.122   1.455   1.035  0.2335  0.1673  0.1709
14879TIP3    H166052   3.031   1.462   1.008  0.4230 -1.1406 -0.8037
14879TIP3    H266053   3.169   1.427   0.957  1.1957 -0.9660  1.1424
14880TIP3   OH266054   5.056   5.248   4.659  0.7293 -0.1318  0.0987
14880TIP3    H166055   5.150   5.252   4.642  0.5733  1.1966 -0.5070
14880TIP3    H266056   5.049   5.206   4.745  1.8472 -0.5972 -0.0227
14881TIP3   OH266057   5.854   4.018   1.718  0.1076 -0.6326  0.3196
14881TIP3    H166058   5.834   4.107   1.746 -1.5174 -0.7117 -0.5157
14881TIP3    H266059   5.782   3.965   1.755  0.0066 -1.2969 -0.8139
14882TIP3   OH266060   7.122   3.432   0.607  0.4197  0.7093 -0.1265
14882TIP3    H166061   7.207   3.387   0.608 -0.8496 -1.7729 -1.1423
14882TIP3    H266062   7.108   3.458   0.698  0.8968 -1.5240  0.6045
14883TIP3   OH266063   1.315   6.470   3.172 -0.6890 -0.1905  0.6108
14883TIP3    H166064   1.253   6.540   3.187 -1.9162 -0.9848 -0.6177
14883TIP3    H266065   1.265   6.389   3.185  0.6678 -0.8543  1.9190
14884TIP3   OH266066   0.131   1.613   2.927  0.0084 -0.5197 -0.6401
14884TIP3    H166067   0.173   1.527   2.923  0.0756 -0.5013 -0.3310
14884TIP3    H266068   0.051   1.603   2.876 -0.3413 -0.9619 -0.0069
14885TIP3   OH266069   5.772   4.592   1.078  0.6502  0.2666 -0.2241
14885TIP3    H166070   5.715   4.574   1.154  0.7057  0.6382 -0.0948
14885TIP3    H266071   5.774   4.509   1.030  1.0285 -0.1308  0.4559
14886TIP3   OH266072   0.273   2.090   5.958  0.1380 -0.2864  0.1760
14886TIP3    H166073   0.319   2.165   5.920 -0.9584  1.0481  1.4212
14886TIP3    H266074   0.341   2.025   5.973  1.4091  1.1721  0.7919
14887TIP3   OH266075   7.034   5.151   2.766 -0.0860  0.3673 -0.4866
14887TIP3    H166076   7.062   5.220   2.826  1.0609 -0.6569  0.1877
14887TIP3    H266077   7.022   5.074   2.822  0.9638 -0.6009 -1.5540
14888TIP3   OH266078   6.082   2.571   0.135 -0.0835 -0.7973 -0.3701
14888TIP3    H166079   6.150   2.512   0.102  1.0293  0.6761 -0.7839
14888TIP3    H266080   6.087   2.647   0.078 -0.7789  0.1504  0.8148
14889TIP3   OH266081   4.815   6.351   2.678  0.2945  0.3330  0.0416
14889TIP3    H166082   4.729   6.309   2.676  0.7656 -0.6718  0.6096
14889TIP3    H266083   4.870   6.294   2.624  0.9937  0.0907  0.9983
14890TIP3   OH266084   5.236   1.973   2.278 -0.2573  0.2803  0.0226
14890TIP3    H166085   5.265   2.014   2.360  1.5812  0.7954 -0.8566
14890TIP3    H266086   5.272   2.029   2.210 -0.9069 -0.7250 -1.1601
14891TIP3   OH266087   6.065   3.752   3.969 -0.0433  0.8584 -0.3088
14891TIP3    H166088   6.074   3.844   3.994  1.9873  0.6962 -0.3032
14891TIP3    H266089   6.027   3.709   4.046  0.0770  1.4919  0.1061
14892TIP3   OH266090   7.119   4.077   0.245  0.0207  0.4867 -0.1923
14892TIP3    H166091   7.086   4.138   0.311  1.7737  2.6736 -1.2344
14892TIP3    H266092   7.048   4.014   0.232 -1.0827  1.1537  2.3600
14893TIP3   OH266093   1.261   2.320   0.332  0.7215  0.4873  0.4727
14893TIP3    H166094   1.236   2.407   0.364  0.8217  0.3088  1.0457
14893TIP3    H266095   1.202   2.260   0.378 -0.0872  0.3331 -0.7398
14894TIP3   OH266096   6.373   7.154   1.954 -0.1939 -0.0257  0.3521
14894TIP3    H166097   6.354   7.183   1.864  1.4497  0.9293  0.2924
14894TIP3    H266098   6.460   7.190   1.973 -0.1120 -1.0403  1.9849
14895TIP3   OH266099   7.087   2.261   0.946  0.2003  0.0888 -0.4582
14895TIP3    H166100   7.140   2.235   1.021  0.1745  0.6895 -0.2243
14895TIP3    H266101   7.117   2.206   0.874 -0.1584 -0.8738  0.1238
14896TIP3   OH266102   4.011   0.863  15.414 -0.0823 -0.3883  0.4672
14896TIP3    H166103   4.051   0.792  15.465  0.9337  0.0940  0.3506
14896TIP3    H266104   3.999   0.934  15.478  0.5387 -0.0387  0.2016
14897TIP3   OH266105   0.027   4.095   5.372  0.5757 -0.5120  0.3688
14897TIP3    H166106   0.067   4.025   5.425  2.4428  1.0889  1.1158
14897TIP3    H266107   0.080   4.172   5.390 -0.1048  0.5885 -2.1954
14898TIP3   OH266108   6.306   6.741   2.506  0.0371  0.0798 -0.2083
14898TIP3    H166109   6.394   6.754   2.470 -0.8015  2.1137 -1.6823
14898TIP3    H266110   6.261   6.824   2.488 -1.6624 -0.2890  2.0690
14899TIP3   OH266111   4.324   2.188   1.932 -0.2107 -0.5080  0.0933
14899TIP3    H166112   4.254   2.254   1.930  1.4210  1.2805  0.6832
14899TIP3    H266113   4.324   2.151   1.844  0.3580  1.9131 -0.9551
14900TIP3   OH266114   0.769   1.733   3.148  0.3994  0.4065  0.4053
14900TIP3    H166115   0.864   1.735   3.138  0.2165  1.5635 -1.3039
14900TIP3    H266116   0.737   1.791   3.079 -1.6629 -1.6358 -0.3953
14901TIP3   OH266117   6.502   3.645   1.953 -0.2777 -0.0059  0.1606
14901TIP3    H166118   6.432   3.676   2.011 -1.4229 -0.8619 -0.7324
14901TIP3    H266119   6.523   3.721   1.899 -1.5446 -0.1357 -0.5429
14902TIP3   OH266120   0.784   1.106   1.804  0.2827 -0.0855  0.1019
14902TIP3    H166121   0.811   1.095   1.713  0.2680 -1.0961  0.2189
14902TIP3    H266122   0.704   1.053   1.811 -0.0601  0.4815  0.5477
14903TIP3   OH266123   0.504   2.514   1.611 -0.1061  0.1845 -0.1080
14903TIP3    H166124   0.439   2.527   1.680 -0.0894 -0.3410  0.0122
14903TIP3    H266125   0.553   2.596   1.608 -0.8512  0.6297 -0.2846
14904TIP3   OH266126   1.214   2.676   2.318 -0.2805 -0.2709 -0.2467
14904TIP3    H166127   1.150   2.624   2.368 -1.5295  0.4744 -1.0487
14904TIP3    H266128   1.162   2.745   2.277  0.9332 -0.0889 -1.5154
14905TIP3   OH266129   5.020   4.788   2.902  0.2448  0.2801 -0.1746
14905TIP3    H166130   4.946   4.757   2.849  1.7204 -1.3414 -1.3783
14905TIP3    H266131   5.096   4.745   2.862  1.8260  1.9345  1.0253
14906TIP3   OH266132   1.261   5.937   1.563 -0.0316  0.0380  0.2958
14906TIP3    H166133   1.249   6.028   1.535  0.0097  0.0375  0.2778
14906TIP3    H266134   1.172   5.907   1.584 -0.1333 -0.1326 -0.3609
14907TIP3   OH266135   0.033   1.444  15.407  0.0777  0.1767 -0.4485
14907TIP3    H166136   0.090   1.369  15.424 -1.4574 -0.8550  0.2954
14907TIP3    H266137  -0.033   1.440  15.476 -1.0202  1.2147 -1.4118
14908TIP3   OH266138   7.035   1.186   3.464  0.0068  0.0768 -0.2955
14908TIP3    H166139   6.955   1.184   3.516 -0.5493 -1.6283 -1.1694
14908TIP3    H266140   7.005   1.174   3.374  1.3761 -2.6214 -0.4386
14909TIP3   OH266141   6.128   3.687   3.449  0.1951 -0.1795 -0.0231
14909TIP3    H166142   6.060   3.630   3.413  0.3759 -0.6280  0.3431
14909TIP3    H266143   6.135   3.660   3.541  0.1126  0.5908  0.2130
14910TIP3   OH266144   1.805   3.268  13.772  0.3457 -0.7991  0.6222
14910TIP3    H166145   1.768   3.354  13.752 -0.6266 -1.9745 -2.9474
14910TIP3    H266146   1.733   3.207  13.758  1.2538 -2.2993  2.3323
14911TIP3   OH266147   6.948   0.979   1.219 -0.3251 -0.4060  0.5990
14911TIP3    H166148   6.915   0.948   1.303 -2.0816  1.7104  0.7318
14911TIP3    H266149   6.882   1.042   1.189  0.7718 -0.4033 -1.8908
14912TIP3   OH266150   4.156   2.211   5.425 -0.6097 -0.2942 -0.6960
14912TIP3    H166151   4.168   2.271   5.352 -0.8379  1.1515  0.4446
14912TIP3    H266152   4.143   2.267   5.501  1.8903 -1.7681  0.8767
14913TIP3   OH266153   0.070   2.895  14.752 -0.0376  0.6971 -0.0690
14913TIP3    H166154   0.006   2.966  14.756 -1.0667 -0.1074 -1.8455
14913TIP3    H266155   0.018   2.816  14.767  0.7659  0.1469 -0.1704
14914TIP3   OH266156   1.908   3.163   3.810 -0.0441  0.4256  0.0568
14914TIP3    H166157   1.957   3.196   3.734 -0.6914  0.8974 -0.1592
14914TIP3    H266158   1.878   3.076   3.782 -0.4989  0.7006 -0.3381
14915TIP3   OH266159   5.574   2.854   2.038 -0.5906 -0.8376  0.0897
14915TIP3    H166160   5.647   2.832   1.980 -0.9274 -0.4677 -0.4777
14915TIP3    H266161   5.543   2.939   2.006 -1.9253 -1.4649 -0.3293
14916TIP3   OH266162   3.602   2.991   0.457 -0.0212 -0.0332  0.5446
14916TIP3    H166163   3.587   2.897   0.447  0.0952 -0.0499  0.5245
14916TIP3    H266164   3.564   3.013   0.542  0.3474 -0.1844  0.7506
14917TIP3   OH266165   4.727   2.878   3.729  0.3717 -0.5022 -0.0533
14917TIP3    H166166   4.668   2.810   3.759 -1.6848  0.8374 -0.9359
14917TIP3    H266167   4.670   2.948   3.697  2.4121  0.2903 -2.1828
14918TIP3   OH266168   4.348   0.132  15.189  0.0449  0.3459  0.2650
14918TIP3    H166169   4.384   0.087  15.266 -0.6789  0.6292  0.7721
14918TIP3    H266170   4.257   0.149  15.211  0.5811  3.0936  0.5314
14919TIP3   OH266171   6.015   1.625   3.785 -0.1640 -0.2851  0.0435
14919TIP3    H166172   6.034   1.544   3.832  0.1770  0.5002  1.3042
14919TIP3    H266173   6.037   1.607   3.694  2.6419 -0.7390  0.7702
14920TIP3   OH266174   3.955   3.343   2.021  0.8026 -0.4252 -0.5076
14920TIP3    H166175   3.942   3.316   2.112  1.7281  0.9212  0.0383
14920TIP3    H266176   3.890   3.293   1.972  0.4858 -1.3854  0.8527
14921TIP3   OH266177   5.569   3.003   1.647  0.5119 -0.1931  0.4255
14921TIP3    H166178   5.537   3.069   1.586 -0.6663 -2.5093 -1.5769
14921TIP3    H266179   5.560   3.043   1.734  1.6373  2.9310 -0.8433
14922TIP3   OH266180   1.931   5.258   3.673 -0.3911  0.7937 -0.7799
14922TIP3    H166181   1.903   5.272   3.583 -0.0941  2.1870 -0.6664
14922TIP3    H266182   2.010   5.205   3.666 -2.5467 -2.5647 -1.1345
14923TIP3   OH266183   6.848   0.774   3.327 -0.3010  0.3662 -0.0213
14923TIP3    H166184   6.786   0.841   3.300 -0.3761  0.4378  0.3264
14923TIP3    H266185   6.804   0.726   3.397  1.0604  2.1423  2.1114
14924TIP3   OH266186   5.614   3.003   3.312 -0.4696 -0.3025  0.4790
14924TIP3    H166187   5.534   3.038   3.352 -0.3339 -1.1110  1.4697
14924TIP3    H266188   5.585   2.924   3.267 -0.9203  1.4584 -2.4104
14925TIP3   OH266189   3.492   3.940   1.697 -0.0244  0.1688 -0.0800
14925TIP3    H166190   3.480   4.035   1.695 -0.2331  0.1536  0.3362
14925TIP3    H266191   3.413   3.905   1.655 -0.7150  0.1228  1.2487
14926TIP3   OH266192   4.096   6.375   1.264  0.0615  0.5362  0.6460
14926TIP3    H166193   4.093   6.451   1.206  1.8019  1.2309  1.4137
14926TIP3    H266194   4.088   6.412   1.352  1.9127 -0.0270  1.0899
14927TIP3   OH266195   5.157   4.058   2.632 -0.4628  1.1749 -0.4216
14927TIP3    H166196   5.128   3.968   2.644 -0.8968  1.2327 -1.0480
14927TIP3    H266197   5.147   4.098   2.719  3.2562 -0.3764  0.8436
14928TIP3   OH266198   2.824   4.046   1.729  0.3612 -0.1569 -0.0434
14928TIP3    H166199   2.741   4.079   1.695  0.0218  1.0370  1.8648
14928TIP3    H266200   2.815   3.951   1.727 -2.3637 -0.0497  3.1556
14929TIP3   OH266201   0.642   3.055   1.424  0.0574 -0.4501  0.2449
14929TIP3    H166202   0.696   3.012   1.359  1.0289  2.2527 -0.8148
14929TIP3    H266203   0.698   3.125   1.460 -1.0798 -0.7137  2.6518
14930TIP3   OH266204   3.177   1.201  13.689 -0.2195 -0.5701  0.5258
14930TIP3    H166205   3.236   1.130  13.666 -0.4761 -1.6105  2.8693
14930TIP3    H266206   3.191   1.213  13.784  0.7061  3.3057 -0.0005
14931TIP3   OH266207   0.345   3.646  15.130 -0.2070 -0.1050  0.2434
14931TIP3    H166208   0.269   3.699  15.156  0.7230  2.2331 -1.6866
14931TIP3    H266209   0.417   3.681  15.181  0.6270  1.2479 -1.8066
14932TIP3   OH266210   5.517   1.703   3.513 -0.0430 -0.6117 -0.3575
14932TIP3    H166211   5.424   1.681   3.504 -0.1186 -0.7239  0.6323
14932TIP3    H266212   5.528   1.722   3.606  1.0452 -1.1512 -0.3715
14933TIP3   OH266213   1.794   1.332   1.304 -0.1090  0.5695  0.8915
14933TIP3    H166214   1.733   1.279   1.355 -0.2850  0.6085  0.7201
14933TIP3    H266215   1.805   1.412   1.355 -1.0799  1.0449  0.3689
14934TIP3   OH266216   5.088   1.770   3.307  0.1344 -0.3817  0.6029
14934TIP3    H166217   5.068   1.797   3.397 -1.4871  0.7075 -0.0606
14934TIP3    H266218   5.105   1.852   3.261 -0.1792 -0.8502 -0.3564
14935TIP3   OH266219   4.866   1.913   0.501  0.2464  0.1971 -0.2249
14935TIP3    H166220   4.876   1.820   0.478 -1.5206  0.0468 -0.4413
14935TIP3    H266221   4.947   1.953   0.471 -0.6507 -0.5619 -3.8968
14936TIP3   OH266222   6.909   2.277   2.041 -0.9870 -0.2836 -0.8967
14936TIP3    H166223   6.897   2.285   2.136  2.0587 -1.4542 -0.3650
14936TIP3    H266224   6.870   2.192   2.019 -2.5334  0.4097 -0.8621
14937TIP3   OH266225   5.488   1.056   2.277 -0.7487  0.2119 -0.4621
14937TIP3    H166226   5.517   0.965   2.282 -1.5522  0.0180  0.7097
14937TIP3    H266227   5.569   1.107   2.272 -0.2938 -0.5467 -0.9825
14938TIP3   OH266228   3.494   6.343  15.046 -0.5973  0.0233 -0.1453
14938TIP3    H166229   3.535   6.422  15.081 -0.8929  0.6011 -1.0931
14938TIP3    H266230   3.508   6.277  15.114  0.5534  0.6168  0.2077
14939TIP3   OH266231   6.769   3.622   1.111  0.0972  0.0694  0.3665
14939TIP3    H166232   6.701   3.689   1.106 -0.0158 -0.1818 -2.2227
14939TIP3    H266233   6.729   3.552   1.164 -0.9261  0.7450  0.5093
14940TIP3   OH266234   3.219   6.385  13.692 -0.0149 -0.2218  0.1144
14940TIP3    H166235   3.305   6.352  13.666 -0.7362 -2.6563  0.7408
14940TIP3    H266236   3.159   6.353  13.624 -0.4407  1.6835 -0.4663
14941TIP3   OH266237   5.364   3.182   0.410 -0.4834 -0.0304  0.5586
14941TIP3    H166238   5.429   3.250   0.392 -0.0617 -0.6792 -0.4360
14941TIP3    H266239   5.395   3.140   0.490 -0.0801  0.1474  0.4956
14942TIP3   OH266240   6.052   5.877   5.315 -0.0029  0.5127  0.1986
14942TIP3    H166241   6.136   5.922   5.306 -0.0951  0.3292 -1.7391
14942TIP3    H266242   6.075   5.787   5.335  0.1912  1.1592  3.1781
14943TIP3   OH266243   6.073   4.017   5.675 -0.0354  0.1394 -0.4868
14943TIP3    H166244   6.152   4.054   5.713 -0.4541  1.6697 -1.0759
14943TIP3    H266245   6.007   4.025   5.744 -0.3789  1.4326 -0.9484
14944TIP3   OH266246   6.863   1.425   0.428  0.5309  0.0717 -0.0323
14944TIP3    H166247   6.892   1.454   0.514 -0.9654 -0.2961  0.5978
14944TIP3    H266248   6.858   1.505   0.376 -2.2952  0.8381  1.3236
14945TIP3   OH266249   6.709   2.712   4.069  0.4886 -0.3692  0.0219
14945TIP3    H166250   6.623   2.724   4.030  0.1586 -0.3009  0.7763
14945TIP3    H266251   6.770   2.724   3.996 -0.1507 -0.7999 -0.5938
14946TIP3   OH266252   0.582   3.123   0.474  0.5348 -0.3466  0.0234
14946TIP3    H166253   0.584   3.161   0.561  0.5995 -0.5006  0.0887
14946TIP3    H266254   0.530   3.185   0.422 -3.9895 -2.7732  1.3656
14947TIP3   OH266255   1.357   3.941   0.592  0.5467  0.6281 -0.0521
14947TIP3    H166256   1.444   3.910   0.619  0.5949  0.9346  0.1604
14947TIP3    H266257   1.314   3.864   0.556  1.3710  0.7588 -1.3408
14948TIP3   OH266258   2.430   4.482   3.594  0.0219 -0.1340  0.0491
14948TIP3    H166259   2.443   4.510   3.685 -0.1427  1.2937 -0.3536
14948TIP3    H266260   2.406   4.390   3.601  0.3586 -0.1282  1.4380
14949TIP3   OH266261   6.881   1.211  14.420  0.0138  0.3130  0.4370
14949TIP3    H166262   6.899   1.156  14.345  1.5648  0.9842  0.3028
14949TIP3    H266263   6.907   1.299  14.393 -0.9373  0.8450  1.1933
14950TIP3   OH266264   6.757   1.109   4.623  0.0196  0.5054  0.1194
14950TIP3    H166265   6.750   1.040   4.689 -1.3647  0.6098  0.0995
14950TIP3    H266266   6.847   1.142   4.632  0.4373 -0.7528  0.6605
14951TIP3   OH266267   3.899   6.715   2.039  0.3508 -0.2646 -0.0610
14951TIP3    H166268   3.891   6.793   2.094 -1.0925  0.0979 -0.7649
14951TIP3    H266269   3.991   6.715   2.011 -0.0283  2.1780 -1.4849
14952TIP3   OH266270   1.626   3.400   2.002 -0.0921 -0.3651  0.2907
14952TIP3    H166271   1.627   3.375   1.910  3.0481  1.3942 -0.2295
14952TIP3    H266272   1.543   3.448   2.013  0.3763  1.0681 -2.1058
14953TIP3   OH266273   1.686   4.598   3.031 -0.2126 -0.4989  0.4433
14953TIP3    H166274   1.770   4.580   3.074  0.0823 -2.4421 -0.8827
14953TIP3    H266275   1.710   4.625   2.943 -0.8986  1.6492  0.8772
14954TIP3   OH266276   3.091   5.799   2.541 -0.1893  0.0182 -0.5306
14954TIP3    H166277   3.109   5.715   2.499 -2.1214  0.1504 -1.7062
14954TIP3    H266278   3.064   5.856   2.469  0.4330  1.4627  0.3517
14955TIP3   OH266279   5.393   1.507   4.609 -0.3938 -0.0313 -0.0510
14955TIP3    H166280   5.302   1.532   4.629 -0.4151 -1.8711  2.4021
14955TIP3    H266281   5.444   1.544   4.681  0.4784 -1.1297 -0.0951
14956TIP3   OH266282   6.503   0.923   2.369  0.0403 -0.0224  0.4287
14956TIP3    H166283   6.411   0.944   2.355  0.4293  2.5320  1.3941
14956TIP3    H266284   6.503   0.855   2.436 -1.1369  0.0310  0.4898
14957TIP3   OH266285   5.192   6.256   2.139 -0.2230 -0.3905 -0.0760
14957TIP3    H166286   5.211   6.312   2.064 -1.8971  0.6140  0.2366
14957TIP3    H266287   5.251   6.287   2.208 -0.9986  0.8822  0.0337
14958TIP3   OH266288   5.279   4.903   1.341  0.2447  0.4971 -0.0201
14958TIP3    H166289   5.264   4.828   1.398 -0.1400 -0.4507 -1.3453
14958TIP3    H266290   5.269   4.979   1.398 -0.2362 -0.4291  1.1457
14959TIP3   OH266291   5.715   2.229   3.895  0.4620 -0.0292 -0.2865
14959TIP3    H166292   5.673   2.314   3.910  1.3543  0.3303  0.2136
14959TIP3    H266293   5.645   2.165   3.910 -0.4682  0.6381 -1.5974
14960TIP3   OH266294   2.691   3.197   1.019  0.0157 -0.0626 -0.4315
14960TIP3    H166295   2.630   3.123   1.027 -0.9918  0.7908 -0.0836
14960TIP3    H266296   2.634   3.274   1.012  1.0705  0.7933  0.2915
14961TIP3   OH266297   3.610   1.371   1.159  0.2512 -0.2342 -0.6948
14961TIP3    H166298   3.538   1.417   1.116  0.4426  0.1158 -0.6405
14961TIP3    H266299   3.664   1.440   1.196 -0.0954 -0.5326  0.4134
14962TIP3   OH266300   5.382   0.492   2.123 -0.0552 -0.2141 -0.2090
14962TIP3    H166301   5.363   0.586   2.133  0.8988 -0.1627  1.1301
14962TIP3    H266302   5.298   0.454   2.095 -0.0862  1.2558 -2.2391
14963TIP3   OH266303   4.154   2.039   3.927 -0.2594 -0.0023  0.3354
14963TIP3    H166304   4.135   1.946   3.933  2.1112 -0.5535 -0.0536
14963TIP3    H266305   4.177   2.065   4.017 -1.0178  0.2299  0.4629
14964TIP3   OH266306   3.575   5.802   2.577 -0.2552  0.0913  0.1923
14964TIP3    H166307   3.526   5.850   2.510 -0.1808  0.5925  0.4988
14964TIP3    H266308   3.659   5.783   2.536  0.2353  1.4311  0.5583
14965TIP3   OH266309   4.836   1.627   2.364  0.1366  0.5620  0.3957
14965TIP3    H166310   4.838   1.567   2.289  1.3599  0.4346  0.5343
14965TIP3    H266311   4.927   1.639   2.389 -0.1783  1.5491  1.1259
14966TIP3   OH266312   2.912   3.880  15.299  0.7678  0.8896  0.8151
14966TIP3    H166313   2.855   3.872  15.375  0.6996 -1.1852  0.5832
14966TIP3    H266314   2.907   3.794  15.256  2.5450  1.3090 -0.2823
14967TIP3   OH266315   5.485   4.513   1.149 -0.1511  0.5694  0.0092
14967TIP3    H166316   5.457   4.604   1.132  0.1637  0.5417 -0.6499
14967TIP3    H266317   5.424   4.460   1.098 -0.2645  0.4128  0.3089
14968TIP3   OH266318   4.548   1.740   5.090 -0.0669  0.6915  0.5705
14968TIP3    H166319   4.474   1.780   5.045  1.1784 -0.5373 -2.7031
14968TIP3    H266320   4.610   1.812   5.103 -1.3867  1.5325  2.5263
14969TIP3   OH266321   2.879   2.062   1.726 -0.1081  0.2867  0.1997
14969TIP3    H166322   2.974   2.053   1.736  0.0204 -0.4601 -1.4287
14969TIP3    H266323   2.861   2.154   1.745  0.7810  0.1805  1.6212
14970TIP3   OH266324   3.937   3.249   1.668 -0.1561 -0.4562  0.1777
14970TIP3    H166325   3.973   3.329   1.632 -0.8771  0.2104  0.9216
14970TIP3    H266326   3.998   3.225   1.739 -0.3153 -0.1845  0.4081
14971TIP3   OH266327   0.699   1.123   2.253 -0.2515 -0.0967 -0.0224
14971TIP3    H166328   0.647   1.167   2.185 -0.1726  0.5644  0.3384
14971TIP3    H266329   0.759   1.066   2.205 -0.6453 -0.1281 -0.4815
14972TIP3   OH266330   0.284   6.745   2.545 -0.1474  0.5145 -0.0561
14972TIP3    H166331   0.215   6.807   2.522 -0.3649  0.2951  0.0023
14972TIP3    H266332   0.260   6.665   2.498  0.6219  0.7483 -0.8694
14973TIP3   OH266333   2.976   2.068   3.179 -0.0346 -0.0713  0.0984
14973TIP3    H166334   3.055   2.065   3.233 -0.7406  2.1124  1.2998
14973TIP3    H266335   3.006   2.104   3.095  0.1716  1.1604  0.6937
14974TIP3   OH266336   0.343   4.234   5.246 -0.6294  0.1465  0.1767
14974TIP3    H166337   0.314   4.260   5.159 -1.8186 -1.5411  0.0289
14974TIP3    H266338   0.273   4.264   5.304 -0.4845  0.0810  0.3861
14975TIP3   OH266339   4.619   4.139  15.274 -0.2360  0.1701 -0.3380
14975TIP3    H166340   4.545   4.195  15.298 -0.1455  1.0710 -2.0938
14975TIP3    H266341   4.694   4.181  15.316 -0.5884 -0.2374  0.7029
14976TIP3   OH266342   6.963   0.402   4.236  0.1384 -0.4306 -0.1392
14976TIP3    H166343   6.873   0.378   4.259  0.9230 -2.7496  0.6055
14976TIP3    H266344   6.958   0.424   4.143 -1.1985 -0.5020 -0.1036
14977TIP3   OH266345   0.646   1.483   1.880 -0.3274 -0.2046  0.4242
14977TIP3    H166346   0.600   1.490   1.796 -0.0186 -0.2207  0.2513
14977TIP3    H266347   0.641   1.570   1.918 -0.8932 -0.3200  0.6146
14978TIP3   OH266348   0.311   1.147   2.044  0.2383 -0.0353  0.2819
14978TIP3    H166349   0.323   1.128   2.138 -1.7842 -1.4210  0.2971
14978TIP3    H266350   0.397   1.133   2.006  1.5437  2.3263  2.2054
14979TIP3   OH266351   6.258   4.268  15.427 -0.0487 -0.0558 -0.5931
14979TIP3    H166352   6.198   4.319  15.373 -0.8425 -1.4109 -1.0125
14979TIP3    H266353   6.337   4.261  15.373 -0.7933 -1.2997 -1.5490
14980TIP3   OH266354   1.628   0.331   4.663  0.4039 -0.5183 -0.5770
14980TIP3    H166355   1.606   0.252   4.613 -0.4785 -0.3669 -0.4372
14980TIP3    H266356   1.628   0.303   4.754  0.7773 -0.5114 -0.5745
14981TIP3   OH266357   0.928   6.382   0.468  0.4881  0.5544 -0.0924
14981TIP3    H166358   0.973   6.301   0.443 -1.0041 -0.1042 -0.6992
14981TIP3    H266359   0.925   6.379   0.564  1.3361  0.4039 -0.0593
14982TIP3   OH266360   6.145   6.145  14.939  0.0063 -0.0377 -0.2241
14982TIP3    H166361   6.221   6.100  14.901 -1.0142 -1.2678 -0.8549
14982TIP3    H266362   6.095   6.174  14.863 -1.3001 -1.2220  0.1672
14983TIP3   OH266363   0.966   2.400   3.135  0.0559  0.1650  0.0593
14983TIP3    H166364   0.931   2.462   3.071  2.9711  1.6636 -0.1588
14983TIP3    H266365   0.961   2.446   3.219 -2.1092 -1.1409  0.7106
14984TIP3   OH266366   1.476   1.256   3.107  0.1699 -0.3098 -0.6061
14984TIP3    H166367   1.551   1.224   3.157 -0.8638 -1.8462 -0.0332
14984TIP3    H266368   1.516   1.303   3.033  1.6932  0.3406  0.5909
14985TIP3   OH266369   0.060   1.879  15.225 -0.1899 -0.5247 -0.4843
14985TIP3    H166370  -0.001   1.805  15.230 -1.2531  0.4467  1.8275
14985TIP3    H266371   0.147   1.839  15.226 -0.7618 -1.8450 -2.0055
14986TIP3   OH266372   0.276   3.032   2.980 -0.0926  0.3261  0.3198
14986TIP3    H166373   0.292   3.125   2.966  0.5194  0.1083 -0.4447
14986TIP3    H266374   0.284   2.993   2.893  0.6249 -0.5815  0.7901
14987TIP3   OH266375   5.404   0.117   4.298 -0.0492  0.7680  0.1874
14987TIP3    H166376   5.446   0.202   4.309 -1.9327  2.0486 -2.0609
14987TIP3    H266377   5.311   0.137   4.290 -0.7420 -1.6801  1.4073
14988TIP3   OH266378   6.034   3.510   2.079  0.1235 -0.1046 -0.0820
14988TIP3    H166379   6.064   3.420   2.063 -1.4030 -1.0606  2.2337
14988TIP3    H266380   6.105   3.550   2.130  0.3080 -0.3201 -0.1674
14989TIP3   OH266381   5.283   6.694   2.719  0.3150  0.0243 -0.0524
14989TIP3    H166382   5.330   6.699   2.802  1.0875 -0.7069 -0.4391
14989TIP3    H266383   5.236   6.611   2.722 -1.3118  0.9505  0.5112
14990TIP3   OH266384   2.591   3.500   3.388 -0.0907 -0.1165 -0.1424
14990TIP3    H166385   2.613   3.593   3.387  3.2887 -0.8592 -0.9549
14990TIP3    H266386   2.521   3.491   3.323 -1.5273  2.0641  1.0581
14991TIP3   OH266387   3.302   6.380   1.962  0.6360  0.1994  0.4722
14991TIP3    H166388   3.297   6.463   2.010 -1.9710  1.3551 -1.6502
14991TIP3    H266389   3.240   6.323   2.007 -0.5416  0.7358 -0.4292
14992TIP3   OH266390   0.845   2.763   2.733 -0.5455  0.2238  0.4724
14992TIP3    H166391   0.865   2.674   2.763  0.1384  0.4161  0.6019
14992TIP3    H266392   0.836   2.814   2.813 -0.5467  0.3517  0.3910
14993TIP3   OH266393   1.438   2.185   3.015  0.1473 -0.4620 -0.0811
14993TIP3    H166394   1.439   2.262   3.073  0.8378  0.0213 -0.7342
14993TIP3    H266395   1.387   2.121   3.063 -1.4151  0.7886 -0.0244
14994TIP3   OH266396   6.004   4.259   0.812  0.5010  0.2629  0.1492
14994TIP3    H166397   6.096   4.286   0.804  0.4442  1.0896  2.0241
14994TIP3    H266398   5.964   4.284   0.729  1.7017  1.0317 -0.2052
14995TIP3   OH266399   1.680   0.071   2.412 -0.0615 -0.5816 -0.1947
14995TIP3    H166400   1.768   0.091   2.381 -0.1164 -0.1524 -0.0750
14995TIP3    H266401   1.679  -0.024   2.424  0.7803 -0.4368  1.0421
14996TIP3   OH266402   1.342   1.012  13.729 -0.0460 -0.3309 -0.3001
14996TIP3    H166403   1.303   0.926  13.714  3.1239 -1.9195 -0.0183
14996TIP3    H266404   1.391   1.001  13.811  2.2439  1.0180 -1.4274
14997TIP3   OH266405   6.985   1.976   3.372 -0.2235  0.1986 -1.0184
14997TIP3    H166406   6.970   2.019   3.456  0.6027  0.7731 -1.1636
14997TIP3    H266407   7.015   2.046   3.314 -0.6543 -0.2228 -1.7581
14998TIP3   OH266408   0.653   1.957  14.691  0.0054 -0.3886 -0.5219
14998TIP3    H166409   0.586   2.003  14.640  0.6576  1.9554  0.6849
14998TIP3    H266410   0.735   1.975  14.645  0.6120  1.8351  1.3632
14999TIP3   OH266411   6.650   4.282   3.321  0.5644 -0.1265  0.2127
14999TIP3    H166412   6.695   4.352   3.274 -0.8224 -2.2291 -4.4875
14999TIP3    H266413   6.588   4.328   3.378  0.3595  2.4769 -2.0057
15000TIP3   OH266414   5.213   6.160   2.895  0.1490  0.3581 -0.4077
15000TIP3    H166415   5.286   6.130   2.949 -0.9835 -0.5115  0.6728
15000TIP3    H266416   5.169   6.079   2.868  0.4060  0.8034 -2.2397
15001TIP3   OH266417   3.650   1.313   3.365  0.1136 -0.3921 -0.1816
15001TIP3    H166418   3.591   1.243   3.336 -0.4855  0.5324 -1.1940
15001TIP3    H266419   3.668   1.364   3.286  0.6234  0.5552  0.5424
15002TIP3   OH266420   7.085   2.650   3.914  0.1096 -0.2913  0.0031
15002TIP3    H166421   7.064   2.688   3.999 -0.6427 -1.4841  0.3627
15002TIP3    H266422   7.002   2.617   3.881  0.8231 -2.0814 -0.0672
15003TIP3   OH266423   6.070   6.450  13.424  0.6406  0.5002 -0.0575
15003TIP3    H166424   6.091   6.447  13.517  2.7618  1.4295 -0.5008
15003TIP3    H266425   5.986   6.403  13.418  1.9832 -2.2766  1.8810
15004TIP3   OH266426   6.648   0.302   4.403  0.1005  0.1094  0.1547
15004TIP3    H166427   6.582   0.288   4.335  0.6130  1.9489 -0.7445
15004TIP3    H266428   6.605   0.358   4.467 -0.0751 -0.8813  0.9206
15005TIP3   OH266429   5.537   0.812   2.510  0.1905  0.1943 -0.0962
15005TIP3    H166430   5.535   0.724   2.548  1.8049  0.1444 -0.0988
15005TIP3    H266431   5.560   0.798   2.419 -0.5973  0.5543 -0.3560
15006TIP3   OH266432   0.243   2.593   1.686  0.4546 -0.6546  0.0811
15006TIP3    H166433   0.216   2.505   1.712  1.1156 -0.5898  1.0326
15006TIP3    H266434   0.250   2.589   1.591  2.3781 -2.1976  0.2605
15007TIP3   OH266435   4.823   3.660   3.753  0.6555  0.8686  0.5969
15007TIP3    H166436   4.862   3.611   3.826  0.6288 -0.3612 -0.1984
15007TIP3    H266437   4.747   3.703   3.791  1.4922  1.4632  1.6414
15008TIP3   OH266438   4.199   6.119   1.012  0.4167 -0.2448  0.0313
15008TIP3    H166439   4.239   6.096   0.928  1.1400  1.5040 -0.1355
15008TIP3    H266440   4.268   6.104   1.077 -0.2569 -1.9368  0.3677
15009TIP3   OH266441   3.864   2.280   3.103 -0.5060  0.0496  0.1715
15009TIP3    H166442   3.842   2.354   3.047  1.1021 -0.0764 -0.6801
15009TIP3    H266443   3.948   2.305   3.142 -0.1892 -1.1160  0.2379
15010TIP3   OH266444   0.305   2.085   3.486  0.0676  0.1928 -0.1353
15010TIP3    H166445   0.249   2.133   3.426  0.5533  1.9492  0.7850
15010TIP3    H266446   0.390   2.127   3.479  0.4658 -0.4408  0.7927
15011TIP3   OH266447   6.149   3.925   1.963  0.8256 -0.2345 -0.1412
15011TIP3    H166448   6.143   4.007   2.011  2.3032 -0.5416  0.5943
15011TIP3    H266449   6.160   3.951   1.871 -0.0243  0.3696 -0.0751
15012TIP3   OH266450   1.069   0.429   1.353  0.3187  0.5872  0.0185
15012TIP3    H166451   1.100   0.365   1.416  0.0949 -0.1662 -0.6251
15012TIP3    H266452   0.998   0.385   1.306 -0.4033  1.5997  0.1416
15013TIP3   OH266453   3.280   0.788   4.001  0.1418  0.3063  0.7800
15013TIP3    H166454   3.207   0.823   4.052  0.1463  1.4029  0.0428
15013TIP3    H266455   3.247   0.704   3.967 -1.6647  1.8297 -1.4649
15014TIP3   OH266456   6.476   2.862   1.969  0.1129  0.1588  0.3831
15014TIP3    H166457   6.463   2.767   1.970 -0.8577  0.2869  2.9144
15014TIP3    H266458   6.414   2.896   2.033  0.8570  2.4716 -0.0618
15015TIP3   OH266459   6.676   3.437   4.798  0.9704 -0.0576  0.3131
15015TIP3    H166460   6.731   3.370   4.758  1.8729  0.2966  0.9490
15015TIP3    H266461   6.620   3.469   4.727 -0.7213 -2.7188  0.3845
15016TIP3   OH266462   4.676   4.447   3.568 -0.1432 -0.8222 -0.2705
15016TIP3    H166463   4.613   4.509   3.533  1.2269  0.7549  0.0107
15016TIP3    H266464   4.756   4.463   3.517  0.8774 -0.8059  1.2946
15017TIP3   OH266465   6.157   2.519   2.016 -0.2486 -0.1122 -0.5233
15017TIP3    H166466   6.063   2.501   2.026 -0.3482 -0.7700 -2.3646
15017TIP3    H266467   6.171   2.518   1.921  1.8072 -1.0621 -0.2369
15018TIP3   OH266468   5.905   2.266   1.291 -0.2434 -0.0312  0.5219
15018TIP3    H166469   5.940   2.183   1.256 -0.1200  0.3052 -0.1730
15018TIP3    H266470   5.971   2.295   1.354 -0.2938 -0.4696  0.7785
15019TIP3   OH266471   6.125   2.468   4.790 -0.5849 -0.3538  0.1334
15019TIP3    H166472   6.201   2.519   4.818 -0.1092 -1.1917  0.3832
15019TIP3    H266473   6.059   2.534   4.766  0.1735  0.3756  0.0327
15020TIP3   OH266474   0.162   0.725   0.055  0.6914 -0.1910  0.4977
15020TIP3    H166475   0.126   0.810   0.078  0.0243 -0.2040 -0.4652
15020TIP3    H266476   0.244   0.720   0.105  0.5154  0.8147  0.9117
15021TIP3   OH266477   6.334   5.577   0.332 -0.2189  0.0654  0.0470
15021TIP3    H166478   6.405   5.599   0.272 -0.3488 -2.5071 -1.0956
15021TIP3    H266479   6.375   5.575   0.419  1.0777 -1.1416 -0.5743
15022TIP3   OH266480   6.771   3.205   2.844  0.3399 -0.2890 -0.0016
15022TIP3    H166481   6.850   3.256   2.831  1.7975 -1.9210  2.0696
15022TIP3    H266482   6.753   3.213   2.938 -0.4899 -2.0377  0.0026
15023TIP3   OH266483   5.680   6.554  14.716 -0.2521  0.1449 -0.0844
15023TIP3    H166484   5.726   6.637  14.712  0.6253 -0.3646 -0.8193
15023TIP3    H266485   5.612   6.560  14.649 -0.0229  0.1658 -0.3117
15024TIP3   OH266486   4.410   2.394   0.887  0.3749  0.1894  0.3504
15024TIP3    H166487   4.445   2.460   0.828  0.8721 -0.1649  0.2504
15024TIP3    H266488   4.483   2.335   0.904  0.6315  1.0765  2.4552
15025TIP3   OH266489   5.589   5.801   4.529 -0.5610  0.7635  0.4332
15025TIP3    H166490   5.593   5.897   4.523  0.9822  0.6352 -0.8126
15025TIP3    H266491   5.650   5.770   4.462 -0.7406 -1.0974  1.1033
15026TIP3   OH266492   3.987   4.333   3.882 -0.3501  0.2639  0.2099
15026TIP3    H166493   4.026   4.277   3.815 -1.1056  1.1194 -0.9539
15026TIP3    H266494   3.895   4.307   3.884 -0.4369  0.5995  0.5459
15027TIP3   OH266495   1.402   6.636   3.486 -0.2411 -0.2100 -0.0104
15027TIP3    H166496   1.398   6.544   3.458 -2.5483 -0.3786  0.7672
15027TIP3    H266497   1.482   6.642   3.538  0.7771 -1.3863 -1.3949
15028TIP3   OH266498   0.172   3.502   2.357 -0.1312 -0.1753  0.2007
15028TIP3    H166499   0.087   3.470   2.325  0.5166 -1.5477 -0.1912
15028TIP3    H266500   0.234   3.433   2.332  0.9965  0.5181  1.0641
15029TIP3   OH266501   6.635   2.576  15.467  0.6653  0.1607 -0.3302
15029TIP3    H166502   6.720   2.592  15.507  0.5735  1.5917 -0.6654
15029TIP3    H266503   6.648   2.600  15.375  0.2337 -0.8001 -0.6456
15030TIP3   OH266504   6.160   2.835   2.420 -0.9749  1.0680 -0.1957
15030TIP3    H166505   6.195   2.784   2.347 -0.7834  1.3955 -0.3319
15030TIP3    H266506   6.082   2.786   2.448 -2.9321  2.6241 -2.7102
15031TIP3   OH266507   4.888   3.963   5.852  0.1389  0.2872 -0.1670
15031TIP3    H166508   4.896   3.993   5.943 -1.5291  0.3031 -0.0185
15031TIP3    H266509   4.967   3.995   5.810  0.3816  1.2905  1.0006
15032TIP3   OH266510   1.756   1.447   2.614 -0.6860 -0.2459 -0.0240
15032TIP3    H166511   1.818   1.487   2.552 -1.6573  1.3406 -0.0026
15032TIP3    H266512   1.768   1.498   2.694 -2.7847  0.8196 -0.3539
15033TIP3   OH266513   6.787   6.023   4.066  0.2311  0.1114 -0.7433
15033TIP3    H166514   6.823   6.011   3.978  0.5009  1.2216 -0.7902
15033TIP3    H266515   6.798   6.116   4.084 -1.1000  0.1615 -0.0896
15034TIP3   OH266516   5.381   1.472   3.693 -0.1288 -0.8535 -0.8125
15034TIP3    H166517   5.299   1.423   3.706 -0.2771 -1.0956 -2.5696
15034TIP3    H266518   5.359   1.537   3.627  0.4351  0.7375  0.5463
15035TIP3   OH266519   6.508   3.574   4.187 -0.4206 -0.8959  0.1569
15035TIP3    H166520   6.433   3.570   4.127 -0.7171 -1.6140  0.5779
15035TIP3    H266521   6.469   3.579   4.274  0.0042  1.1096  0.2556
15036TIP3   OH266522   1.695   2.017   3.739 -0.3599 -0.2416 -0.3221
15036TIP3    H166523   1.687   1.941   3.683 -0.0147 -0.7353  0.2924
15036TIP3    H266524   1.769   2.066   3.703 -0.3292 -0.4003 -0.4763
15037TIP3   OH266525   5.274   3.952   0.306 -0.0315  0.0705 -0.0626
15037TIP3    H166526   5.234   3.937   0.391 -0.3632  1.1672 -0.0102
15037TIP3    H266527   5.309   3.867   0.280  0.5781 -0.1409  1.4170
15038TIP3   OH266528   4.545   0.492   4.371  0.2052  0.5796  0.1101
15038TIP3    H166529   4.515   0.448   4.291  0.3594 -0.2454  0.5063
15038TIP3    H266530   4.616   0.436   4.404  2.0536  2.3845 -0.7070
15039TIP3   OH266531   2.524   4.277   5.737 -0.2365 -0.2632  0.1291
15039TIP3    H166532   2.486   4.363   5.722 -0.1369 -0.0379  1.1379
15039TIP3    H266533   2.617   4.295   5.752  0.1404 -0.7305 -1.5022
15040TIP3   OH266534   1.307   6.770   1.403 -0.2986 -0.3519  0.4885
15040TIP3    H166535   1.279   6.697   1.458  0.8912  1.1965  3.2680
15040TIP3    H266536   1.389   6.800   1.444  0.2677  1.2653 -1.7619
15041TIP3   OH266537   4.079   1.169   0.435 -0.0782 -0.2592  0.4854
15041TIP3    H166538   4.129   1.088   0.433  1.0229  0.3968  1.0106
15041TIP3    H266539   3.988   1.141   0.446  0.0780 -1.4873 -1.2364
15042TIP3   OH266540   0.574   3.751   3.255  0.1118 -0.2291  0.5469
15042TIP3    H166541   0.499   3.803   3.287 -0.4594 -0.8116  0.1657
15042TIP3    H266542   0.547   3.660   3.268  0.5613 -0.4485 -0.0524
15043TIP3   OH266543   5.712   2.338   5.263 -0.2999  0.2150  0.0332
15043TIP3    H166544   5.627   2.309   5.295 -0.1051 -1.0975 -0.6284
15043TIP3    H266545   5.748   2.263   5.216  0.8134  1.0656 -0.5137
15044TIP3   OH266546   3.965   6.718   0.008 -0.1120  0.1696 -0.6848
15044TIP3    H166547   3.955   6.809  -0.021  0.9973  0.2191 -0.9455
15044TIP3    H266548   4.054   6.714   0.043 -0.7413 -0.3992  0.8869
15045TIP3   OH266549   3.516   0.596   1.772  0.0782  0.3876  0.2218
15045TIP3    H166550   3.479   0.666   1.826  0.7066 -0.2247  1.4667
15045TIP3    H266551   3.494   0.515   1.818  0.0718 -0.1916 -0.7748
15046TIP3   OH266552   4.642   1.671  13.071  0.6558  0.4306  0.0014
15046TIP3    H166553   4.613   1.636  12.987 -0.3437  0.1090  0.4819
15046TIP3    H266554   4.587   1.748  13.085  0.9725  0.6105  0.2676
15047TIP3   OH266555   5.403   3.137   3.408  0.5434 -0.0118  0.1531
15047TIP3    H166556   5.379   3.093   3.489  1.1044  0.1916  0.4360
15047TIP3    H266557   5.443   3.219   3.437 -1.5705  1.2703 -0.3680
15048TIP3   OH266558   0.178   3.225   0.415  0.5056 -0.3270 -0.3980
15048TIP3    H166559   0.244   3.294   0.407  1.5405 -1.2160  0.2999
15048TIP3    H266560   0.167   3.215   0.510 -0.7265 -0.1082 -0.5129
15049TIP3   OH266561   6.535   2.245   3.427  0.0700  0.6128 -0.2123
15049TIP3    H166562   6.571   2.286   3.349 -0.8331  1.3601 -0.2383
15049TIP3    H266563   6.440   2.258   3.421 -0.0816  0.0046  0.6234
15050TIP3   OH266564   6.077   4.319   1.440 -0.9063  0.0606 -0.4814
15050TIP3    H166565   6.070   4.349   1.350 -0.6684 -0.4769 -0.6793
15050TIP3    H266566   6.166   4.341   1.467 -0.3311 -1.5146 -1.0167
15051TIP3   OH266567   1.196   2.066   4.744  0.5085 -0.4283 -0.1338
15051TIP3    H166568   1.265   2.052   4.808 -0.6841  0.2406  1.3193
15051TIP3    H266569   1.180   1.979   4.707  0.4815 -1.0221  1.2379
15052TIP3   OH266570   4.620   0.637   1.685 -0.2052  0.6233  0.2328
15052TIP3    H166571   4.685   0.688   1.637 -0.3007 -0.5162 -1.1208
15052TIP3    H266572   4.539   0.688   1.676  0.0415  1.0164  0.2127
15053TIP3   OH266573   6.633   3.164   0.365  0.0404  0.1080  0.0242
15053TIP3    H166574   6.677   3.100   0.308  1.3816  1.0516 -0.0269
15053TIP3    H266575   6.699   3.188   0.430 -0.8622  0.5031  0.8110
15054TIP3   OH266576   0.733   3.532   1.575  0.3044 -0.3144 -0.4572
15054TIP3    H166577   0.724   3.562   1.484 -0.2768  0.0505 -0.2744
15054TIP3    H266578   0.675   3.456   1.581 -1.1619  0.8546  0.1643
15055TIP3   OH266579   1.235   5.284  15.363 -0.2221  0.2151 -0.0444
15055TIP3    H166580   1.320   5.249  15.334 -0.1602  0.8803 -0.6769
15055TIP3    H266581   1.256   5.372  15.395 -0.2887 -0.5134  2.0474
15056TIP3   OH266582   1.823   4.603  14.918 -0.7313  0.1635 -0.1124
15056TIP3    H166583   1.822   4.647  15.003 -2.0131 -1.2619  0.6451
15056TIP3    H266584   1.769   4.659  14.862 -1.0496  0.3811  0.4019
15057TIP3   OH266585   0.864   2.998  14.973  0.5282  0.4033  0.2620
15057TIP3    H166586   0.855   3.048  15.054 -1.4045  0.2270  0.1789
15057TIP3    H266587   0.872   2.907  15.002  0.8346  0.4413  0.2947
15058TIP3   OH266588   4.470   0.342  13.338 -0.2434  0.0653  0.5446
15058TIP3    H166589   4.532   0.406  13.303 -1.6484  0.6908 -0.8235
15058TIP3    H266590   4.459   0.278  13.267 -0.6189 -0.4395  1.0503
15059TIP3   OH266591   0.300   3.519   5.485 -0.1636 -0.3075  0.5093
15059TIP3    H166592   0.381   3.550   5.525  0.3778  0.4312 -1.0896
15059TIP3    H266593   0.294   3.428   5.511  1.7557 -0.6740 -0.2115
15060TIP3   OH266594   1.051   2.134   2.393  0.2580  0.5172 -0.1541
15060TIP3    H166595   1.003   2.172   2.319  1.5156  1.0240 -0.7317
15060TIP3    H266596   1.036   2.040   2.385 -0.1811  0.6267 -0.6648
15061TIP3   OH266597   6.797   3.671   3.843  0.6661 -0.5830  0.3563
15061TIP3    H166598   6.892   3.678   3.843  0.6157  0.2398 -0.1548
15061TIP3    H266599   6.779   3.578   3.857  1.4936 -0.3488  3.3753
15062TIP3   OH266600   5.287   1.473  15.090  0.1594 -0.4419  0.1779
15062TIP3    H166601   5.273   1.543  15.154  0.7247  0.4177 -0.6140
15062TIP3    H266602   5.209   1.418  15.097 -1.3489  1.4977 -0.7142
15063TIP3   OH266603   7.124   6.046   0.464 -0.1640 -0.7495  0.9063
15063TIP3    H166604   7.117   6.054   0.369 -2.1623 -1.8479  0.9498
15063TIP3    H266605   7.206   5.998   0.477  1.5553  1.7825 -0.1177
15064TIP3   OH266606   1.276   0.125   4.980 -0.0796 -0.0770  0.4319
15064TIP3    H166607   1.340   0.055   4.971  0.0187  0.1243 -0.5050
15064TIP3    H266608   1.325   0.205   4.960 -0.5272  0.1160  0.1061
15065TIP3   OH266609   2.275   3.939   2.357  0.1762 -0.1339  0.7024
15065TIP3    H166610   2.323   3.932   2.440  1.5231 -2.2383 -0.2160
15065TIP3    H266611   2.296   4.026   2.324  0.2032  0.4533  2.2255
15066TIP3   OH266612   2.416   3.225   1.077 -0.5077 -0.0909 -0.0690
15066TIP3    H166613   2.422   3.201   1.170  1.8325 -0.5155 -0.2986
15066TIP3    H266614   2.371   3.152   1.037 -0.8338 -0.2717  0.6119
15067TIP3   OH266615   6.103   1.772  15.363  0.8089  0.3167  0.0453
15067TIP3    H166616   6.194   1.786  15.388  1.0105 -0.8117 -0.0531
15067TIP3    H266617   6.061   1.737  15.442  0.0545  2.4220  0.6200
15068TIP3   OH266618   2.952   0.064   0.461  0.0647  0.2775  0.3092
15068TIP3    H166619   2.961  -0.001   0.391  0.5392  0.5401  0.1249
15068TIP3    H266620   2.901   0.135   0.422  1.7616  1.1888 -0.3096
15069TIP3   OH266621   6.718   2.052  13.002  0.0694 -0.3224  0.2108
15069TIP3    H166622   6.702   2.063  12.908  2.1461 -1.5408 -0.3153
15069TIP3    H266623   6.741   1.959  13.012  1.7309  0.2071  1.6190
15070TIP3   OH266624   6.333   6.578   2.841 -0.1882  0.0991 -0.5807
15070TIP3    H166625   6.379   6.660   2.858 -0.1630  0.0411 -0.3702
15070TIP3    H266626   6.399   6.523   2.798 -0.2369  0.2254 -0.8174
15071TIP3   OH266627   6.835   6.761   3.093  0.1781  0.3314 -0.1360
15071TIP3    H166628   6.901   6.816   3.052  1.9409 -0.8475  1.0287
15071TIP3    H266629   6.816   6.805   3.176  0.1794  0.1802 -0.0561
15072TIP3   OH266630   6.948   2.918  14.284  0.3096 -0.0903  0.3548
15072TIP3    H166631   6.912   2.874  14.361 -1.6366  2.3682  0.9265
15072TIP3    H266632   6.952   3.010  14.308 -0.9257  0.8406 -2.6678
15073TIP3   OH266633   7.108   0.487   5.480  0.2619 -0.1508  0.1098
15073TIP3    H166634   7.203   0.483   5.487  0.1700 -0.5569  1.2318
15073TIP3    H266635   7.080   0.532   5.559 -0.4624  0.3047 -0.3983
15074TIP3   OH266636   1.293   3.264   2.239  1.0483 -0.0392 -0.0507
15074TIP3    H166637   1.250   3.349   2.246 -0.4764 -0.7523 -0.5653
15074TIP3    H266638   1.370   3.271   2.296  0.1252  1.1759  1.0747
15075TIP3   OH266639   4.527   5.336   3.848 -0.2164  0.0234 -0.1217
15075TIP3    H166640   4.615   5.302   3.862 -0.3561 -1.0220 -1.6421
15075TIP3    H266641   4.539   5.413   3.792 -0.2359  0.1420  0.0365
15076TIP3   OH266642   2.392   0.968   1.328 -0.6344 -0.0968  0.0745
15076TIP3    H166643   2.347   0.885   1.342  0.8279 -0.7235  1.2520
15076TIP3    H266644   2.435   0.958   1.243 -0.0424 -0.7624  0.4438
15077TIP3   OH266645   1.693   0.465   1.635  0.2767  0.9541  0.1197
15077TIP3    H166646   1.598   0.469   1.629  0.2761 -1.8183 -2.6679
15077TIP3    H266647   1.724   0.511   1.557  1.2395  1.9413  1.0726
15078TIP3   OH266648   1.307   3.543  12.792  0.3880 -0.7351  0.1138
15078TIP3    H166649   1.245   3.492  12.844  0.4127 -1.7278 -0.8085
15078TIP3    H266650   1.350   3.478  12.736 -0.2135  0.4072 -1.7042
15079TIP3   OH266651   1.462   0.016   0.357 -0.1530  0.5877  0.1710
15079TIP3    H166652   1.395   0.084   0.366 -1.7156 -0.7838 -0.8477
15079TIP3    H266653   1.416  -0.058   0.319  1.7571 -0.7160  0.3356
15080TIP3   OH266654   3.316   4.346   2.374  0.1295  0.5067 -0.0423
15080TIP3    H166655   3.327   4.394   2.457 -1.0182  0.6055  0.0590
15080TIP3    H266656   3.402   4.351   2.332  0.1252  2.3722  0.1243
15081TIP3   OH266657   7.086   3.651   4.915 -0.6899 -0.5725  0.2946
15081TIP3    H166658   7.057   3.733   4.955 -1.1189 -1.1623  1.2136
15081TIP3    H266659   7.178   3.644   4.940 -0.7579 -0.5647  0.5524
15082TIP3   OH266660   3.008   1.770   0.880  0.2031 -0.4079  0.1111
15082TIP3    H166661   2.952   1.692   0.874 -0.7712  0.2558  0.2979
15082TIP3    H266662   3.004   1.809   0.793 -0.9472  0.5201  0.5720
15083TIP3   OH266663   0.946   6.267   0.725  0.2903 -0.4785  0.2217
15083TIP3    H166664   0.880   6.198   0.717 -0.2168 -0.0928  0.9642
15083TIP3    H266665   1.021   6.224   0.766  0.4176 -0.8691 -0.4199
15084TIP3   OH266666   1.548   5.130   3.438  0.2323 -0.0960 -0.1286
15084TIP3    H166667   1.492   5.138   3.361 -0.6051  0.4683  0.5359
15084TIP3    H266668   1.620   5.074   3.409 -2.8526 -4.5075  0.2381
15085TIP3   OH266669   4.165   4.799   5.583  1.0686 -0.1499  0.0020
15085TIP3    H166670   4.217   4.812   5.662 -0.8675  0.1117  1.2551
15085TIP3    H266671   4.109   4.723   5.603  1.4733 -0.8903 -1.5912
15086TIP3   OH266672   6.114   6.571  15.166 -0.0720  0.5809  0.0798
15086TIP3    H166673   6.096   6.587  15.073  0.0763 -0.6136 -0.1663
15086TIP3    H266674   6.035   6.600  15.211 -0.1795  1.0821 -0.4350
15087TIP3   OH266675   0.968   4.088   2.638  0.1073  0.6587  0.5042
15087TIP3    H166676   0.941   4.002   2.672 -0.9828  0.1602 -1.5326
15087TIP3    H266677   0.886   4.129   2.610  0.8526  1.4742 -0.4904
15088TIP3   OH266678   2.082   3.007  14.169  0.0120  0.2915  0.6643
15088TIP3    H166679   2.016   3.065  14.132  1.1473  1.2285  0.0576
15088TIP3    H266680   2.057   2.920  14.140 -1.2784  0.5707  0.9312
15089TIP3   OH266681   2.321   0.686   3.838  0.4763 -0.7520  0.5446
15089TIP3    H166682   2.238   0.722   3.808  1.0604  0.7031  0.6158
15089TIP3    H266683   2.314   0.685   3.934  0.0162 -1.9545  0.5098
15090TIP3   OH266684   2.482   2.373   2.116  0.1749  0.1599  0.0107
15090TIP3    H166685   2.511   2.413   2.198  0.7144 -0.5424  0.1713
15090TIP3    H266686   2.535   2.416   2.048  0.5246 -0.0489  0.1486
15091TIP3   OH266687   1.874   2.320   3.239  0.0999  0.4193 -0.9592
15091TIP3    H166688   1.785   2.340   3.267  0.7556  0.3067  1.3158
15091TIP3    H266689   1.863   2.251   3.173 -1.5839  1.7039 -2.0649
15092TIP3   OH266690   1.059   4.943   3.405  0.4592  0.1841  0.1249
15092TIP3    H166691   1.076   4.963   3.497  1.2660  1.1314 -0.2086
15092TIP3    H266692   0.999   5.012   3.377  1.0043  0.4948 -0.3015
15093TIP3   OH266693   3.364   2.644   4.109  0.5321 -0.4173 -0.3656
15093TIP3    H166694   3.394   2.679   4.025 -0.3241  0.6127 -0.2616
15093TIP3    H266695   3.420   2.688   4.174  0.3342 -0.2355 -0.3179
15094TIP3   OH266696   1.321   3.299   1.323 -0.0620  0.5448 -0.3157
15094TIP3    H166697   1.264   3.236   1.366  0.6833 -0.2911 -0.5363
15094TIP3    H266698   1.322   3.273   1.231  1.8908 -0.4034 -0.0471
15095TIP3   OH266699   1.136   6.446   2.430  0.1302 -0.0027 -0.5268
15095TIP3    H166700   1.127   6.476   2.520  1.9783  0.1636 -0.3650
15095TIP3    H266701   1.108   6.521   2.377 -1.6345 -0.3467 -0.1049
15096TIP3   OH266702   5.386   6.190   1.418 -0.0645  0.6748  0.1096
15096TIP3    H166703   5.326   6.244   1.365 -0.1740  0.5434  0.0990
15096TIP3    H266704   5.396   6.110   1.367  0.2715  0.7740  0.0183
15097TIP3   OH266705   5.611   6.756   4.947 -0.1280 -0.0455  0.2385
15097TIP3    H166706   5.692   6.789   4.908 -0.2888 -1.1927 -1.0772
15097TIP3    H266707   5.593   6.817   5.019  1.6113  0.5258  0.2083
15098TIP3   OH266708   2.931   2.620   2.916  0.2978  0.0981  0.0339
15098TIP3    H166709   2.917   2.709   2.885 -0.2551  0.0146  0.0418
15098TIP3    H266710   2.962   2.573   2.838  1.8524  0.5964  0.3422
15099TIP3   OH266711   1.634   6.668   4.668  0.1516  0.2069 -0.0287
15099TIP3    H166712   1.541   6.689   4.678  0.1087  0.7510 -1.4261
15099TIP3    H266713   1.665   6.729   4.601  0.7693 -2.1427 -1.9507
15100TIP3   OH266714   0.211   4.767   3.612 -0.5267  0.7477 -0.0453
15100TIP3    H166715   0.241   4.677   3.609 -1.0851  0.5811 -0.7128
15100TIP3    H266716   0.265   4.808   3.680 -1.8524 -0.6613  1.9024
15101TIP3   OH266717   0.791   2.322   3.638  0.2338  1.0111 -0.0676
15101TIP3    H166718   0.792   2.372   3.720  0.7934  0.2252  0.4123
15101TIP3    H266719   0.883   2.317   3.612  0.5382 -2.2401  1.4234
15102TIP3   OH266720   0.820   4.312   2.287  0.5102 -0.5124 -0.5766
15102TIP3    H166721   0.770   4.241   2.327  1.1091 -1.6795 -1.8750
15102TIP3    H266722   0.901   4.317   2.338  0.7172 -1.1518 -0.8346
15103TIP3   OH266723   0.066   3.636   4.351  0.3640  0.0668  0.7349
15103TIP3    H166724   0.100   3.679   4.272 -1.3475  0.9169  0.4469
15103TIP3    H266725  -0.021   3.604   4.326  0.1795 -0.4553  2.0034
15104TIP3   OH266726   1.457   2.372   4.909 -1.0531  0.1108 -0.1713
15104TIP3    H166727   1.451   2.375   4.814  0.1706  1.7701 -0.2100
15104TIP3    H266728   1.447   2.463   4.937  0.1755 -0.1517  1.1943
15105TIP3   OH266729   0.982   3.508   0.809 -0.2576 -0.0930 -0.1205
15105TIP3    H166730   0.950   3.425   0.774 -0.4089  0.0559 -0.3290
15105TIP3    H266731   0.903   3.559   0.827 -0.1397  0.2683 -0.6210
15106TIP3   OH266732   1.819   6.622   3.248 -0.2884 -0.3217  0.1319
15106TIP3    H166733   1.766   6.689   3.293 -2.6880  0.8834 -4.1977
15106TIP3    H266734   1.760   6.547   3.238  0.7130 -1.1545  0.3820
15107TIP3   OH266735   1.478   2.267   0.936 -0.6665 -0.0831 -0.4404
15107TIP3    H166736   1.553   2.209   0.925  0.0075  0.2459  2.1503
15107TIP3    H266737   1.510   2.353   0.910 -0.4057 -0.1114 -0.2139
15108TIP3   OH266738   2.207   5.222   3.912 -0.0934 -0.3506 -0.7675
15108TIP3    H166739   2.203   5.236   3.818  0.7180  1.2957 -0.5822
15108TIP3    H266740   2.251   5.300   3.946  1.1888 -1.7109  0.7906
15109TIP3   OH266741   6.735   2.887   2.059  0.3010  0.3945  0.5763
15109TIP3    H166742   6.654   2.874   2.010  0.5566 -0.1107  0.2756
15109TIP3    H266743   6.766   2.974   2.033 -0.0267  0.4903  0.5143
15110TIP3   OH266744   5.916   3.917   3.181 -0.2896 -0.0768  0.2145
15110TIP3    H166745   5.962   3.999   3.201 -0.8003  0.2530  0.0347
15110TIP3    H266746   5.823   3.937   3.195 -0.3440 -0.8971  1.1377
15111TIP3   OH266747   3.358   3.933   3.217  0.1932  0.3082 -0.1864
15111TIP3    H166748   3.343   4.005   3.155 -1.3530  0.6538  0.5409
15111TIP3    H266749   3.297   3.952   3.289 -0.8408 -2.1751 -0.3628
15112TIP3   OH266750   0.590   2.275   2.238  1.0758  0.5860  0.7374
15112TIP3    H166751   0.654   2.204   2.234  0.8056  0.3262  1.1194
15112TIP3    H266752   0.605   2.316   2.323  0.4840  0.2932  0.9866
15113TIP3   OH266753   5.109   4.161   4.041 -0.0171 -0.0939  0.3049
15113TIP3    H166754   5.101   4.257   4.038 -0.2470 -0.1570 -1.3251
15113TIP3    H266755   5.186   4.145   4.095  0.5608  1.0348 -0.1660
15114TIP3   OH266756   6.045   1.219   4.936  0.2592  0.4268  0.4423
15114TIP3    H166757   5.984   1.270   4.990 -0.4554  0.6511 -0.5798
15114TIP3    H266758   6.042   1.261   4.850  0.1022 -0.9949 -0.2520
15115TIP3   OH266759   4.435   4.994   5.415  0.0142 -0.3975 -0.3390
15115TIP3    H166760   4.403   5.003   5.325 -1.2214 -0.2900  0.0958
15115TIP3    H266761   4.453   4.900   5.425  1.0584 -0.2711 -0.9891
15116TIP3   OH266762   2.964   2.262   0.616  0.0628  0.8225 -0.1356
15116TIP3    H166763   3.024   2.209   0.564 -0.2249  0.5048 -0.1443
15116TIP3    H266764   2.899   2.294   0.552 -1.5744 -1.3616  0.3663
15117TIP3   OH266765   4.008   4.945   0.143  0.4017  0.3342 -0.1973
15117TIP3    H166766   4.077   4.913   0.200 -0.9062 -0.0000  1.2263
15117TIP3    H266767   4.054   4.980   0.067  2.1188  0.0746  0.7034
15118TIP3   OH266768   3.715   2.949  14.177  0.0879  0.5133  0.3485
15118TIP3    H166769   3.795   2.900  14.156 -0.5739 -0.6675  0.5070
15118TIP3    H266770   3.746   3.031  14.216  1.2288 -0.2333  1.0436
15119TIP3   OH266771   1.010   0.562   1.984  0.3111 -0.4031 -0.3622
15119TIP3    H166772   0.928   0.514   1.995  1.5164 -2.5589 -0.4364
15119TIP3    H266773   1.021   0.611   2.066 -0.7907 -0.4723 -0.1641
15120TIP3   OH266774   5.691   4.304   3.679 -0.3856  0.3095  0.6058
15120TIP3    H166775   5.605   4.311   3.637  0.2502  0.7019 -0.6485
15120TIP3    H266776   5.686   4.225   3.732 -1.7352  0.6772  1.0439
15121TIP3   OH266777   2.337   2.350   5.124  0.3676  0.6432  0.4021
15121TIP3    H166778   2.350   2.419   5.060  0.1473  1.5826  1.3562
15121TIP3    H266779   2.404   2.365   5.190  0.3402 -0.0729  0.5960
15122TIP3   OH266780   6.275   4.988   0.630 -0.4186 -0.0815  0.3073
15122TIP3    H166781   6.259   5.082   0.623 -2.8983 -0.6463 -2.4463
15122TIP3    H266782   6.241   4.964   0.717 -2.4748  1.0763 -0.1512
15123TIP3   OH266783   5.935   6.327  15.308  0.0668  0.3122  0.7367
15123TIP3    H166784   5.904   6.335  15.218 -1.8261  0.2771  1.3758
15123TIP3    H266785   5.902   6.405  15.353  1.7288  0.7790  1.2155
15124TIP3   OH266786   1.246   5.345   5.453 -0.7535 -0.0166  0.4505
15124TIP3    H166787   1.166   5.301   5.481 -2.3332  1.1440 -2.0848
15124TIP3    H266788   1.300   5.276   5.415 -1.0332 -0.6195  1.1525
15125TIP3   OH266789   0.513   5.945   1.640  0.4630 -0.4450 -0.1037
15125TIP3    H166790   0.428   5.936   1.599 -0.4894  1.9165  1.2399
15125TIP3    H266791   0.521   5.869   1.697 -1.3355 -0.0241  0.7371
15126TIP3   OH266792   5.547   5.886   1.588  0.0671  0.2617 -0.3576
15126TIP3    H166793   5.640   5.864   1.592 -0.4699 -2.6406 -2.2580
15126TIP3    H266794   5.526   5.887   1.495 -2.3769 -1.9187  0.0945
15127TIP3   OH266795   5.142   3.672   2.418 -0.2217 -0.7244  0.2431
15127TIP3    H166796   5.126   3.654   2.511  1.6468  2.8666  1.3521
15127TIP3    H266797   5.057   3.658   2.377 -1.1539 -2.1562  2.5080
15128TIP3   OH266798   0.946   0.416   2.264  0.4069 -0.2932 -0.0185
15128TIP3    H166799   0.871   0.408   2.324  1.9123 -2.8794  1.6392
15128TIP3    H266800   0.921   0.362   2.189  0.3431 -0.6747  0.2711
15129TIP3   OH266801   6.083   5.298   1.815  0.4142 -0.3151 -0.2230
15129TIP3    H166802   6.105   5.353   1.890  3.0691  0.2975 -1.3620
15129TIP3    H266803   6.051   5.216   1.854  1.3662  0.1317  1.5784
15130TIP3   OH266804   5.721   0.932   2.676 -0.2513  1.0524  0.2546
15130TIP3    H166805   5.672   0.899   2.601 -0.3444  1.1455  0.2738
15130TIP3    H266806   5.801   0.969   2.639  0.2964 -0.0538  0.3304
15131TIP3   OH266807   2.027   1.544   3.629  0.2045 -0.8331  0.4016
15131TIP3    H166808   2.020   1.503   3.715  0.2724 -2.5830 -0.3993
15131TIP3    H266809   2.004   1.474   3.567  2.9457 -0.4596 -1.1356
15132TIP3   OH266810   4.078   3.181   3.896 -0.5050 -0.1559 -0.0688
15132TIP3    H166811   4.113   3.141   3.976 -0.3102  0.1055 -0.0211
15132TIP3    H266812   4.146   3.242   3.869 -1.8168  1.9504  1.2206
15133TIP3   OH266813   0.029   4.673  15.531  0.6541 -0.0046  0.0190
15133TIP3    H166814  -0.065   4.654  15.528  0.8721 -0.8748 -3.0729
15133TIP3    H266815   0.066   4.605  15.587 -0.5858  0.5481  1.5417
15134TIP3   OH266816   5.578   6.477   3.856 -0.4908 -0.0864  0.2731
15134TIP3    H166817   5.648   6.413   3.851  1.1799  1.5842  1.5107
15134TIP3    H266818   5.517   6.441   3.921 -0.4058 -1.1815 -0.2485
15135TIP3   OH266819   1.252   2.469   0.822  0.2959  0.0633  0.0398
15135TIP3    H166820   1.313   2.505   0.758  1.0131  1.4573  1.4779
15135TIP3    H266821   1.240   2.378   0.795  0.5849  0.6295 -2.0611
15136TIP3   OH266822   4.269   2.862   1.916 -0.1986 -0.3304  0.4481
15136TIP3    H166823   4.275   2.910   1.833 -1.2949 -0.3893  0.3204
15136TIP3    H266824   4.309   2.777   1.898 -2.0573 -1.0225 -0.5608
15137TIP3   OH266825   0.337   6.632   1.922  0.3632  0.5589 -0.1628
15137TIP3    H166826   0.257   6.681   1.904  0.6217  0.9849 -0.1696
15137TIP3    H266827   0.372   6.609   1.836 -0.1947 -0.3512 -0.1424
15138TIP3   OH266828   0.808   2.341   0.895  0.3603 -0.2653  0.2247
15138TIP3    H166829   0.898   2.309   0.896  0.3198 -0.5106 -1.7917
15138TIP3    H266830   0.768   2.303   0.974  2.4411  1.2110  2.0482
15139TIP3   OH266831   0.986   0.549   3.755 -0.2460 -0.1765 -0.1869
15139TIP3    H166832   1.000   0.642   3.738 -2.9912  0.5087  1.1257
15139TIP3    H266833   0.894   0.534   3.733 -1.2174 -1.4380  4.2783
15140TIP3   OH266834   4.080   0.621   4.119  0.0929 -0.0064 -0.4923
15140TIP3    H166835   4.087   0.654   4.208 -0.5261 -1.2801  0.0471
15140TIP3    H266836   4.031   0.539   4.128  2.5360 -1.6731 -1.6062
15141TIP3   OH266837   0.958   5.781   4.441  0.0427 -0.0529  0.0306
15141TIP3    H166838   0.987   5.808   4.353  0.1361 -1.7703 -0.4901
15141TIP3    H266839   1.038   5.782   4.494  0.3900 -1.0325 -0.4447
15142TIP3   OH266840   0.538   4.374   1.863 -0.2015  0.0777  0.3668
15142TIP3    H166841   0.478   4.446   1.844  0.5892  0.5726 -0.2630
15142TIP3    H266842   0.611   4.414   1.909  0.1043 -0.3660  0.2712
15143TIP3   OH266843   1.644   3.645   5.198 -0.3944 -0.2679 -0.2992
15143TIP3    H166844   1.620   3.714   5.259 -1.2126 -0.4529 -0.4059
15143TIP3    H266845   1.731   3.616   5.227 -0.0777  0.7363 -0.2077
15144TIP3   OH266846   0.407   0.900   4.030 -0.6782 -0.2123 -0.3190
15144TIP3    H166847   0.475   0.949   4.076  0.1726 -2.0072  0.3820
15144TIP3    H266848   0.442   0.811   4.023 -2.4168 -0.8563 -1.0725
15145TIP3   OH266849   2.249   6.157   2.278  0.8180 -0.3358 -0.9682
15145TIP3    H166850   2.340   6.155   2.248  0.4124 -2.3630 -2.1374
15145TIP3    H266851   2.200   6.187   2.202  0.6837  2.7012  0.2449
15146TIP3   OH266852   1.580   1.550   3.871 -0.2649  0.2224 -0.0319
15146TIP3    H166853   1.594   1.455   3.869 -0.1539  0.2553 -1.2277
15146TIP3    H266854   1.557   1.569   3.962 -2.4354 -1.2830 -0.2085
15147TIP3   OH266855   5.366   3.388  14.570 -0.4161  0.2388  0.5653
15147TIP3    H166856   5.279   3.349  14.579 -0.4443  0.4966  1.4748
15147TIP3    H266857   5.354   3.480  14.591 -0.0448  0.4149  0.0236
15148TIP3   OH266858   1.104   2.114   5.199  0.1903 -0.4403 -0.1809
15148TIP3    H166859   1.035   2.168   5.238 -0.1441 -0.1676 -1.1414
15148TIP3    H266860   1.179   2.173   5.190  0.0487 -0.3210 -0.5815
15149TIP3   OH266861   5.328   3.228   1.585 -0.0869 -0.3511  0.3375
15149TIP3    H166862   5.275   3.291   1.537 -0.3499 -1.0756 -0.3460
15149TIP3    H266863   5.418   3.257   1.570 -0.2312  0.1764  0.4861
15150TIP3   OH266864   1.246   3.133   0.827 -0.0717 -0.2426 -0.2960
15150TIP3    H166865   1.260   3.175   0.742 -1.4161  0.7342 -0.0484
15150TIP3    H266866   1.184   3.062   0.809  0.2823 -0.5703 -0.2591
15151TIP3   OH266867   3.348   5.034   5.219  0.3448 -0.1870  0.6116
15151TIP3    H166868   3.406   5.024   5.295  0.4612 -0.5393  0.4750
15151TIP3    H266869   3.392   4.987   5.148 -0.0836 -0.4262  0.4985
15152TIP3   OH266870   6.629   4.448  10.983  0.2030  0.3612  0.3260
15152TIP3    H166871   6.698   4.395  10.945  0.9070 -0.2486  2.4064
15152TIP3    H266872   6.639   4.534  10.941  0.9205 -0.2920 -0.8668
15153TIP3   OH266873   4.555   1.370   0.031  0.0619  0.3200  0.3114
15153TIP3    H166874   4.460   1.378   0.019 -0.0110  0.8443  1.1502
15153TIP3    H266875   4.574   1.424   0.108  1.1068  0.5474 -0.0981
15154TIP3   OH266876   4.084   3.828   5.590 -0.1590 -0.4329 -0.2445
15154TIP3    H166877   4.046   3.756   5.640 -1.2632  1.0884  1.1556
15154TIP3    H266878   4.135   3.877   5.654 -0.8993  1.0696 -0.7940
15155TIP3   OH266879   0.695   5.686   4.082  0.7536  0.4301  0.8253
15155TIP3    H166880   0.643   5.742   4.140  0.5120  0.8474  0.2057
15155TIP3    H266881   0.659   5.702   3.995  0.5336 -0.8417  0.6666
15156TIP3   OH266882   4.456   0.994   4.087  0.4038 -0.1504  0.1728
15156TIP3    H166883   4.383   1.013   4.145 -1.7972 -2.4243 -1.7539
15156TIP3    H266884   4.489   0.909   4.116  1.0985  0.0058 -0.1417
15157TIP3   OH266885   3.104   4.144   5.372 -0.0137  0.0439  0.0909
15157TIP3    H166886   3.186   4.105   5.341 -0.4556 -0.8892  0.0829
15157TIP3    H266887   3.112   4.144   5.468 -0.1347 -0.3505  0.1031
15158TIP3   OH266888   6.464   4.699   4.933  0.5849  0.3965 -0.2132
15158TIP3    H166889   6.384   4.647   4.938  0.1608  1.0220 -0.5311
15158TIP3    H266890   6.533   4.635   4.918  0.0111 -0.0353 -1.0395
15159TIP3   OH266891   1.667   2.553   4.734  0.4708  0.0913 -0.2463
15159TIP3    H166892   1.716   2.475   4.763 -0.2636 -0.2390  0.1230
15159TIP3    H266893   1.668   2.611   4.810 -2.1782 -1.1244  0.7810
15160TIP3   OH266894   0.204   3.054   4.508 -0.1910 -0.0643  0.3746
15160TIP3    H166895   0.294   3.076   4.532  0.3412 -1.2198 -0.5340
15160TIP3    H266896   0.211   2.971   4.460 -1.6589  0.2386 -0.3851
15161TIP3   OH266897   5.873   5.649   3.901 -0.3361 -0.3221  0.4987
15161TIP3    H166898   5.903   5.559   3.911 -2.5153 -1.1411 -0.0041
15161TIP3    H266899   5.935   5.701   3.952 -0.0369 -2.2873  2.1800
15162TIP3   OH266900   6.147   1.219   1.801 -0.1583 -0.4471 -0.4323
15162TIP3    H166901   6.155   1.308   1.765  1.2576 -0.9980 -1.4866
15162TIP3    H266902   6.144   1.162   1.725 -0.6798 -1.3526  0.2560
15163TIP3   OH266903   1.144   4.600  12.809 -0.5069  0.0881 -0.0903
15163TIP3    H166904   1.238   4.610  12.822 -0.2168 -0.3823 -1.7192
15163TIP3    H266905   1.133   4.597  12.714 -2.0046 -1.3404  0.1130
15164TIP3   OH266906   7.134   0.948   5.284 -0.0876 -0.1750 -0.0707
15164TIP3    H166907   7.196   0.875   5.290  0.6015  0.3130 -1.0367
15164TIP3    H266908   7.063   0.914   5.229 -1.3582 -1.1842  2.1401
15165TIP3   OH266909   0.371   2.700   3.044 -0.0789  0.2111  0.8550
15165TIP3    H166910   0.437   2.632   3.033  0.0610  0.4971 -0.0666
15165TIP3    H266911   0.307   2.682   2.975 -0.2365  0.7887  0.8497
15166TIP3   OH266912   4.458   1.428   5.102  0.2010 -0.0899 -0.0647
15166TIP3    H166913   4.550   1.429   5.075  0.1309 -0.6432 -0.3420
15166TIP3    H266914   4.436   1.519   5.117  0.3800  0.1856 -1.4334
15167TIP3   OH266915   1.339   0.182  12.692 -0.1716 -0.1505 -0.1414
15167TIP3    H166916   1.354   0.088  12.705  1.6237  0.2235  0.5931
15167TIP3    H266917   1.380   0.201  12.608  0.6446  0.2367  0.3411
15168TIP3   OH266918   0.647   3.261   4.805 -0.4383  0.5258 -0.0071
15168TIP3    H166919   0.616   3.172   4.785 -0.7098  0.5190  0.4156
15168TIP3    H266920   0.593   3.288   4.880  0.8509  0.3716  0.9899
15169TIP3   OH266921   4.137   7.055  13.904 -0.0209 -0.7430 -0.1231
15169TIP3    H166922   4.215   7.070  13.852 -0.9973  1.4735 -1.0091
15169TIP3    H266923   4.064   7.067  13.843 -1.1407  0.6688  1.4268
15170TIP3   OH266924   0.648   4.315   4.878  0.0799  0.2777 -0.9427
15170TIP3    H166925   0.700   4.395   4.875  0.5244 -0.0486 -4.5462
15170TIP3    H266926   0.711   4.246   4.902  0.1287  0.6869  0.1190
15171TIP3   OH266927   2.987   4.173   3.510  0.0724 -0.3293 -0.7515
15171TIP3    H166928   2.922   4.144   3.447  0.9354 -3.1584 -0.4230
15171TIP3    H266929   3.070   4.137   3.478  1.4177  2.6080 -0.7903
15172TIP3   OH266930   5.982   3.352   1.400 -0.5411  0.0215 -0.0389
15172TIP3    H166931   6.074   3.330   1.413 -0.1348  2.2992  1.2261
15172TIP3    H266932   5.984   3.443   1.367 -2.3420  0.2397  0.4377
15173TIP3   OH266933   5.518   5.721   0.861 -0.1246 -0.4918 -0.2770
15173TIP3    H166934   5.577   5.670   0.805 -0.4335  0.2154 -1.2631
15173TIP3    H266935   5.487   5.658   0.926 -0.4208 -1.5383 -1.4160
15174TIP3   OH266936   2.606   5.766   4.159  0.3487 -0.7107 -0.0845
15174TIP3    H166937   2.668   5.694   4.173  0.5045 -0.5943 -0.1733
15174TIP3    H266938   2.635   5.835   4.218  0.8150 -0.3394 -0.7293
15175TIP3   OH266939   3.417   0.142  13.866 -0.0287  0.0235  0.0088
15175TIP3    H166940   3.352   0.180  13.925  0.3013  0.2869  0.2087
15175TIP3    H266941   3.486   0.110  13.924 -0.2423 -0.7655 -0.1631
15176TIP3   OH266942   1.109   4.598   4.600 -0.8113 -0.0762  0.9456
15176TIP3    H166943   1.076   4.682   4.631  1.2457  0.6943  1.1068
15176TIP3    H266944   1.093   4.599   4.505 -0.5983  0.5803  0.9179
15177TIP3   OH266945   1.078   1.958   0.950  0.1688  0.3408 -0.1352
15177TIP3    H166946   1.015   1.986   1.016  0.7991  0.3244  0.4769
15177TIP3    H266947   1.142   1.906   0.999  1.1856  1.1525 -0.5916
15178TIP3   OH266948   2.378   0.631   2.780 -0.0514 -0.1851  0.2396
15178TIP3    H166949   2.402   0.548   2.821  0.4166 -0.1730 -0.0058
15178TIP3    H266950   2.381   0.613   2.686 -2.7214 -0.6721  0.1912
15179TIP3   OH266951   6.942   4.048   2.995 -0.0362  0.2461  0.1314
15179TIP3    H166952   6.955   4.140   2.971  1.1597  0.5332  1.8391
15179TIP3    H266953   6.847   4.036   2.993 -0.2203  1.6048  0.2669
15180TIP3   OH266954   6.380   5.084   2.523 -0.3877 -0.0248 -0.1816
15180TIP3    H166955   6.317   5.020   2.490 -2.0816  1.1016  0.7683
15180TIP3    H266956   6.381   5.071   2.617  0.6555  0.1094 -0.1711
15181TIP3   OH266957   5.888   6.507   4.418  0.2484  0.2191 -0.0994
15181TIP3    H166958   5.889   6.603   4.421 -2.5892  0.3082  0.0528
15181TIP3    H266959   5.927   6.480   4.501  0.0933  1.2682  0.3234
15182TIP3   OH266960   3.614   5.399  14.792  0.1376 -0.0019 -0.9144
15182TIP3    H166961   3.692   5.406  14.736  0.3266 -0.4368 -0.7104
15182TIP3    H266962   3.564   5.478  14.774  0.4365  0.0891 -1.3430
15183TIP3   OH266963   0.044   5.494  15.170 -0.8024  0.0830  0.1980
15183TIP3    H166964   0.023   5.407  15.138  2.6552  0.2044 -2.8845
15183TIP3    H266965   0.127   5.483  15.216 -1.2340  1.4596  1.3314
15184TIP3   OH266966   1.853   4.391   2.107 -0.6182  0.1571 -0.4000
15184TIP3    H166967   1.893   4.439   2.035 -2.4124  0.3492 -1.2668
15184TIP3    H266968   1.807   4.457   2.158 -1.6687 -0.3975 -0.6293
15185TIP3   OH266969   2.427   4.623   1.259  0.2206 -0.7279  0.3749
15185TIP3    H166970   2.403   4.610   1.168  0.6052 -0.7111  0.2698
15185TIP3    H266971   2.483   4.548   1.280  0.6739 -0.3829  0.4012
15186TIP3   OH266972   2.857   5.173   0.391  0.1756 -0.1272 -0.1153
15186TIP3    H166973   2.923   5.223   0.438  0.5425  1.2696 -2.0587
15186TIP3    H266974   2.906   5.113   0.336 -0.2104 -0.1679 -0.4174
15187TIP3   OH266975   1.343   4.919   5.084  0.1469 -0.7610 -0.3910
15187TIP3    H166976   1.271   4.867   5.120 -0.2546 -0.9807 -1.4975
15187TIP3    H266977   1.408   4.922   5.155 -1.1285 -0.1858  0.7732
15188TIP3   OH266978   2.254   4.056   0.484  0.1440 -0.2123 -0.5302
15188TIP3    H166979   2.208   4.017   0.559  0.1654 -0.0662 -0.4408
15188TIP3    H266980   2.329   4.100   0.523 -1.5989  2.6449 -0.2765
15189TIP3   OH266981   4.305   3.020   3.021  0.1583  0.4080  0.0504
15189TIP3    H166982   4.255   3.073   3.084  0.6914  1.6704 -0.5709
15189TIP3    H266983   4.342   2.949   3.073 -2.0635 -0.3916  0.5720
15190TIP3   OH266984   2.053   1.964   2.836  0.4587  0.3612 -0.0408
15190TIP3    H166985   2.055   2.001   2.748 -0.6690  0.8808  0.1444
15190TIP3    H266986   2.069   1.871   2.824  2.6704  0.7936 -0.5728
15191TIP3   OH266987   5.629   5.741   1.944 -0.0632 -0.8336  0.7266
15191TIP3    H166988   5.649   5.802   2.015  2.5814 -1.2752  0.3978
15191TIP3    H266989   5.677   5.662   1.965 -1.7339 -2.0863  0.0124
15192TIP3   OH266990   0.163   0.582   5.753 -0.1451 -0.0872 -0.5089
15192TIP3    H166991   0.173   0.669   5.790 -0.7027  0.0613 -0.7029
15192TIP3    H266992   0.085   0.546   5.795  2.0597 -1.8800  2.2323
15193TIP3   OH266993   2.245   5.849   5.284  0.0053  0.0792 -0.3881
15193TIP3    H166994   2.296   5.821   5.360 -0.1273 -0.5641 -0.5337
15193TIP3    H266995   2.219   5.767   5.241 -0.1742  0.4309 -0.9565
15194TIP3   OH266996   2.482   3.228   3.436 -0.4360 -0.3199 -0.3747
15194TIP3    H166997   2.547   3.294   3.461  0.6201 -0.4322 -2.7586
15194TIP3    H266998   2.510   3.149   3.482  1.1061 -0.3567 -1.3490
15195TIP3   OH266999   5.227   1.077   3.887  0.0214 -0.0722 -0.2174
15195TIP3    H167000   5.176   1.039   3.959  0.5849  0.5692  0.5437
15195TIP3    H267001   5.271   1.152   3.927 -0.3825  0.8408 -1.4775
15196TIP3   OH267002   2.662   3.534   2.591  0.4858 -0.2471  0.4321
15196TIP3    H167003   2.605   3.464   2.623  0.1841 -0.5114 -0.6539
15196TIP3    H267004   2.613   3.615   2.607  0.2358 -0.3984  0.4216
15197TIP3   OH267005   7.158   5.684  14.370  0.0947  0.3091  0.0612
15197TIP3    H167006   7.228   5.747  14.355 -0.0830  0.2574 -1.0203
15197TIP3    H267007   7.186   5.606  14.322  0.1175 -0.2969  1.0457
15198TIP3   OH267008   6.159   3.164   3.407  0.2951  0.8483  0.4929
15198TIP3    H167009   6.158   3.070   3.421 -1.0282  1.0513  1.9482
15198TIP3    H267010   6.112   3.177   3.325  0.4273  0.2561  0.3212
15199TIP3   OH267011   1.637   0.772   0.496  0.4369  0.0340  0.0066
15199TIP3    H167012   1.605   0.685   0.474  0.8817 -0.1097 -0.0876
15199TIP3    H267013   1.728   0.758   0.523 -0.8249 -0.1883  4.6092
15200TIP3   OH267014   7.016   5.127   4.551 -0.8677  0.4032  0.7258
15200TIP3    H167015   7.008   5.072   4.629 -0.4784  0.3134  0.6990
15200TIP3    H267016   6.991   5.069   4.479 -2.3356  0.8043  0.8970
15201TIP3   OH267017   2.308   3.548   1.484 -0.3104  0.3803 -0.7093
15201TIP3    H167018   2.290   3.624   1.428 -0.2502  0.2362 -0.9232
15201TIP3    H267019   2.269   3.571   1.569  1.8453  1.6865 -0.0428
15202TIP3   OH267020   1.405   4.941  15.519  0.2312 -0.1829 -0.9645
15202TIP3    H167021   1.317   4.939  15.481 -0.0485 -1.4520 -0.2724
15202TIP3    H267022   1.396   4.996  15.596 -0.9392 -3.4776  1.3858
15203TIP3   OH267023   3.330   5.930   3.221 -0.0072 -0.4093  0.3100
15203TIP3    H167024   3.293   6.018   3.218  0.4383 -0.1801  1.3091
15203TIP3    H267025   3.333   5.902   3.130  1.0143  1.0905 -0.1264
15204TIP3   OH267026   5.016   4.598   1.119 -0.5944  0.2244 -0.3643
15204TIP3    H167027   4.986   4.687   1.103  0.7567  0.4272 -1.9557
15204TIP3    H267028   5.105   4.609   1.153 -0.0412 -0.5126 -1.5139
15205TIP3   OH267029   2.899   2.330   5.615 -0.4579  0.0087 -0.2590
15205TIP3    H167030   2.979   2.383   5.622  0.4522 -1.3233 -0.2209
15205TIP3    H267031   2.856   2.340   5.700  0.8825 -1.1176  0.5813
15206TIP3   OH267032   0.757   5.600   2.467  0.4787  0.4114  0.3748
15206TIP3    H167033   0.795   5.620   2.381  1.9492 -0.0536  0.8899
15206TIP3    H267034   0.804   5.658   2.527  0.8117 -0.6140  1.1080
15207TIP3   OH267035   6.986   1.785   4.244 -0.6297 -0.0194  0.1599
15207TIP3    H167036   7.071   1.824   4.266 -1.3665  0.6054  2.0019
15207TIP3    H267037   6.945   1.850   4.187 -0.7252  0.6862  1.0043
15208TIP3   OH267038   5.595   0.317   3.202  0.2776 -0.2597 -0.4174
15208TIP3    H167039   5.564   0.298   3.114  0.0440  0.1131 -0.4167
15208TIP3    H267040   5.641   0.238   3.229 -0.7666 -0.8610 -0.3809
15209TIP3   OH267041   4.026   3.458   1.507 -0.2057 -0.3509  0.0241
15209TIP3    H167042   3.933   3.478   1.497 -0.1424 -0.2105 -0.3229
15209TIP3    H267043   4.067   3.543   1.526  0.0569 -0.1435 -1.3926
15210TIP3   OH267044   1.531   3.394  15.281  0.4842 -0.1300 -0.1221
15210TIP3    H167045   1.620   3.387  15.316  0.6039 -0.0426 -0.4102
15210TIP3    H267046   1.527   3.328  15.212 -0.0489 -0.9519  0.6722
15211TIP3   OH267047   6.517   6.191   5.197  0.3819 -0.1225 -0.5676
15211TIP3    H167048   6.550   6.122   5.140  3.2668  0.8657 -0.1876
15211TIP3    H267049   6.546   6.272   5.155 -0.5926  0.7400  0.4179
15212TIP3   OH267050   6.555   5.739   2.082  0.5025  0.1332  0.8711
15212TIP3    H167051   6.569   5.645   2.070  1.0959  0.2366  0.7368
15212TIP3    H267052   6.569   5.777   1.995  1.9919  0.5464  1.2724
15213TIP3   OH267053   5.361   3.696   2.202  0.9982  0.1268  0.1633
15213TIP3    H167054   5.351   3.642   2.280  0.1411  1.8750  1.3084
15213TIP3    H267055   5.368   3.634   2.129 -0.8358 -1.4924  1.3327
15214TIP3   OH267056   1.272   5.926   4.187 -0.1422  0.2512  0.0293
15214TIP3    H167057   1.186   5.893   4.160 -0.2852  0.5029  0.1655
15214TIP3    H267058   1.252   6.007   4.235  0.2758  1.1257 -1.2502
15215TIP3   OH267059   4.354   2.674   3.474  0.1557 -0.4617 -0.2001
15215TIP3    H167060   4.333   2.585   3.445  0.0668 -1.1803  2.0408
15215TIP3    H267061   4.386   2.664   3.563 -1.4230  1.9438  0.6682
15216TIP3   OH267062   3.683   2.511   4.130  0.3429  0.7600  0.1305
15216TIP3    H167063   3.611   2.535   4.072  0.7932  0.5352 -0.5206
15216TIP3    H267064   3.728   2.439   4.086  0.7576  0.6623  0.6998
15217TIP3   OH267065   2.744   4.394   5.665 -0.5859 -0.6086 -0.3080
15217TIP3    H167066   2.773   4.484   5.684  0.1111 -0.9307  0.1542
15217TIP3    H267067   2.711   4.399   5.575 -3.2584  0.7621  0.6732
15218TIP3   OH267068   7.039   1.247   2.812 -0.6719 -0.5657 -0.2197
15218TIP3    H167069   6.989   1.206   2.741 -1.6833 -1.2715  0.8866
15218TIP3    H267070   7.105   1.181   2.835 -0.7140 -0.5692 -0.1120
15219TIP3   OH267071   6.031   5.448   5.071  0.1458 -0.1799  0.0350
15219TIP3    H167072   6.057   5.378   5.131  1.2065  2.0567  2.2991
15219TIP3    H267073   6.112   5.474   5.027 -0.1421 -0.0208 -0.4106
15220TIP3   OH267074   4.552   6.067  13.197  0.4847 -0.2854 -0.3319
15220TIP3    H167075   4.629   6.026  13.156  1.4551  1.5149 -0.3482
15220TIP3    H267076   4.570   6.061  13.291 -0.4475 -1.9135 -0.2345
15221TIP3   OH267077   1.383   1.302   4.597  0.3103  0.1149  0.7098
15221TIP3    H167078   1.479   1.294   4.591  0.7287  3.1952  2.0234
15221TIP3    H267079   1.369   1.386   4.640 -3.0380  0.0326 -0.0680
15222TIP3   OH267080   6.682   1.179   0.491 -0.2603 -0.1278 -0.6944
15222TIP3    H167081   6.597   1.175   0.535  0.7952 -0.4527  1.3923
15222TIP3    H267082   6.706   1.271   0.493 -0.0747 -0.1831 -0.2968
15223TIP3   OH267083   5.874   4.125   2.125 -0.2309 -0.2880 -0.1001
15223TIP3    H167084   5.874   4.031   2.107 -1.6439 -0.6350  1.5860
15223TIP3    H267085   5.831   4.133   2.210  1.0973  1.7651  0.4254
15224TIP3   OH267086   7.155   0.929   4.773 -0.2882  0.0830  0.2651
15224TIP3    H167087   7.113   0.880   4.703 -1.9457 -1.0258  1.9997
15224TIP3    H267088   7.111   1.014   4.773 -0.6559 -0.1080  0.3116
15225TIP3   OH267089   1.415   4.396   2.971 -0.1044 -0.6272 -0.1796
15225TIP3    H167090   1.349   4.443   3.022  0.2612  1.7125 -1.7900
15225TIP3    H267091   1.365   4.331   2.921 -0.7121 -1.4466  1.4578
15226TIP3   OH267092   1.671   5.121   2.214 -0.4747  0.1330 -0.1247
15226TIP3    H167093   1.664   5.067   2.135 -0.2915 -1.4426  0.9165
15226TIP3    H267094   1.724   5.195   2.187  0.5243 -0.9440 -1.1984
15227TIP3   OH267095   0.790   3.664   4.869  0.1495  0.2753  0.4798
15227TIP3    H167096   0.869   3.614   4.889  0.3118  0.2416 -0.2280
15227TIP3    H267097   0.731   3.601   4.830  0.8734  0.9042 -1.7121
15228TIP3   OH267098   0.062   6.344   4.012  0.9475 -0.5198  0.7738
15228TIP3    H167099   0.036   6.435   4.026  0.8664 -0.2406 -1.0456
15228TIP3    H267100   0.149   6.349   3.972  0.7563 -1.2132  0.2528
15229TIP3   OH267101   6.837   4.899  14.826 -0.8030  0.6382  0.1013
15229TIP3    H167102   6.837   4.992  14.806 -2.0612  0.7447  0.5633
15229TIP3    H267103   6.749   4.869  14.803 -0.8246 -0.1655  1.1876
15230TIP3   OH267104   2.006   5.007   1.183 -0.1434  0.1280  0.3499
15230TIP3    H167105   2.032   5.067   1.254 -1.0685 -0.0332  0.8236
15230TIP3    H267106   2.080   4.947   1.175 -0.1964 -0.1011  1.4569
15231TIP3   OH267107   5.501   1.815   5.459 -0.2525  0.0471  0.4982
15231TIP3    H167108   5.511   1.891   5.516 -0.3500  0.3993  0.0472
15231TIP3    H267109   5.423   1.771   5.490 -0.9199  0.8334 -0.0420
15232TIP3   OH267110   2.800   0.221   4.801 -0.3080 -0.8067 -0.3547
15232TIP3    H167111   2.802   0.132   4.766  1.4520  0.0762 -2.5458
15232TIP3    H267112   2.878   0.227   4.856 -0.0550 -0.3657 -0.7700
15233TIP3   OH267113   6.352   5.358   3.656 -0.7999 -0.6417 -0.4417
15233TIP3    H167114   6.287   5.325   3.718 -0.5496 -0.1149  0.1025
15233TIP3    H267115   6.304   5.418   3.599 -0.7287 -0.0435  0.1323
15234TIP3   OH267116   6.076   4.660   3.562  0.1607 -0.4687 -0.1706
15234TIP3    H167117   6.131   4.729   3.525 -1.7811  0.7120 -0.9435
15234TIP3    H267118   6.037   4.700   3.640 -2.5940  0.0940 -1.7600
15235TIP3   OH267119   6.090   3.767   4.843 -0.2913  0.9441 -0.7599
15235TIP3    H167120   6.047   3.692   4.802  2.7916 -1.0933 -0.5086
15235TIP3    H267121   6.040   3.783   4.923 -1.0958 -0.7574 -0.8961
15236TIP3   OH267122   2.411   4.416   1.537 -0.2102 -0.6296 -0.6114
15236TIP3    H167123   2.459   4.497   1.553  0.3374 -1.2499  0.9040
15236TIP3    H267124   2.352   4.407   1.611 -1.9716 -0.4181 -1.9436
15237TIP3   OH267125   2.154   2.259   3.612  0.6002 -0.3409  0.0760
15237TIP3    H167126   2.105   2.184   3.581 -1.3919  0.4831  1.1573
15237TIP3    H267127   2.198   2.293   3.534 -1.8644 -0.1202 -1.2687
15238TIP3   OH267128   1.949   4.543   1.232  0.1749  0.1612  0.0716
15238TIP3    H167129   2.016   4.476   1.236 -0.8524 -0.7622  3.1220
15238TIP3    H267130   1.977   4.601   1.161  3.4986 -0.8731  0.4598
15239TIP3   OH267131   7.063   4.991   0.571 -0.0751  0.0020  0.0616
15239TIP3    H167132   7.123   4.972   0.644 -0.7288  0.1378  0.6368
15239TIP3    H267133   7.050   5.085   0.575 -0.0798  0.0147 -0.2635
15240TIP3   OH267134   6.855   2.719   0.857 -0.2575 -0.5870  0.1104
15240TIP3    H167135   6.883   2.760   0.776  2.3018  0.8748  1.6696
15240TIP3    H267136   6.921   2.651   0.874  0.5392  0.6326  2.1017
15241TIP3   OH267137   2.164   2.006   3.982 -0.0166  0.6266 -0.6962
15241TIP3    H167138   2.241   2.037   4.029  1.0164  0.5335 -2.3028
15241TIP3    H267139   2.197   1.980   3.896 -1.8488  0.6397 -1.4208
15242TIP3   OH267140   3.043   5.249   2.520  0.0967  0.6936 -0.2517
15242TIP3    H167141   2.987   5.219   2.592  2.1714 -2.0923  0.2783
15242TIP3    H267142   3.124   5.277   2.563  1.2221 -0.6442 -1.4337
15243TIP3   OH267143   0.333   6.215   3.646  0.2267  0.1676 -0.8702
15243TIP3    H167144   0.425   6.193   3.661 -0.6385 -2.3600  1.1634
15243TIP3    H267145   0.314   6.283   3.710 -0.2190 -1.8505  1.1865
15244TIP3   OH267146   1.164   4.159   4.932  0.0981 -0.0966  0.5899
15244TIP3    H167147   1.122   4.082   4.895  0.2184  0.3318 -0.4581
15244TIP3    H267148   1.124   4.233   4.885  0.0422  0.4812  1.5176
15245TIP3   OH267149   1.209   1.509   0.316 -0.1794  0.3009 -0.3359
15245TIP3    H167150   1.292   1.529   0.273 -0.6615  1.9842 -0.5388
15245TIP3    H267151   1.206   1.413   0.320  0.8879  0.1771 -2.0488
15246TIP3   OH267152   0.586   7.076   5.230  0.3157 -0.3071 -0.0529
15246TIP3    H167153   0.524   7.041   5.166 -0.4943 -0.1846  0.6436
15246TIP3    H267154   0.649   7.005   5.243 -0.1064 -0.7173 -0.2218
15247TIP3   OH267155   1.342   1.357   4.292  0.4993 -0.4994  0.0486
15247TIP3    H167156   1.270   1.299   4.267  1.2691 -0.8297 -1.4442
15247TIP3    H267157   1.342   1.425   4.225  1.5960 -0.5267  0.0157
15248TIP3   OH267158   1.321   3.599  14.192  0.0857  0.1979  0.0387
15248TIP3    H167159   1.271   3.589  14.111 -0.5701  0.3948  0.4230
15248TIP3    H267160   1.340   3.509  14.219  0.6770  0.1347 -0.5600
15249TIP3   OH267161   2.295   3.891   4.586  0.3934 -0.1194 -0.0583
15249TIP3    H167162   2.208   3.879   4.547  0.5085 -2.2087  0.2660
15249TIP3    H267163   2.290   3.976   4.630 -0.5711  1.0800 -2.4074
15250TIP3   OH267164   6.086   4.152   3.260  0.1330  0.1391  0.0098
15250TIP3    H167165   6.165   4.127   3.212  0.7300  2.1822 -0.0966
15250TIP3    H267166   6.057   4.233   3.219 -1.0482  0.3268  1.1741
15251TIP3   OH267167   5.612   5.274   2.733  0.1995  0.2086  0.2302
15251TIP3    H167168   5.656   5.234   2.658 -0.3876 -0.4050  0.2153
15251TIP3    H267169   5.569   5.201   2.778  0.2415  0.6248  0.9610
15252TIP3   OH267170   0.234   5.093   3.529 -0.3752  0.5842  0.6586
15252TIP3    H167171   0.155   5.039   3.525  0.1753 -0.2061  0.4492
15252TIP3    H267172   0.221   5.148   3.607 -0.7004 -0.2099  1.1675
15253TIP3   OH267173   0.818   3.291   0.643  0.1487  0.0759 -0.5041
15253TIP3    H167174   0.808   3.219   0.705  1.0976  1.0479  0.8307
15253TIP3    H267175   0.730   3.325   0.631 -0.1762 -0.7230 -0.4197
15254TIP3   OH267176   2.037   5.023   3.219 -0.3165  0.0040  0.2647
15254TIP3    H167177   2.039   4.982   3.132 -0.1890 -1.9528  1.1789
15254TIP3    H267178   2.023   5.116   3.200  0.5241 -0.2589 -1.8936
15255TIP3   OH267179   4.514   2.336   4.464 -0.1208 -0.7453  0.4897
15255TIP3    H167180   4.423   2.365   4.470 -0.2037 -1.4837  3.6659
15255TIP3    H267181   4.563   2.401   4.515  0.6728 -2.0818  1.4503
15256TIP3   OH267182   4.223   5.452  15.276  0.0203  0.5234 -0.4482
15256TIP3    H167183   4.226   5.410  15.362  1.5672  1.7645  0.1232
15256TIP3    H267184   4.196   5.542  15.295  1.8789  1.2303 -1.0888
15257TIP3   OH267185   4.940   2.773   3.092 -0.0674 -0.2042  0.3839
15257TIP3    H167186   4.933   2.824   3.173 -0.1366  0.4821 -0.0468
15257TIP3    H267187   4.856   2.788   3.047 -0.5894 -1.7091  0.8380
15258TIP3   OH267188   7.054   0.351   3.249  0.0206 -0.2988 -0.1068
15258TIP3    H167189   6.993   0.333   3.322  2.3940 -1.1643  1.7258
15258TIP3    H267190   7.057   0.446   3.244 -0.3195 -0.2330  0.7971
15259TIP3   OH267191   5.413   3.077   0.672  0.1750  0.4729 -0.5387
15259TIP3    H167192   5.433   3.074   0.766  1.0706  0.9428 -0.7012
15259TIP3    H267193   5.482   3.024   0.631 -0.9644 -0.8227 -0.8313
15260TIP3   OH267194   3.707   5.946  14.702  0.0545 -0.7394 -0.6819
15260TIP3    H167195   3.643   5.991  14.758 -1.0907 -1.0518 -1.7077
15260TIP3    H267196   3.787   5.942  14.755 -0.7039 -0.1191  0.5360
15261TIP3   OH267197   0.024   6.764   2.860  0.6592  0.3616  0.7148
15261TIP3    H167198   0.096   6.702   2.872  1.1042  1.0135  1.4256
15261TIP3    H267199   0.049   6.842   2.910 -0.2081  0.8695  0.3919
15262TIP3   OH267200   6.076   2.094   3.375 -0.0247  0.1471  0.2685
15262TIP3    H167201   6.065   2.166   3.437 -0.9109 -0.2825  0.6193
15262TIP3    H267202   6.060   2.015   3.427  2.5149 -0.4156  0.2714
15263TIP3   OH267203   4.377   6.065   3.162  0.2572 -0.4046 -0.2822
15263TIP3    H167204   4.443   6.096   3.224  1.8825  1.5392 -2.8575
15263TIP3    H267205   4.297   6.109   3.188  0.1033 -2.1431  2.3719
15264TIP3   OH267206   5.306   4.122   4.235  0.6557 -0.1364 -0.7470
15264TIP3    H167207   5.393   4.112   4.196  1.9003  3.0076  1.0554
15264TIP3    H267208   5.300   4.051   4.298  1.6058 -0.8009 -1.3832
15265TIP3   OH267209   5.475   4.840   2.642  0.3985  0.4142 -0.2013
15265TIP3    H167210   5.562   4.875   2.626 -0.4105  2.6116 -0.0104
15265TIP3    H267211   5.433   4.906   2.697 -2.1126  0.4204 -2.0634
15266TIP3   OH267212   4.159   2.300  15.195 -0.0349 -0.2161 -0.3923
15266TIP3    H167213   4.082   2.353  15.177  0.9216  1.2242 -0.2949
15266TIP3    H267214   4.146   2.220  15.143 -0.9632  0.5775 -1.4008
15267TIP3   OH267215   0.283   5.907  15.352 -0.3582  0.2936  0.4080
15267TIP3    H167216   0.187   5.904  15.352 -0.3299 -0.4969  0.0034
15267TIP3    H267217   0.305   5.971  15.284 -0.5721 -0.3733 -0.2954
15268TIP3   OH267218   3.169   0.708   2.110  0.1430  0.2746 -0.2055
15268TIP3    H167219   3.141   0.654   2.184  1.4759  1.1052  0.9394
15268TIP3    H267220   3.093   0.762   2.090 -0.6622 -0.8707 -0.3081
15269TIP3   OH267221   1.463   2.900   0.845 -0.1500 -0.2176  0.6238
15269TIP3    H167222   1.484   2.991   0.826  2.1994 -1.1324 -1.5120
15269TIP3    H267223   1.533   2.871   0.904 -0.6850 -0.7229  1.0154
15270TIP3   OH267224   4.169   0.733   2.996 -0.1889 -0.1389 -0.0402
15270TIP3    H167225   4.147   0.700   2.909  0.9770 -1.2930  0.0685
15270TIP3    H267226   4.250   0.687   3.018  0.0367  0.8539  1.2615
15271TIP3   OH267227   5.348   1.701   0.304  0.4178 -0.4965  0.9858
15271TIP3    H167228   5.344   1.790   0.340  2.0435  0.1013 -0.2447
15271TIP3    H267229   5.440   1.675   0.315  1.9030  1.0100 -5.6155
15272TIP3   OH267230   0.057   3.664  15.495 -0.1783  0.0537 -0.0700
15272TIP3    H167231   0.046   3.758  15.481 -1.6896 -0.3639 -1.8819
15272TIP3    H267232   0.142   3.643  15.456 -0.9992  0.2427 -2.0259
15273TIP3   OH267233   2.718   2.793   1.291 -0.0690 -0.2540  0.3589
15273TIP3    H167234   2.775   2.867   1.269  0.5908 -0.9445 -0.2580
15273TIP3    H267235   2.752   2.720   1.239 -1.9630 -0.4940 -0.5667
15274TIP3   OH267236   5.547   1.357   4.438 -0.6590  0.3840 -0.2174
15274TIP3    H167237   5.493   1.398   4.506 -0.7741 -1.5473  0.8806
15274TIP3    H267238   5.560   1.426   4.373 -2.1625  1.6874  0.8324
15275TIP3   OH267239   2.205   6.111  14.952  0.3578 -0.6444  0.2144
15275TIP3    H167240   2.210   6.054  15.029  2.0582 -1.8333 -0.7448
15275TIP3    H267241   2.119   6.094  14.914 -0.8469  0.5878  2.3119
15276TIP3   OH267242   1.120   3.727   4.912  0.0673  0.8332 -0.6105
15276TIP3    H167243   1.111   3.650   4.855 -0.7438 -1.2442  2.2188
15276TIP3    H267244   1.208   3.719   4.949 -0.7553  0.1637  1.2252
15277TIP3   OH267245   5.082   6.805   4.003 -0.5861 -0.2045  0.0823
15277TIP3    H167246   5.011   6.747   3.974 -0.7828  0.3128 -0.4872
15277TIP3    H267247   5.160   6.751   4.001 -1.3823 -1.5923  3.3926
15278TIP3   OH267248   6.089   4.519   2.454  0.1444 -0.0437 -0.5776
15278TIP3    H167249   6.090   4.473   2.538  0.5445  0.2425 -0.4223
15278TIP3    H267250   6.081   4.450   2.388 -0.6927 -0.2345 -0.2815
15279TIP3   OH267251   3.010   4.887   2.100 -0.2003  0.8695 -0.1177
15279TIP3    H167252   2.979   4.836   2.176 -0.9040 -2.6740 -2.6637
15279TIP3    H267253   2.933   4.933   2.069 -0.9093 -0.9665 -1.1362
15280TIP3   OH267254   1.687   3.364   2.697 -0.0296  0.3094  1.2785
15280TIP3    H167255   1.651   3.365   2.608  0.1473  1.7018  1.2014
15280TIP3    H267256   1.659   3.447   2.735  0.9667  0.2906  2.0803
15281TIP3   OH267257   5.694   6.672   5.308  0.1617 -0.2167 -0.3784
15281TIP3    H167258   5.661   6.669   5.398 -1.6730 -2.2031 -1.0962
15281TIP3    H267259   5.656   6.752   5.271 -0.4314 -0.2896  0.0766
15282TIP3   OH267260   1.922   4.654   5.643 -0.3544 -0.1614 -0.5268
15282TIP3    H167261   1.971   4.573   5.631 -0.3138 -0.3162  0.6328
15282TIP3    H267262   1.982   4.722   5.611  0.2650 -0.4327  0.0373
15283TIP3   OH267263   0.779   4.067   3.766 -0.5936 -0.2249 -0.3332
15283TIP3    H167264   0.849   4.130   3.750  0.0801 -0.9054 -0.0982
15283TIP3    H267265   0.698   4.118   3.757 -0.1054  0.2899 -1.8283
15284TIP3   OH267266   1.264   3.382   5.084  0.1183  0.4001  0.3361
15284TIP3    H167267   1.297   3.296   5.059 -0.9844 -0.3358  1.3868
15284TIP3    H267268   1.306   3.442   5.022  1.8074 -0.7439  0.3168
15285TIP3   OH267269   0.993   2.622   4.643  0.0953 -0.3633  0.0255
15285TIP3    H167270   1.079   2.596   4.611 -0.1998  0.3250 -1.3549
15285TIP3    H267271   1.000   2.716   4.659 -0.4406 -0.2807 -0.2158
15286TIP3   OH267272   2.290   4.197   2.861  0.3773 -0.0356 -0.9696
15286TIP3    H167273   2.275   4.169   2.952  1.1867  1.2110 -0.4402
15286TIP3    H267274   2.385   4.199   2.852  0.3019 -0.1243 -1.8490
15287TIP3   OH267275   1.500   5.631   2.783 -0.2988  0.8819  0.5111
15287TIP3    H167276   1.593   5.617   2.764 -0.1716  4.2994 -1.8318
15287TIP3    H267277   1.481   5.570   2.854  3.6967  0.0367  0.9870
15288TIP3   OH267278   4.831   4.166   3.077  0.1413  0.2624 -0.0348
15288TIP3    H167279   4.907   4.190   3.023  0.7112  2.4498  1.6697
15288TIP3    H267280   4.863   4.095   3.132  0.1376 -0.6439 -1.1814
15289TIP3   OH267281   3.165   0.564   4.120 -0.2584 -0.5432  0.1143
15289TIP3    H167282   3.161   0.648   4.166 -2.6737 -0.3875 -0.3503
15289TIP3    H267283   3.249   0.526   4.147  0.0440  1.2185  1.7159
15290TIP3   OH267284   7.156   2.412   3.558  0.0220 -0.4102 -0.0850
15290TIP3    H167285   7.079   2.462   3.531  0.0907 -1.1820 -1.7693
15290TIP3    H267286   7.121   2.332   3.597 -0.0495  0.1386  1.0076
15291TIP3   OH267287   4.322   0.809   4.780 -0.4804 -0.4967  0.5290
15291TIP3    H167288   4.291   0.887   4.827 -2.0656 -1.4928  1.1625
15291TIP3    H267289   4.404   0.785   4.824  1.1898  2.0478 -1.0323
15292TIP3   OH267290   2.604   4.556  15.102  0.9185  0.4128  0.3263
15292TIP3    H167291   2.695   4.542  15.076  0.4318  0.5100 -1.5100
15292TIP3    H267292   2.558   4.477  15.072  0.0618  1.2232 -0.5314
15293TIP3   OH267293   5.370   2.770   0.485 -0.4620 -0.0756  0.3316
15293TIP3    H167294   5.448   2.792   0.536  0.2241  0.6957 -1.0001
15293TIP3    H267295   5.297   2.800   0.539  0.2787  1.5441  0.4788
15294TIP3   OH267296   2.014   2.139   2.006  0.4749 -0.6704 -0.0332
15294TIP3    H167297   2.035   2.083   1.931  0.5334 -1.0105  0.2384
15294TIP3    H267298   1.972   2.216   1.967  0.7745 -0.7114 -0.4405
15295TIP3   OH267299   2.436   3.649   5.034  0.2953 -0.0667  0.3579
15295TIP3    H167300   2.494   3.644   5.110 -0.5412 -0.3379  0.9858
15295TIP3    H267301   2.489   3.619   4.960  0.4662 -1.8840  1.1947
15296TIP3   OH267302   2.533   3.203   3.925  0.2547 -0.2467 -0.5804
15296TIP3    H167303   2.554   3.184   4.017  0.9843 -0.3862 -0.7735
15296TIP3    H267304   2.481   3.128   3.896 -0.6437  0.1637 -0.0602
15297TIP3   OH267305   7.090   3.764   3.577  0.8194 -0.3753  0.2676
15297TIP3    H167306   7.101   3.704   3.503  1.1142 -1.7505  1.4091
15297TIP3    H267307   7.004   3.803   3.564 -0.9147 -3.6943  1.3888
15298TIP3   OH267308   2.149   3.997   3.370 -0.0686 -0.5002 -0.2288
15298TIP3    H167309   2.127   4.035   3.455 -2.1545 -0.6240 -0.6703
15298TIP3    H267310   2.084   4.033   3.310  0.4378 -1.5817 -1.4743
15299TIP3   OH267311   3.014   6.984   1.813 -0.4017 -0.0681  0.7941
15299TIP3    H167312   2.937   7.032   1.844  0.0951  0.4135  1.2699
15299TIP3    H267313   2.990   6.957   1.724 -0.7995  0.8181  0.6204
15300TIP3   OH267314   0.550   3.159   1.853  0.1693  0.3962 -0.6637
15300TIP3    H167315   0.475   3.108   1.822  0.9324  0.3501 -2.4790
15300TIP3    H267316   0.616   3.093   1.875  0.4001  0.5148 -0.9976
15301TIP3   OH267317   3.512   5.629   3.042 -0.0090  0.4104 -0.0747
15301TIP3    H167318   3.452   5.659   2.974 -0.5272  0.0729  0.2293
15301TIP3    H267319   3.574   5.573   2.997  0.5820  1.4259 -0.5351
15302TIP3   OH267320   3.973   5.239   5.147  0.0038 -0.0177 -0.1799
15302TIP3    H167321   4.020   5.249   5.230  0.1725  1.1764 -0.4078
15302TIP3    H267322   3.983   5.147   5.124  0.2067 -0.2840  0.9802
15303TIP3   OH267323   2.916   6.776   5.469 -0.7316 -0.4938 -0.0366
15303TIP3    H167324   2.904   6.842   5.400 -1.2317  1.3441  1.7681
15303TIP3    H267325   2.845   6.793   5.531 -0.3896 -2.2419  0.8562
15304TIP3   OH267326   6.839   1.906   1.047  0.3991  0.2515  0.1434
15304TIP3    H167327   6.842   1.994   1.084  0.0757 -0.3436  1.5920
15304TIP3    H267328   6.746   1.888   1.035  0.4198 -0.3188  0.8550
15305TIP3   OH267329   4.324   5.096   3.015  0.0235 -0.1916 -0.2692
15305TIP3    H167330   4.311   5.178   3.062 -2.0575 -0.7618  0.1676
15305TIP3    H267331   4.268   5.103   2.938 -0.2016 -1.2399 -0.2007
15306TIP3   OH267332   2.261   1.889   4.884 -0.2220 -0.4448  0.1041
15306TIP3    H167333   2.294   1.838   4.959  0.5419 -2.1616 -1.3484
15306TIP3    H267334   2.233   1.972   4.922  1.0985 -0.8866  2.1537
15307TIP3   OH267335   3.916   3.150   3.194 -0.4289  0.3210  0.2173
15307TIP3    H167336   3.864   3.145   3.275 -0.1150  1.3923  0.4990
15307TIP3    H267337   3.985   3.085   3.206 -1.8462 -1.2929 -0.2671
15308TIP3   OH267338   2.975   6.176   4.924  0.2020  0.1643 -0.2155
15308TIP3    H167339   2.975   6.126   4.842  0.4059  0.7362 -0.5640
15308TIP3    H267340   2.918   6.125   4.982  0.2037 -0.3422 -0.6483
15309TIP3   OH267341   4.853   7.118  14.202  0.5927  0.0197 -0.4959
15309TIP3    H167342   4.804   7.103  14.121 -2.2391  1.8564  0.7902
15309TIP3    H267343   4.874   7.211  14.200 -0.8065  0.4099  1.5488
15310TIP3   OH267344   5.558   3.439   1.304  0.2472  0.6789 -0.0820
15310TIP3    H167345   5.575   3.415   1.213  0.2075 -0.1356  0.1179
15310TIP3    H267346   5.527   3.530   1.300 -0.2048  0.4921 -0.9284
15311TIP3   OH267347   0.167   1.346   1.732  0.1144 -0.7312  0.1317
15311TIP3    H167348   0.091   1.402   1.718  1.1293  0.3626 -1.1093
15311TIP3    H267349   0.232   1.403   1.772  1.0553 -1.0669 -0.8754
15312TIP3   OH267350   4.748   5.826   1.168 -0.1175 -0.2946 -0.3886
15312TIP3    H167351   4.834   5.833   1.210 -0.2985 -1.8491  0.2854
15312TIP3    H267352   4.687   5.815   1.241 -0.5475 -2.0960 -1.0057
15313TIP3   OH267353   3.635   0.897   4.797 -0.7703  0.2171  0.3802
15313TIP3    H167354   3.688   0.977   4.807  2.0262 -1.7424  1.8040
15313TIP3    H267355   3.553   0.918   4.841 -1.3426  3.3941 -1.9938
15314TIP3   OH267356   0.856   6.302   2.400  0.4755 -0.3577  0.5097
15314TIP3    H167357   0.793   6.369   2.372  1.6699  0.2871 -0.7060
15314TIP3    H267358   0.839   6.291   2.493 -0.0912  1.2792  0.6156
15315TIP3   OH267359   0.466   2.776   3.844 -0.0366 -0.1660 -0.2320
15315TIP3    H167360   0.555   2.809   3.856 -0.4329  0.3658  1.2635
15315TIP3    H267361   0.477   2.682   3.827  0.7375 -0.3138  1.0748
15316TIP3   OH267362   3.490   1.068   0.700  0.4752 -0.1464  0.5723
15316TIP3    H167363   3.537   1.147   0.674  0.7744 -0.7634 -0.8080
15316TIP3    H267364   3.514   1.055   0.792  0.5105  1.3001  0.7777
15317TIP3   OH267365   0.659   0.308   5.012  0.1677  0.4407 -0.0471
15317TIP3    H167366   0.622   0.344   4.932  0.5222 -0.0656 -0.4419
15317TIP3    H267367   0.587   0.310   5.075 -1.5818 -3.6398 -1.7573
15318TIP3   OH267368   5.815   5.063   4.885 -0.2872  0.1782 -0.0856
15318TIP3    H167369   5.799   5.116   4.807 -1.7746 -0.7831 -0.4657
15318TIP3    H267370   5.757   4.987   4.874  1.7529 -1.5095  0.4492
15319TIP3   OH267371   2.406   6.673   3.897 -0.4601  0.3282  0.0751
15319TIP3    H167372   2.358   6.633   3.824  0.5309  0.1422 -0.4741
15319TIP3    H267373   2.338   6.690   3.963 -1.0912 -1.1746 -0.1584
15320TIP3   OH267374   2.565   4.265   2.654  0.2134 -0.2644 -0.4451
15320TIP3    H167375   2.551   4.344   2.706  0.5859 -0.0440 -0.6778
15320TIP3    H267376   2.523   4.284   2.570  0.4300 -0.2580 -0.5519
15321TIP3   OH267377   4.823   3.254   2.809  0.1514  0.4953 -0.2103
15321TIP3    H167378   4.876   3.196   2.863  0.8385  2.2756  1.0758
15321TIP3    H267379   4.734   3.246   2.844  0.2022  0.0483 -0.1875
15322TIP3   OH267380   6.815   2.994   0.999  0.4491 -0.6892  0.2530
15322TIP3    H167381   6.730   2.986   1.042 -0.3985  1.5607 -0.8773
15322TIP3    H267382   6.834   2.907   0.965 -2.4043 -0.7464 -1.2936
15323TIP3   OH267383   3.513   5.078   1.241  0.0498 -0.1111 -0.3157
15323TIP3    H167384   3.463   5.128   1.305 -0.6972 -1.0243 -0.1732
15323TIP3    H267385   3.604   5.085   1.271 -0.2300 -0.0421  0.5192
15324TIP3   OH267386   3.534   0.222   4.723 -0.4550 -0.1791 -0.3709
15324TIP3    H167387   3.582   0.141   4.742  2.0188  1.3754  0.0576
15324TIP3    H267388   3.490   0.204   4.640  1.6341 -1.2943 -1.2748
15325TIP3   OH267389   3.998   6.398   3.337  0.1386  0.6014 -0.4008
15325TIP3    H167390   3.998   6.346   3.417  0.5063  2.6649  0.9852
15325TIP3    H267391   3.912   6.440   3.336 -0.4834 -0.6568 -1.9538
15326TIP3   OH267392   4.359   5.619   3.460 -0.6356  0.2330  0.1679
15326TIP3    H167393   4.319   5.679   3.524 -0.3531  0.9157 -0.2950
15326TIP3    H267394   4.437   5.586   3.505 -3.2856 -3.4877  2.2967
15327TIP3   OH267395   4.151   0.596  15.351 -0.3674  0.2998 -0.4006
15327TIP3    H167396   4.113   0.551  15.275  1.5972 -1.3561 -0.4496
15327TIP3    H267397   4.166   0.526  15.415 -0.5236  1.4418  0.9186
15328TIP3   OH267398   3.826   5.047   1.192 -0.0955  0.0093 -0.4340
15328TIP3    H167399   3.861   5.032   1.280  0.0334  0.2788 -0.4413
15328TIP3    H267400   3.814   4.959   1.157 -0.2671 -0.1024 -0.0983
15329TIP3   OH267401   1.955   2.787   5.860 -0.2845  0.9973  0.4228
15329TIP3    H167402   2.017   2.735   5.911 -0.1764 -0.0044 -0.6981
15329TIP3    H267403   1.877   2.793   5.915 -0.7468 -1.4117  0.0733
15330TIP3   OH267404   0.294   5.409   4.091  0.1665  0.3657 -0.6119
15330TIP3    H167405   0.385   5.433   4.074 -0.1765  1.6099 -0.7189
15330TIP3    H267406   0.280   5.432   4.183  0.8921 -2.8195  0.3766
15331TIP3   OH267407   3.266   2.690   3.214 -0.7113  0.8013  0.1268
15331TIP3    H167408   3.176   2.679   3.184 -0.3951 -0.8333 -0.2600
15331TIP3    H267409   3.263   2.666   3.307 -0.1285 -2.2063 -0.5862
15332TIP3   OH267410   4.231   5.093   3.670 -0.7460  0.2176  0.0397
15332TIP3    H167411   4.228   5.046   3.753 -0.3527 -1.9742 -1.1550
15332TIP3    H267412   4.276   5.175   3.690 -0.1217 -0.5527  1.8576
15333TIP3   OH267413   1.704   6.338  14.965 -0.3245  0.4506 -0.3015
15333TIP3    H167414   1.700   6.306  15.056  1.1858  1.9939  0.3267
15333TIP3    H267415   1.614   6.336  14.935 -0.6966 -1.1499  0.8647
15334TIP3   OH267416   2.121   6.121  13.013  0.2338 -0.5131  0.8289
15334TIP3    H167417   2.120   6.213  13.041  1.5347 -0.3406  0.3642
15334TIP3    H267418   2.065   6.118  12.936  0.0854 -0.1374  0.9230
15335TIP3   OH267419   3.395   0.423   1.965  0.4044 -0.5810  0.2283
15335TIP3    H167420   3.412   0.337   2.005 -1.2904 -2.1985 -2.4136
15335TIP3    H267421   3.300   0.428   1.959  0.5705  0.5270 -1.6872
15336TIP3   OH267422   0.870   5.743   5.504  0.2348  0.1590 -0.0913
15336TIP3    H167423   0.848   5.773   5.416  1.2196  0.6166 -0.1968
15336TIP3    H267424   0.949   5.690   5.492 -0.0053 -0.3149  0.4334
15337TIP3   OH267425   4.939   5.463   0.400  0.5932 -0.0803 -0.2328
15337TIP3    H167426   4.902   5.447   0.486  0.1622 -0.1876 -0.4344
15337TIP3    H267427   5.031   5.436   0.407  0.1873 -1.4475 -0.2258
15338TIP3   OH267428   3.679   3.623   1.815  0.1961 -0.0141  0.1941
15338TIP3    H167429   3.652   3.532   1.825  1.4856 -0.5849 -1.2266
15338TIP3    H267430   3.607   3.674   1.851 -1.0266 -1.5662  0.0022
15339TIP3   OH267431   6.140   4.340   4.465 -0.2936 -0.0559  0.2207
15339TIP3    H167432   6.183   4.421   4.493 -0.0870  0.2638 -1.0187
15339TIP3    H267433   6.191   4.311   4.390  1.0279 -2.5665  2.0333
15340TIP3   OH267434   3.480   3.699   4.904 -0.5176  0.4755  0.8034
15340TIP3    H167435   3.415   3.694   4.835  0.0136 -2.4561  0.4655
15340TIP3    H267436   3.436   3.662   4.981  0.2584 -0.1635  0.9444
15341TIP3   OH267437   5.700   3.623   1.595  0.2150  0.4482 -0.3152
15341TIP3    H167438   5.707   3.673   1.514 -1.2339  1.0861 -0.0643
15341TIP3    H267439   5.789   3.620   1.629  1.1174 -1.1204 -2.6724
15342TIP3   OH267440   2.434   0.005   1.581 -0.1384 -0.2205  0.0072
15342TIP3    H167441   2.354   0.052   1.559 -0.9394 -1.4723  0.1681
15342TIP3    H267442   2.502   0.071   1.580 -1.1283  0.8050 -0.4487
15343TIP3   OH267443   1.752   4.206   2.746 -0.4725  0.3854  0.1798
15343TIP3    H167444   1.797   4.283   2.783  0.4127  0.7331 -1.5706
15343TIP3    H267445   1.819   4.138   2.743  0.1381  1.0694 -2.9516
15344TIP3   OH267446   0.826   4.914   3.054  0.2115 -0.0225  0.4130
15344TIP3    H167447   0.856   4.896   3.143  1.6781 -1.6320 -0.3750
15344TIP3    H267448   0.906   4.934   3.005 -0.2531 -1.6995 -1.1175
15345TIP3   OH267449   4.765   3.361   0.002 -0.2013  0.0564  0.3768
15345TIP3    H167450   4.841   3.337  -0.051  1.4433  3.1515  1.2024
15345TIP3    H267451   4.780   3.317   0.086 -0.4869 -1.1176 -0.1665
15346TIP3   OH267452   3.933   0.311   1.769 -0.5747 -0.0899  0.3380
15346TIP3    H167453   3.916   0.387   1.713  1.6708  1.8797  2.2176
15346TIP3    H267454   4.026   0.291   1.754 -0.8105 -1.6313  0.8801
15347TIP3   OH267455   1.691   3.865   4.427 -0.1100  0.1561 -0.0371
15347TIP3    H167456   1.672   3.941   4.372  0.6800  1.1352  1.0139
15347TIP3    H267457   1.761   3.819   4.380  0.9653  1.2980  0.4126
15348TIP3   OH267458   3.104   1.490   3.392 -0.3681 -0.0986  0.0412
15348TIP3    H167459   3.011   1.510   3.400 -0.2976  0.9633 -1.6029
15348TIP3    H267460   3.146   1.543   3.460 -0.8683  0.0790  0.2131
15349TIP3   OH267461   4.520   3.869   5.068 -0.9530 -0.4029 -0.2335
15349TIP3    H167462   4.591   3.926   5.099 -0.6204 -1.3642  0.7800
15349TIP3    H267463   4.503   3.899   4.978  2.1440 -1.4987 -1.2465
15350TIP3   OH267464   0.439   3.291   2.070  0.0446  0.7780 -0.1545
15350TIP3    H167465   0.492   3.250   2.001 -0.7993 -1.1871  0.3168
15350TIP3    H267466   0.358   3.318   2.025  0.4211  1.5451 -0.3780
15351TIP3   OH267467   2.150   4.410   3.575  0.1771  0.3182  0.4260
15351TIP3    H167468   2.232   4.370   3.604 -0.2986 -0.5372  0.6266
15351TIP3    H267469   2.119   4.459   3.651  0.5631  0.7423  0.3098
15352TIP3   OH267470   6.644   2.422   4.614  0.5852 -0.0353  0.3964
15352TIP3    H167471   6.684   2.335   4.608 -0.5788 -0.7240  2.2209
15352TIP3    H267472   6.674   2.456   4.699 -0.7208  0.4438  0.6725
15353TIP3   OH267473   3.844   0.010   4.433 -0.1056  0.1748  0.1337
15353TIP3    H167474   3.777   0.021   4.366  1.0729  1.2820 -0.8935
15353TIP3    H267475   3.821   0.072   4.502  0.1677  0.9664 -0.4788
15354TIP3   OH267476   0.816   6.555   3.710  0.3540 -1.5244 -0.0080
15354TIP3    H167477   0.781   6.503   3.638 -0.3474 -0.0458 -0.7628
15354TIP3    H267478   0.830   6.492   3.780 -0.3833 -2.7463 -0.9260
15355TIP3   OH267479   6.859   0.536   4.534  0.0910 -0.3349  0.1534
15355TIP3    H167480   6.806   0.615   4.529  1.4636  0.5240 -1.7853
15355TIP3    H267481   6.810   0.471   4.484 -0.5736 -0.4127  0.9124
15356TIP3   OH267482   4.639   2.093   1.268 -0.4492  0.6155 -0.0197
15356TIP3    H167483   4.559   2.144   1.256  0.6132  2.2581 -0.2625
15356TIP3    H267484   4.612   2.002   1.253 -1.9921  1.2657 -1.3398
15357TIP3   OH267485   2.638   2.137  14.745 -0.1996  0.1865 -0.1693
15357TIP3    H167486   2.698   2.182  14.685  2.1041 -2.5256  0.0102
15357TIP3    H267487   2.675   2.151  14.832 -0.7298 -0.1661  0.1191
15358TIP3   OH267488   5.203   3.253   4.073  0.2475  0.2343 -0.4478
15358TIP3    H167489   5.288   3.286   4.042 -0.3234  0.4583 -1.7804
15358TIP3    H267490   5.154   3.233   3.993 -0.2153 -1.8469  0.3322
15359TIP3   OH267491   2.220   5.461   4.833  0.4648  0.1684  0.1409
15359TIP3    H167492   2.198   5.423   4.747  0.4041 -0.4243  0.4131
15359TIP3    H267493   2.255   5.387   4.883  1.3554  0.7121  0.3261
15360TIP3   OH267494   3.631   5.688   5.004  0.2270  0.3313  0.0067
15360TIP3    H167495   3.547   5.721   4.971 -0.3728 -0.9941  0.1692
15360TIP3    H267496   3.696   5.750   4.971 -0.7515  1.0319 -0.6389
15361TIP3   OH267497   1.224   2.474   2.921 -0.4542  0.0549 -0.0037
15361TIP3    H167498   1.240   2.409   2.989  1.1467  0.7440  0.2901
15361TIP3    H267499   1.251   2.557   2.960  0.4130  0.4715 -1.4399
15362TIP3   OH267500   4.660   5.514   4.480 -0.2360 -0.8356  0.6580
15362TIP3    H167501   4.633   5.426   4.454 -1.3101 -0.9330  2.0501
15362TIP3    H267502   4.684   5.506   4.572 -0.3175  0.3178  0.7887
15363TIP3   OH267503   6.458   4.664   2.140  0.5170 -0.0978  0.6340
15363TIP3    H167504   6.387   4.668   2.204  1.1938  0.7671  1.3482
15363TIP3    H267505   6.538   4.657   2.194  1.0303 -0.1920 -0.1360
15364TIP3   OH267506   2.757   1.077   4.005  0.0029  0.1610  0.5034
15364TIP3    H167507   2.830   1.015   4.008  0.5791  0.7807 -0.2901
15364TIP3    H267508   2.681   1.025   3.979  0.3004 -0.3741  0.7087
15365TIP3   OH267509   0.559   3.268   1.070 -0.3330 -0.1248 -0.0407
15365TIP3    H167510   0.536   3.185   1.027 -0.0472 -0.5428  0.6071
15365TIP3    H267511   0.542   3.334   1.003 -2.2892 -0.5290  0.0340
15366TIP3   OH267512   4.637   6.631   2.146 -0.0851  1.0535 -0.0134
15366TIP3    H167513   4.694   6.557   2.126 -1.5200 -0.1414  0.2521
15366TIP3    H267514   4.676   6.671   2.224  0.4376  0.3046  0.1081
15367TIP3   OH267515   5.111   4.443   4.042 -0.3180 -0.2837 -0.0066
15367TIP3    H167516   5.025   4.468   4.009 -0.8671  0.3413  1.8076
15367TIP3    H267517   5.161   4.524   4.045  0.5047 -0.7126 -1.4659
15368TIP3   OH267518   3.160   5.037   2.910  0.5191  0.1317  0.1342
15368TIP3    H167519   3.225   5.079   2.966  1.7698 -1.6065  0.0067
15368TIP3    H267520   3.137   4.956   2.955 -0.2592 -0.1213 -0.6934
15369TIP3   OH267521   6.246   1.881   1.964  0.4169 -0.0224 -0.1879
15369TIP3    H167522   6.151   1.890   1.971  0.6818  4.2252 -0.7387
15369TIP3    H267523   6.276   1.874   2.054 -0.1594  3.0422  0.3074
15370TIP3   OH267524   1.758   3.368   4.685 -0.1469 -0.1819  0.2527
15370TIP3    H167525   1.723   3.288   4.645  1.2120 -0.6343 -0.0441
15370TIP3    H267526   1.770   3.427   4.611 -2.3411  0.7671  0.6221
15371TIP3   OH267527   6.665   2.949   4.216 -0.4689 -0.1486  0.5354
15371TIP3    H167528   6.663   2.855   4.194 -0.3914  0.1528 -0.8167
15371TIP3    H267529   6.727   2.955   4.289  0.6406 -0.9776 -0.3043
15372TIP3   OH267530   5.102   6.827   2.556  0.6292 -0.7528 -1.0263
15372TIP3    H167531   5.130   6.762   2.492  1.7197 -1.3380  0.0401
15372TIP3    H267532   5.141   6.799   2.638 -1.2190 -0.3311  0.0386
15373TIP3   OH267533   1.487   5.626   0.875 -0.1692  0.3448 -0.2987
15373TIP3    H167534   1.471   5.565   0.947  0.3568  0.9274  0.3081
15373TIP3    H267535   1.557   5.585   0.825 -1.5256 -0.7964 -1.3449
15374TIP3   OH267536   2.561   4.132   1.564  0.2546  0.2362 -0.2238
15374TIP3    H167537   2.524   4.107   1.648  1.5659 -1.2335 -0.0589
15374TIP3    H267538   2.521   4.217   1.544 -1.3166 -0.1820  1.0755
15375TIP3   OH267539   4.938   4.140   0.452 -0.0325  0.2694 -0.0618
15375TIP3    H167540   4.910   4.213   0.508  0.1037  0.2448  0.0383
15375TIP3    H267541   4.880   4.145   0.376 -0.8022 -0.2368  0.4887
15376TIP3   OH267542   0.313   3.103   4.167  0.0897  0.1455 -0.0406
15376TIP3    H167543   0.220   3.121   4.181  0.4250  1.0972  1.0069
15376TIP3    H267544   0.358   3.177   4.208  1.2895  0.0613 -1.1708
15377TIP3   OH267545   4.857   6.593   3.964 -0.5210 -1.0288 -0.2339
15377TIP3    H167546   4.766   6.568   3.947 -0.1180 -1.9932 -0.9705
15377TIP3    H267547   4.905   6.510   3.968  0.4119 -0.4999 -0.3107
15378TIP3   OH267548   0.807   6.902   4.283 -0.0653  0.1071  0.2846
15378TIP3    H167549   0.851   6.987   4.292 -1.0168  1.0556 -3.2729
15378TIP3    H267550   0.736   6.905   4.347  0.6773  1.4758  1.0813
15379TIP3   OH267551   0.630   6.605   1.555 -0.0116 -0.0355 -0.2570
15379TIP3    H167552   0.600   6.659   1.628 -0.6777 -0.9763  0.1684
15379TIP3    H267553   0.717   6.640   1.534  0.3215  0.0269  1.1954
15380TIP3   OH267554   0.364   5.142   4.326 -0.3699  0.3159  0.0181
15380TIP3    H167555   0.390   5.093   4.405  0.5042  0.2226 -0.3245
15380TIP3    H267556   0.275   5.112   4.308 -1.1363  1.4455  1.8301
15381TIP3   OH267557   6.661   5.884   1.568  0.4107  0.7171 -0.0761
15381TIP3    H167558   6.704   5.808   1.529 -0.9177 -0.1759  0.1792
15381TIP3    H267559   6.642   5.941   1.494  1.0925  0.6355 -0.3152
15382TIP3   OH267560   5.269   6.707   3.368 -0.0771  0.1222  0.0927
15382TIP3    H167561   5.303   6.755   3.444 -0.4629  0.6164 -0.0437
15382TIP3    H267562   5.174   6.714   3.375 -0.1326  3.0673 -2.1915
15383TIP3   OH267563   0.269   7.036   2.742 -0.1263  0.8224  0.2115
15383TIP3    H167564   0.337   6.974   2.768  0.0899  0.5161 -1.0570
15383TIP3    H267565   0.215   6.987   2.680 -1.3132  1.1712  0.9665
15384TIP3   OH267566   6.299   6.850   1.705 -0.1872 -0.6317  0.5499
15384TIP3    H167567   6.282   6.887   1.618  1.2555 -0.6920  0.2278
15384TIP3    H267568   6.394   6.857   1.716  0.2872 -4.9742  0.1403
15385TIP3   OH267569   4.087   5.884   4.327  0.4480  0.3946 -0.1622
15385TIP3    H167570   4.118   5.794   4.338 -2.5510 -0.5547  1.0093
15385TIP3    H267571   4.003   5.887   4.373 -0.3449  3.3354 -1.6363
15386TIP3   OH267572   4.066   3.209   4.952  0.5235  0.9549 -0.0174
15386TIP3    H167573   3.995   3.236   4.892  2.0351  2.1019 -1.3331
15386TIP3    H267574   4.103   3.292   4.983  1.0233  0.3566  1.0105
15387TIP3   OH267575   1.777   4.348   3.596  0.1094  0.1018 -0.3825
15387TIP3    H167576   1.834   4.290   3.647 -1.5388 -0.0475  1.3502
15387TIP3    H267577   1.769   4.304   3.511  0.3562 -1.2848  0.2934
15388TIP3   OH267578   4.326   6.028   0.279  0.1868 -0.0329  0.3814
15388TIP3    H167579   4.250   6.075   0.246 -0.7780 -0.9421  1.2540
15388TIP3    H267580   4.305   6.010   0.371  0.8813 -1.4287  0.2865
15389TIP3   OH267581   3.747   3.933   0.657  0.1813 -0.0328  0.3194
15389TIP3    H167582   3.725   4.015   0.613  0.2715  0.1744  0.6600
15389TIP3    H267583   3.811   3.958   0.723 -0.2499 -0.2805  0.8364
15390TIP3   OH267584   6.773   4.095   1.934 -0.4431  0.2748 -0.5034
15390TIP3    H167585   6.845   4.158   1.931 -0.5545  0.5193  1.3837
15390TIP3    H267586   6.752   4.087   2.027 -2.1396 -0.6102 -0.9430
15391TIP3   OH267587   2.028   0.858   2.633 -0.0599 -0.7868  0.2830
15391TIP3    H167588   2.040   0.783   2.574  0.2950 -0.7833  0.3503
15391TIP3    H267589   2.114   0.873   2.671  0.1831  0.4733 -0.7122
15392TIP3   OH267590   1.500   5.234   5.114  0.4876  0.2643 -0.2800
15392TIP3    H167591   1.449   5.214   5.192 -0.8533  1.0547 -0.9399
15392TIP3    H267592   1.519   5.149   5.075  0.7722 -0.1049  0.6542
15393TIP3   OH267593   3.241   1.777   4.969 -0.0193  0.3068 -0.2237
15393TIP3    H167594   3.180   1.703   4.970 -0.8864  1.0155  1.4421
15393TIP3    H267595   3.318   1.745   4.922 -0.4749 -1.5674  0.2837
15394TIP3   OH267596   5.174   1.531  13.039  0.1946  0.5929  0.2669
15394TIP3    H167597   5.130   1.446  13.039 -2.3389  1.8306 -1.1975
15394TIP3    H267598   5.235   1.527  12.966 -0.6483  0.3680 -0.4322
15395TIP3   OH267599   1.971   4.943   1.750  0.2036  0.1793 -0.5000
15395TIP3    H167600   1.978   4.986   1.835  0.6037 -0.5495 -0.1595
15395TIP3    H267601   2.061   4.939   1.718  0.1992 -0.6166 -0.4216
15396TIP3   OH267602   1.568   0.512   3.572 -0.3110 -0.2763 -0.1810
15396TIP3    H167603   1.473   0.504   3.568 -0.2738 -0.0575 -1.5618
15396TIP3    H267604   1.583   0.586   3.631 -0.9451 -1.2560  1.2405
15397TIP3   OH267605   4.581   2.452   5.110  0.2763  0.1905 -0.3183
15397TIP3    H167606   4.670   2.465   5.143  0.3962 -0.2106 -0.4841
15397TIP3    H267607   4.541   2.390   5.171 -0.6014  2.0018  0.9997
15398TIP3   OH267608   2.527   4.555   4.764 -0.3873  0.0409  0.1949
15398TIP3    H167609   2.575   4.516   4.692  0.4341 -1.6614  1.6294
15398TIP3    H267610   2.446   4.505   4.771  0.0903 -0.6148  1.2193
15399TIP3   OH267611   6.164   5.291   4.373 -0.0999  0.2362  0.8536
15399TIP3    H167612   6.238   5.280   4.433  1.5225  0.3823 -1.0351
15399TIP3    H267613   6.115   5.365   4.408  2.0654  1.7373  0.8074
15400TIP3   OH267614   2.854   3.658   2.451 -0.0096 -0.2687 -0.4671
15400TIP3    H167615   2.930   3.615   2.489 -0.7072 -1.7077 -0.6894
15400TIP3    H267616   2.780   3.629   2.505 -0.4275  1.0023 -0.3390
15401TIP3   OH267617   1.444   5.981   2.203 -0.4696 -0.0664 -0.9923
15401TIP3    H167618   1.411   5.993   2.292 -0.0456  0.0915 -0.8548
15401TIP3    H267619   1.530   6.023   2.204 -1.3829  1.9130 -2.0904
15402TIP3   OH267620   2.174   3.648   1.691  0.1166 -0.0575 -0.4834
15402TIP3    H167621   2.221   3.675   1.769  0.3706 -1.0630 -0.2732
15402TIP3    H267622   2.089   3.617   1.724  0.2191 -0.4708 -0.6063
15403TIP3   OH267623   1.006   2.222   2.933 -0.5953  0.0612 -0.6244
15403TIP3    H167624   1.091   2.179   2.940 -0.6625  0.0109 -0.0982
15403TIP3    H267625   1.000   2.277   3.012 -1.3912 -0.5530 -0.2493
15404TIP3   OH267626   3.552   7.162   2.917 -0.0977 -0.3890  0.3326
15404TIP3    H167627   3.564   7.231   2.851 -2.8025 -0.7299 -0.5883
15404TIP3    H267628   3.575   7.081   2.872 -0.4851 -0.4653  0.2709
15405TIP3   OH267629   4.614   4.288   3.767 -0.2937  0.0608  0.9575
15405TIP3    H167630   4.656   4.207   3.740 -1.5422 -0.3322  0.1361
15405TIP3    H267631   4.627   4.347   3.692 -0.3893  0.2396  1.0821
15406TIP3   OH267632   2.470   1.346   1.140  0.2333  0.4791 -0.0285
15406TIP3    H167633   2.493   1.409   1.209 -0.8120  1.4088 -0.5009
15406TIP3    H267634   2.376   1.333   1.151  0.7590 -2.4864  1.2538
15407TIP3   OH267635   0.066   4.581   5.514  0.4019  0.1005 -0.8587
15407TIP3    H167636   0.087   4.632   5.593  1.5719 -0.3533 -0.8517
15407TIP3    H267637   0.024   4.643   5.456  0.6147  0.7517 -0.3346
15408TIP3   OH267638   0.186   3.475   3.125 -0.2488  0.0813  0.0733
15408TIP3    H167639   0.100   3.517   3.123 -1.0464 -1.5338 -1.0511
15408TIP3    H267640   0.181   3.415   3.199  0.0991  0.3675  0.3286
15409TIP3   OH267641   5.736   0.136  12.425  0.1817 -0.1692  0.0270
15409TIP3    H167642   5.700   0.211  12.472  0.4573 -0.0712  0.0799
15409TIP3    H267643   5.690   0.137  12.341  1.5470  1.1906 -0.7216
15410TIP3   OH267644   6.900   5.601   4.495  0.0903 -0.2297  0.3855
15410TIP3    H167645   6.864   5.662   4.431 -3.4283 -0.3754  2.0995
15410TIP3    H267646   6.993   5.625   4.501  0.0536  1.1198 -3.1775
15411TIP3   OH267647   2.656   4.154  13.156  0.0166 -0.2162  0.2587
15411TIP3    H167648   2.585   4.195  13.207 -1.1891  0.1349 -1.6680
15411TIP3    H267649   2.689   4.225  13.100  2.9321  0.0349  2.1671
15412TIP3   OH267650   3.292   5.238   4.930  0.1280  0.0906  0.8545
15412TIP3    H167651   3.371   5.288   4.947 -0.1427  1.0431 -0.5648
15412TIP3    H267652   3.246   5.235   5.014  0.6101  1.4190  1.1734
15413TIP3   OH267653   4.116   4.925  14.569  0.0301 -0.2783 -0.1726
15413TIP3    H167654   4.028   4.898  14.543  0.2906 -0.9435 -0.3979
15413TIP3    H267655   4.103   4.988  14.639 -0.6698  0.9773 -1.4265
15414TIP3   OH267656   3.085   3.564   2.568  0.5879 -0.1022  0.2790
15414TIP3    H167657   3.088   3.541   2.661  0.8688 -0.6073  0.1448
15414TIP3    H267658   3.166   3.614   2.554  0.9326 -0.7103  0.1214
15415TIP3   OH267659   3.329   4.925   0.067 -0.0564 -0.0534 -0.0337
15415TIP3    H167660   3.289   4.996   0.017  0.4462 -0.3201 -0.8125
15415TIP3    H267661   3.386   4.969   0.130 -2.4506  0.3923  1.8803
15416TIP3   OH267662   3.861   0.393   5.085 -0.5900  0.7808  0.3030
15416TIP3    H167663   3.857   0.404   5.180 -0.7046 -1.1688  0.5486
15416TIP3    H267664   3.870   0.298   5.073  1.7428  1.1857 -1.5592
15417TIP3   OH267665   0.191   3.434   4.942  0.5313  0.3033  0.1991
15417TIP3    H167666   0.139   3.438   5.022 -0.4176 -0.1912 -0.3850
15417TIP3    H267667   0.186   3.522   4.905 -1.6204 -0.2587 -0.9225
15418TIP3   OH267668   1.289   0.674   2.655 -0.3527 -0.4414 -0.3166
15418TIP3    H167669   1.325   0.727   2.726 -0.0769  0.3642 -1.0555
15418TIP3    H267670   1.199   0.706   2.645  0.3267  1.0526 -1.8750
15419TIP3   OH267671   1.187   5.992  15.433 -0.5567  0.1793 -0.0189
15419TIP3    H167672   1.106   6.017  15.476  0.3070  1.4484  0.9049
15419TIP3    H267673   1.186   6.038  15.350 -0.4534  0.7570  0.3000
15420TIP3   OH267674   2.233   5.020   1.692  0.6426  0.7203  1.1647
15420TIP3    H167675   2.203   5.109   1.714  0.0940  0.9569 -0.5105
15420TIP3    H267676   2.321   5.033   1.657  0.2493  0.6965  0.1581
15421TIP3   OH267677   5.986   6.633  14.635 -0.1732 -0.0471  0.5222
15421TIP3    H167678   6.030   6.661  14.555  3.6125  0.5506  2.6725
15421TIP3    H267679   5.914   6.695  14.646  0.1478  0.7505 -1.6092
15422TIP3   OH267680   3.548   4.909   2.611  0.7103 -0.1404  0.1565
15422TIP3    H167681   3.498   4.899   2.692 -0.7439  0.8581 -0.5929
15422TIP3    H267682   3.625   4.960   2.637  0.7587 -0.6904  1.1104
15423TIP3   OH267683   0.598   4.166   4.201  0.0624  0.2291  0.2237
15423TIP3    H167684   0.536   4.238   4.212  0.4983  0.6562 -0.0955
15423TIP3    H267685   0.669   4.204   4.149 -0.7233 -1.0069 -1.8172
15424TIP3   OH267686   1.115   1.225   2.553  0.3420 -0.2734  0.3821
15424TIP3    H167687   1.106   1.265   2.639  1.9921 -0.6892  0.7740
15424TIP3    H267688   1.184   1.275   2.510 -1.5901  0.9737 -1.3435
15425TIP3   OH267689   3.027   1.231   2.578  0.0917 -0.5184 -0.3104
15425TIP3    H167690   3.093   1.216   2.646 -1.0756  2.3211  1.5639
15425TIP3    H267691   2.955   1.173   2.601  0.4528 -0.9404 -0.2296
15426TIP3   OH267692   5.435   6.084   3.035  0.3770 -0.2178 -0.3433
15426TIP3    H167693   5.380   6.020   3.078 -0.2036  0.7161  0.3359
15426TIP3    H267694   5.440   6.157   3.097  1.9132 -0.0581 -0.6287
15427TIP3   OH267695   0.321   2.875   2.737 -0.4264  0.0364 -0.2585
15427TIP3    H167696   0.344   2.800   2.683  0.5995  0.5297 -0.5187
15427TIP3    H267697   0.255   2.842   2.798 -1.9503 -0.4276 -2.0908
15428TIP3   OH267698   0.585   3.864   4.182 -0.3055 -0.1741 -0.7012
15428TIP3    H167699   0.583   3.960   4.182  0.7273 -0.1032  1.6666
15428TIP3    H267700   0.543   3.838   4.100 -1.3342  2.2912 -0.9823
15429TIP3   OH267701   6.802   2.839   4.974  0.0483  0.1650  0.2506
15429TIP3    H167702   6.724   2.804   4.932 -0.6917 -1.8124  3.1512
15429TIP3    H267703   6.771   2.915   5.023  0.3624  0.6908 -0.3582
15430TIP3   OH267704   2.253   3.837   5.116  0.1676  0.0950  0.1364
15430TIP3    H167705   2.299   3.840   5.199 -0.0845 -2.1697  0.3956
15430TIP3    H267706   2.310   3.786   5.058 -1.3321 -1.4963  0.0336
15431TIP3   OH267707   3.360   4.274   3.666  0.1154 -0.1064  0.1051
15431TIP3    H167708   3.321   4.332   3.601  0.0144 -0.4991 -0.1880
15431TIP3    H267709   3.417   4.216   3.615  0.2164 -0.2627  0.3937
15432TIP3   OH267710   2.434   3.964   3.528  0.1641  0.0615  0.2157
15432TIP3    H167711   2.518   3.922   3.551 -0.1820 -0.1748  1.0711
15432TIP3    H267712   2.413   3.930   3.442 -0.2536 -1.7690  1.0207
15433TIP3   OH267713   0.944   1.846   4.888 -0.2222  0.0556  0.1868
15433TIP3    H167714   1.008   1.914   4.910 -0.4232  0.3955 -0.2718
15433TIP3    H267715   0.871   1.893   4.848 -0.8608 -0.3061  0.8993
15434TIP3   OH267716   3.565   6.230   4.031  0.3220  0.0023 -0.6870
15434TIP3    H167717   3.499   6.281   3.984 -0.3680 -2.6766 -2.7401
15434TIP3    H267718   3.647   6.247   3.984 -0.0047 -1.1683 -1.6873
15435TIP3   OH267719   6.270   2.979   0.753  0.0464 -0.2560 -0.7395
15435TIP3    H167720   6.249   3.029   0.673  0.5919 -0.5071 -1.0405
15435TIP3    H267721   6.207   3.011   0.818 -1.0156 -0.7011 -1.5199
15436TIP3   OH267722   0.798   5.220  13.256 -0.2755 -0.6126  0.7289
15436TIP3    H167723   0.723   5.199  13.311  0.5875 -0.5633  1.9419
15436TIP3    H267724   0.870   5.170  13.294 -0.0841 -2.1743 -1.5700
15437TIP3   OH267725   1.730   5.198   4.594 -0.1363  0.3811 -0.0378
15437TIP3    H167726   1.735   5.109   4.561  0.9910  0.5790 -0.4564
15437TIP3    H267727   1.774   5.194   4.679 -1.2390  0.2763  0.5279
15438TIP3   OH267728   0.177   4.592   2.233  0.2089 -0.5281 -0.2032
15438TIP3    H167729   0.142   4.551   2.154  1.3446 -0.7638 -0.5861
15438TIP3    H267730   0.242   4.655   2.201 -0.4842  0.5435  0.4554
15439TIP3   OH267731   6.311   1.275   3.996  0.2012 -0.2790  0.2372
15439TIP3    H167732   6.238   1.250   4.053  0.0102  1.1589  0.6344
15439TIP3    H267733   6.339   1.360   4.029  0.5838  0.2157 -1.3455
15440TIP3   OH267734   3.431   2.742   3.845 -0.1226  0.0744 -0.1395
15440TIP3    H167735   3.502   2.677   3.847 -0.4036 -0.2336 -0.1694
15440TIP3    H267736   3.351   2.690   3.847 -0.3840  0.2959 -3.1635
15441TIP3   OH267737   0.326   4.293   0.206 -0.6160 -0.0470 -0.4103
15441TIP3    H167738   0.396   4.359   0.207  0.3855 -1.1239  0.7139
15441TIP3    H267739   0.366   4.215   0.168 -0.5312 -1.3912  2.3069
15442TIP3   OH267740   6.511   3.761  13.917  0.7629  0.7430  0.0716
15442TIP3    H167741   6.427   3.737  13.955  0.9826 -0.0530  0.0626
15442TIP3    H267742   6.576   3.732  13.981  1.1031 -0.0727 -0.6326
15443TIP3   OH267743   3.103   5.408   4.484  1.0016  0.1795 -0.1263
15443TIP3    H167744   3.040   5.350   4.442 -2.2232  2.3632  1.5040
15443TIP3    H267745   3.164   5.348   4.529 -1.1271 -1.9863 -0.0252
15444TIP3   OH267746   4.028   4.619   3.604 -0.1807  0.1603  0.0201
15444TIP3    H167747   3.997   4.709   3.618  0.1488  0.0825  1.2701
15444TIP3    H267748   4.123   4.625   3.612 -0.1422 -0.2670 -0.1128
15445TIP3   OH267749   5.021   5.158   2.619  0.8161  0.0694  0.0682
15445TIP3    H167750   4.983   5.196   2.698  0.6505 -0.3747  0.2054
15445TIP3    H267751   4.981   5.071   2.613  0.0817  0.4839 -1.0509
15446TIP3   OH267752   5.631   2.669   1.512  0.1238 -0.1301 -0.0483
15446TIP3    H167753   5.598   2.678   1.423 -0.6155  1.6287  0.4049
15446TIP3    H267754   5.562   2.703   1.568  0.9874 -0.3149  1.1602
15447TIP3   OH267755   0.404   0.765   0.995  0.1932  0.4084 -0.3474
15447TIP3    H167756   0.321   0.814   0.999  0.9914  1.8533 -1.1655
15447TIP3    H267757   0.426   0.749   1.086 -2.3321 -2.3464 -0.1343
15448TIP3   OH267758   1.427   6.638   2.922  0.1758 -0.5418  0.2819
15448TIP3    H167759   1.381   6.583   2.985 -3.1984  0.8268 -0.8602
15448TIP3    H267760   1.426   6.725   2.961  0.7049 -0.2502 -0.3447
15449TIP3   OH267761   0.236   5.700   4.230  0.2356 -0.0796 -0.1964
15449TIP3    H167762   0.159   5.720   4.178 -0.1602  0.8862  0.7641
15449TIP3    H267763   0.206   5.635   4.294 -0.0036  0.9570  0.7519
15450TIP3   OH267764   1.265   3.420   3.109 -0.1124 -0.5385 -0.3065
15450TIP3    H167765   1.300   3.363   3.040 -1.2173 -2.0355  0.3527
15450TIP3    H267766   1.191   3.463   3.068 -0.7054 -1.3498 -0.1030
15451TIP3   OH267767   0.763   4.004   3.173  0.1179 -0.3486 -0.4807
15451TIP3    H167768   0.746   4.097   3.188  0.1453 -0.2368 -1.1263
15451TIP3    H267769   0.700   3.978   3.106 -1.0593 -1.2199  0.9365
15452TIP3   OH267770   2.168   0.045   2.399 -0.0600  0.2627 -0.4911
15452TIP3    H167771   2.199   0.071   2.312  1.2091  1.4008  0.2723
15452TIP3    H267772   2.248   0.039   2.451 -0.7803 -0.7534  0.5080
15453TIP3   OH267773   1.885   6.880   2.193  0.8351  0.1310  0.4257
15453TIP3    H167774   1.898   6.788   2.217  1.0244  0.1606  0.4412
15453TIP3    H267775   1.933   6.890   2.110  0.0726 -0.0059 -0.0330
15454TIP3   OH267776   0.162   4.364   3.588 -0.2579  0.0204 -0.3194
15454TIP3    H167777   0.150   4.283   3.539 -1.2848  0.7559 -1.3129
15454TIP3    H267778   0.097   4.424   3.551  0.5401  1.3186  0.3439
15455TIP3   OH267779   4.683   4.083   5.654  0.7248 -0.1384  0.1774
15455TIP3    H167780   4.744   4.021   5.695  1.5040 -0.1947 -1.0344
15455TIP3    H267781   4.632   4.030   5.593  1.0660  0.3270 -0.5132
15456TIP3   OH267782   6.663   6.041   1.978  0.2478 -0.0012  0.5298
15456TIP3    H167783   6.720   6.035   1.902  0.2194 -0.6815  0.5605
15456TIP3    H267784   6.723   6.040   2.053  0.1950 -0.6935  0.5615
15457TIP3   OH267785   5.728   1.698   4.593 -0.3137 -0.5284  0.4317
15457TIP3    H167786   5.682   1.735   4.668 -0.3941 -0.8877  0.5649
15457TIP3    H267787   5.675   1.723   4.517 -0.4780 -0.5424  0.5411
15458TIP3   OH267788   5.930   5.970   2.607 -0.1672 -0.2058  0.6528
15458TIP3    H167789   5.950   5.880   2.584  0.5865 -0.8524  3.5681
15458TIP3    H267790   6.011   6.018   2.590  0.3730 -0.6665  1.8625
15459TIP3   OH267791   4.345   2.551   2.802 -0.2712 -0.2868 -0.3105
15459TIP3    H167792   4.269   2.509   2.763 -0.8068  0.2766  0.1245
15459TIP3    H267793   4.316   2.640   2.824 -0.5106 -1.0415  2.7810
15460TIP3   OH267794   1.665   0.600   4.634 -0.4311  0.2621  0.1287
15460TIP3    H167795   1.582   0.604   4.680  0.1110 -1.0742  1.2457
15460TIP3    H267796   1.675   0.509   4.608  0.6872  0.4010  0.0236
15461TIP3   OH267797   5.902   2.431   1.782  0.1371 -0.0895  0.7920
15461TIP3    H167798   5.970   2.491   1.751 -1.5279  0.7649 -1.3576
15461TIP3    H267799   5.890   2.453   1.874  2.2931  0.1921  1.0252
15462TIP3   OH267800   5.719   0.798   3.202  0.5349  0.3028 -0.2020
15462TIP3    H167801   5.629   0.811   3.232  0.5752  0.9719 -0.3759
15462TIP3    H267802   5.739   0.707   3.226 -0.3511 -0.0031 -0.5978
15463TIP3   OH267803   1.792   7.076   4.926 -0.0820  0.2907 -0.1803
15463TIP3    H167804   1.842   7.069   5.007 -1.0248  1.0706  0.4800
15463TIP3    H267805   1.780   6.985   4.898 -2.0725 -0.1562  2.0064
15464TIP3   OH267806   5.023   1.923   3.043  0.3182  0.6659 -0.0208
15464TIP3    H167807   5.059   2.008   3.069  1.3660  0.4186 -0.6365
15464TIP3    H267808   4.943   1.914   3.095  0.9275  1.4080  1.0610
15465TIP3   OH267809   3.890   4.599   0.685 -0.1788  0.2196 -0.4437
15465TIP3    H167810   3.928   4.511   0.679  1.5715  1.0087 -1.5976
15465TIP3    H267811   3.802   4.585   0.719  0.9558 -1.7349  1.8112
15466TIP3   OH267812   6.174   3.816   5.537  0.3236  0.2270  0.1290
15466TIP3    H167813   6.220   3.851   5.461  2.5784 -0.2793  1.2249
15466TIP3    H267814   6.144   3.894   5.583 -0.2657  0.5580 -0.7965
15467TIP3   OH267815   2.307   4.712   3.416 -0.1085  0.0201  0.2215
15467TIP3    H167816   2.257   4.726   3.336  0.4157  0.5580 -0.0104
15467TIP3    H267817   2.257   4.646   3.464  0.1220 -1.0831 -1.0264
15468TIP3   OH267818   4.054   3.965   0.209  0.2175 -0.2981  0.0830
15468TIP3    H167819   4.114   3.982   0.281  1.1704  0.3209 -0.8519
15468TIP3    H267820   4.106   3.980   0.130 -1.8204  2.7918 -0.7617
15469TIP3   OH267821   0.985   4.934   2.676  0.7290  0.0183  0.5033
15469TIP3    H167822   0.921   4.868   2.704  0.0864 -0.3611 -1.7253
15469TIP3    H267823   1.056   4.928   2.739 -0.4903 -1.0411  1.7946
15470TIP3   OH267824   3.353   6.815   5.418 -0.2258  0.0351 -0.0361
15470TIP3    H167825   3.408   6.747   5.457 -0.7234 -0.0038  0.5977
15470TIP3    H267826   3.306   6.770   5.348  0.5930  0.0844 -0.6266
15471TIP3   OH267827   3.089   0.130   3.113  0.0157 -0.0793  0.4312
15471TIP3    H167828   3.016   0.186   3.085  0.3082  0.0857 -0.0079
15471TIP3    H267829   3.082   0.052   3.058 -0.5657 -0.6168  1.2429
15472TIP3   OH267830   6.480   1.171   2.513 -0.3574  1.0781  0.0470
15472TIP3    H167831   6.533   1.102   2.472 -0.5208  0.4948  0.8068
15472TIP3    H267832   6.414   1.192   2.447 -2.3613 -1.8360  1.0371
15473TIP3   OH267833   4.181   3.439   4.094  0.1402  0.3216 -0.4495
15473TIP3    H167834   4.141   3.361   4.133  0.1378  1.0566  1.0726
15473TIP3    H267835   4.247   3.405   4.034 -0.0621 -0.8622 -0.0156
15474TIP3   OH267836   4.142   5.641   1.889  0.2053 -0.2955 -0.1332
15474TIP3    H167837   4.157   5.714   1.829 -1.6111 -1.0525 -1.5637
15474TIP3    H267838   4.192   5.569   1.852  2.0878  0.2357  1.3400
15475TIP3   OH267839   5.920   3.617   4.213 -0.6273  0.3493  0.0899
15475TIP3    H167840   5.878   3.680   4.272  0.3823  0.5915  0.5657
15475TIP3    H267841   5.873   3.535   4.229 -2.8464  1.2541 -1.5074
15476TIP3   OH267842   3.843   6.136   5.362  0.3365 -0.2596  0.5698
15476TIP3    H167843   3.910   6.070   5.378 -0.0078 -0.4994  1.0636
15476TIP3    H267844   3.803   6.150   5.448 -0.0104  0.1320  0.3451
15477TIP3   OH267845   1.985   0.275   4.125  0.5716 -0.2328  0.0632
15477TIP3    H167846   2.014   0.348   4.180  1.4003 -1.0132  0.6640
15477TIP3    H267847   1.913   0.235   4.174  0.7231 -0.3808  0.1659
15478TIP3   OH267848   1.408   0.677   3.321  0.0317 -0.1074 -0.6226
15478TIP3    H167849   1.415   0.709   3.231  1.6431 -2.2142 -1.2993
15478TIP3    H267850   1.342   0.607   3.316  0.6653 -0.7342 -0.3448
15479TIP3   OH267851   2.743   5.527   0.693  0.0948  0.2886  0.3464
15479TIP3    H167852   2.712   5.535   0.603 -0.8305  1.1794  0.7497
15479TIP3    H267853   2.824   5.577   0.694 -0.2890  0.9141  0.2084
15480TIP3   OH267854   4.841   2.304   5.166  0.1951  0.7745 -0.0823
15480TIP3    H167855   4.803   2.359   5.234  0.2068 -0.5839  1.0391
15480TIP3    H267856   4.893   2.239   5.213  1.9590  1.1227 -1.4878
15481TIP3   OH267857   5.836   3.973   4.895 -0.6959 -0.0374 -0.4148
15481TIP3    H167858   5.857   3.913   4.967 -0.7680 -0.2187 -0.5458
15481TIP3    H267859   5.919   4.018   4.878 -0.4519 -0.6188 -0.8010
15482TIP3   OH267860   0.892   3.657   2.058  0.1900 -0.0173 -0.1241
15482TIP3    H167861   0.891   3.583   2.118  1.9095  1.2035  1.4725
15482TIP3    H267862   0.859   3.622   1.975  1.2749 -2.6380  0.5076
15483TIP3   OH267863   4.316   5.380   1.442 -0.3429 -0.0610 -0.5156
15483TIP3    H167864   4.313   5.298   1.394  2.3664  0.4453 -1.6639
15483TIP3    H267865   4.320   5.448   1.374 -0.8479  0.9126  0.4119
15484TIP3   OH267866   1.977   1.845   1.488  0.1887 -0.5450  1.2275
15484TIP3    H167867   1.884   1.840   1.509 -0.1879 -2.2563 -0.6919
15484TIP3    H267868   2.018   1.779   1.543 -0.0663 -1.3740  0.4363
15485TIP3   OH267869   1.855   3.628   0.475 -0.2628 -0.4314  0.3020
15485TIP3    H167870   1.871   3.682   0.552 -1.5436  0.7399 -0.2449
15485TIP3    H267871   1.865   3.538   0.506 -0.9445  0.0267  1.8711
15486TIP3   OH267872   5.202   6.028  15.426 -0.5767 -0.0021 -0.8603
15486TIP3    H167873   5.110   6.053  15.425 -1.1483 -2.0119 -0.6132
15486TIP3    H267874   5.201   5.933  15.439  1.5910  0.2896  1.8756
15487TIP3   OH267875   2.983   6.868   2.775  0.0756 -0.2703  0.0663
15487TIP3    H167876   3.010   6.957   2.799 -1.6169 -0.2427  2.0383
15487TIP3    H267877   3.056   6.834   2.724  1.1086  1.9569 -0.0197
15488TIP3   OH267878   1.488   1.170   3.521  0.6277 -0.3730 -0.2452
15488TIP3    H167879   1.481   1.074   3.523  1.2090 -0.3934  1.9991
15488TIP3    H267880   1.397   1.200   3.516  0.4777 -1.0468 -1.6769
15489TIP3   OH267881   4.618   2.811   4.545  0.8629 -0.4238 -0.2013
15489TIP3    H167882   4.667   2.755   4.606  0.2814  1.0521  1.6781
15489TIP3    H267883   4.681   2.832   4.476  2.3094 -0.0981  1.1950
15490TIP3   OH267884   2.274   4.752  14.487  0.0121  0.3118  0.0427
15490TIP3    H167885   2.253   4.800  14.567  2.2107  0.0625  0.7852
15490TIP3    H267886   2.339   4.807  14.443  0.5741 -0.6917 -0.4003
15491TIP3   OH267887   2.549   0.503   3.875  0.0636  0.0932  0.5031
15491TIP3    H167888   2.589   0.550   3.948 -0.7792 -0.8658  1.6079
15491TIP3    H267889   2.467   0.548   3.859  0.5824  0.7529 -0.3554
15492TIP3   OH267890   0.236   3.732   3.932  0.4099 -0.9594  0.1639
15492TIP3    H167891   0.233   3.714   3.838  0.1970 -0.8962  0.1581
15492TIP3    H267892   0.147   3.715   3.962  0.3751 -0.5806  0.2795
15493TIP3   OH267893   3.162   2.090   1.815 -0.2665 -0.3074 -0.0938
15493TIP3    H167894   3.209   2.133   1.744  0.2936 -0.4217  0.2002
15493TIP3    H267895   3.122   2.162   1.864 -0.3537 -0.2052 -0.3147
15494TIP3   OH267896   1.833   2.287   1.407 -0.1074 -0.0709  0.3029
15494TIP3    H167897   1.872   2.340   1.477  2.1085  0.0347 -0.9514
15494TIP3    H267898   1.819   2.349   1.335  0.8523 -0.8247 -0.5537
15495TIP3   OH267899   2.159   5.080   1.428 -0.3790 -0.8006  0.2243
15495TIP3    H167900   2.121   5.161   1.460 -1.0418 -0.6622 -0.8977
15495TIP3    H267901   2.166   5.024   1.506 -1.3588 -0.2321  0.7262
15496TIP3   OH267902   5.400   2.562   3.576 -0.7111 -1.5286 -0.0054
15496TIP3    H167903   5.405   2.611   3.659  1.1061 -1.4931 -0.1288
15496TIP3    H267904   5.363   2.477   3.601 -0.7969 -1.2831  0.7366
15497TIP3   OH267905   1.336   3.314   1.639  0.0223 -0.0022 -0.0027
15497TIP3    H167906   1.418   3.348   1.604  0.4487  0.1331  1.0951
15497TIP3    H267907   1.335   3.345   1.730 -1.0335 -0.3701  0.1102
15498TIP3   OH267908   2.546   4.754   1.932  0.0059  0.1153 -0.5650
15498TIP3    H167909   2.545   4.802   2.015 -0.1960 -0.2178 -0.3712
15498TIP3    H267910   2.636   4.721   1.925  0.9632  2.9253 -2.1143
15499TIP3   OH267911   4.981   5.770  13.694 -0.0597 -1.1764 -0.0777
15499TIP3    H167912   5.037   5.835  13.652 -1.7866 -0.4499 -1.3531
15499TIP3    H267913   4.955   5.811  13.776  1.4705 -1.6293  0.6402
15500TIP3   OH267914   5.449   3.250   2.228  0.1804  0.2383 -0.3971
15500TIP3    H167915   5.412   3.311   2.164  2.1316  2.6519  0.6987
15500TIP3    H267916   5.517   3.300   2.273  1.5390 -2.6246  0.8762
15501TIP3   OH267917   3.803   4.811   1.031 -0.2283 -0.2119  0.0629
15501TIP3    H167918   3.899   4.809   1.029 -0.1946  1.7726 -2.3944
15501TIP3    H267919   3.779   4.743   1.094  2.7254 -2.3844 -1.0436
15502TIP3   OH267920   2.851   4.975   0.917 -0.2328 -0.2217  0.1664
15502TIP3    H167921   2.820   4.958   0.828 -0.5347  0.5279  0.1269
15502TIP3    H267922   2.778   5.018   0.961  1.0002  2.2789 -0.1513
15503TIP3   OH267923   4.119   4.845   2.110 -0.4146  0.1300 -0.1436
15503TIP3    H167924   4.109   4.775   2.046 -0.4060  0.1569 -0.1743
15503TIP3    H267925   4.080   4.922   2.068  0.2858  0.3353 -0.4383
15504TIP3   OH267926   0.662   5.798   5.297  0.7369 -0.7148  0.0461
15504TIP3    H167927   0.577   5.794   5.341  0.1606 -2.9143 -1.2123
15504TIP3    H267928   0.657   5.877   5.243 -0.8402 -1.2773 -0.6565
15505TIP3   OH267929   2.847   1.006   3.125  0.5645 -0.7461 -0.2671
15505TIP3    H167930   2.938   1.014   3.150  0.4102 -2.0513  0.7190
15505TIP3    H267931   2.850   0.968   3.037  0.9484 -1.3788  0.0198
15506TIP3   OH267932   3.913   5.414   3.652 -0.1062  0.3901 -0.0624
15506TIP3    H167933   3.881   5.332   3.689 -0.3773 -0.5868 -2.3951
15506TIP3    H267934   4.004   5.395   3.627 -0.8027  0.1113 -2.5347
15507TIP3   OH267935   5.765   5.486   1.197  0.0024 -0.2281 -0.0124
15507TIP3    H167936   5.808   5.543   1.134 -1.1710 -0.8076 -1.3553
15507TIP3    H267937   5.677   5.522   1.206  0.2741  0.0983  1.6286
15508TIP3   OH267938   6.297   0.265   2.012  0.1321  0.5024 -0.2998
15508TIP3    H167939   6.346   0.347   2.010  0.8414  0.1022  0.4047
15508TIP3    H267940   6.356   0.202   2.054  0.0712 -0.6890 -1.9206
15509TIP3   OH267941   0.271   6.718   4.079 -0.2456 -0.0789 -0.4413
15509TIP3    H167942   0.222   6.791   4.043  0.4258  1.1008  1.0036
15509TIP3    H267943   0.363   6.741   4.064 -0.0610 -1.5984 -1.8272
15510TIP3   OH267944   1.170   6.715   3.169  0.2926 -0.1671  0.5334
15510TIP3    H167945   1.173   6.761   3.253 -0.1266 -0.8546  0.9170
15510TIP3    H267946   1.136   6.781   3.108  1.7349  0.7153  0.6494
15511TIP3   OH267947   2.346   3.184   2.708 -0.8178  0.0263  0.6285
15511TIP3    H167948   2.280   3.138   2.656 -2.4567  0.6628  2.1003
15511TIP3    H267949   2.336   3.148   2.796 -0.0124  0.9739  1.1103
15512TIP3   OH267950   1.760   3.814   3.712 -0.4777 -0.2279  0.3844
15512TIP3    H167951   1.828   3.786   3.773 -0.3440 -0.8089 -0.0278
15512TIP3    H267952   1.718   3.733   3.683  0.7893 -0.1304 -1.8266
15513TIP3   OH267953   0.438   1.226   2.505 -0.0130 -0.4333  0.3144
15513TIP3    H167954   0.368   1.186   2.557 -0.6942  0.7284  0.3090
15513TIP3    H267955   0.431   1.185   2.419 -0.3630 -0.6994  0.4695
15514TIP3   OH267956   5.053   3.450   3.217 -0.0074 -0.5261  0.7708
15514TIP3    H167957   5.094   3.364   3.225  2.8039  0.7915  0.9958
15514TIP3    H267958   5.006   3.447   3.134  1.0579 -1.8905  0.2073
15515TIP3   OH267959   3.469   5.455   1.489 -0.1635  0.3851 -0.2756
15515TIP3    H167960   3.439   5.370   1.520 -0.2603  0.0208 -1.3524
15515TIP3    H267961   3.560   5.460   1.518  0.7247 -1.3071 -2.6265
15516TIP3   OH267962   3.326   3.329   1.350  0.2163  0.0200  0.3907
15516TIP3    H167963   3.368   3.326   1.436  0.5070 -0.3431  0.2348
15516TIP3    H267964   3.233   3.326   1.370  0.2691  0.3573  0.7143
15517TIP3   OH267965   4.458   3.686   3.343  0.0908  0.3407  0.2324
15517TIP3    H167966   4.483   3.713   3.432  1.8306 -0.7781  0.0897
15517TIP3    H267967   4.527   3.720   3.287 -0.2631 -0.1990 -0.5379
15518TIP3   OH267968   6.946   3.265   3.717 -0.2041 -0.1897  0.1485
15518TIP3    H167969   6.996   3.285   3.797  1.1621  0.9061 -0.9583
15518TIP3    H267970   7.009   3.224   3.659 -0.6259  1.0626 -1.2122
15519TIP3   OH267971   3.127   6.371   2.948 -0.3575  0.3324  0.3375
15519TIP3    H167972   3.082   6.427   2.885 -0.5690  0.9585  1.0449
15519TIP3    H267973   3.073   6.292   2.952 -0.9721  0.7648  0.6019
15520TIP3   OH267974   0.262   6.474   5.308  0.1523 -0.2419  0.3860
15520TIP3    H167975   0.205   6.521   5.368  0.6546 -1.7806  2.1283
15520TIP3    H267976   0.214   6.470   5.226  0.5851  4.2764 -0.1815
15521TIP3   OH267977   0.069   3.836   4.119  0.0813  0.0457  0.3193
15521TIP3    H167978   0.129   3.910   4.109  0.6309 -0.1734  1.8082
15521TIP3    H267979   0.006   3.864   4.185 -1.5201  0.2934 -1.2869
15522TIP3   OH267980   2.030   3.251   5.201  0.3311  0.0160 -0.5236
15522TIP3    H167981   1.976   3.236   5.123 -1.6543 -0.9504  0.9980
15522TIP3    H267982   2.091   3.320   5.174  0.1902 -0.8262 -3.1662
15523TIP3   OH267983   5.056   2.190   0.514  0.1766  0.0340  0.1694
15523TIP3    H167984   5.084   2.114   0.463 -0.7656 -0.0389 -0.2647
15523TIP3    H267985   5.024   2.251   0.447 -2.1674 -0.5252  0.7403
15524TIP3   OH267986   4.500   1.498   4.108 -0.4185  0.0236 -0.7843
15524TIP3    H167987   4.454   1.551   4.043 -0.9110 -1.0845 -1.3557
15524TIP3    H267988   4.433   1.477   4.174 -0.0172  0.8100 -0.1101
15525TIP3   OH267989   0.951   4.170   5.459 -0.4275  0.4690 -0.4868
15525TIP3    H167990   0.914   4.123   5.384 -1.0881  0.9060 -0.4309
15525TIP3    H267991   0.923   4.119   5.535 -0.3642  0.4298 -0.4901
15526TIP3   OH267992   5.187   5.542   4.662  0.0866 -0.4176  0.3610
15526TIP3    H167993   5.247   5.551   4.737 -0.9580 -0.5931  1.2340
15526TIP3    H267994   5.115   5.488   4.696 -0.3423 -0.5855 -0.8094
15527TIP3   OH267995   3.010   4.519  14.719 -0.1223 -0.1291 -0.3538
15527TIP3    H167996   2.963   4.476  14.648  0.6248  1.0518 -1.5803
15527TIP3    H267997   3.076   4.455  14.746 -0.1134 -0.4135 -1.0290
15528TIP3   OH267998   2.122   5.404   0.688 -0.3659 -0.2129 -0.0512
15528TIP3    H167999   2.149   5.326   0.638  1.3194  1.3010 -1.5692
15528TIP3    H268000   2.044   5.435   0.642 -0.5188 -0.4901  0.0183
15529TIP3   OH268001   5.638   3.627   4.130 -0.2411 -0.2420  0.2107
15529TIP3    H168002   5.694   3.555   4.100  1.3655  1.4626 -0.9872
15529TIP3    H268003   5.678   3.656   4.212 -0.2929 -0.0728  0.1767
15530TIP3   OH268004   6.950   6.806   1.501 -0.0649  0.1871 -0.6404
15530TIP3    H168005   6.901   6.886   1.482 -1.2862 -0.9255 -2.2958
15530TIP3    H268006   6.889   6.753   1.554  0.1663 -0.2981 -0.8625
15531TIP3   OH268007   4.978   2.397   2.762  0.0907 -0.4564  0.2140
15531TIP3    H168008   4.900   2.381   2.710  0.7432  0.5234 -1.0945
15531TIP3    H268009   4.944   2.420   2.849 -0.9987 -2.0014  0.2169
15532TIP3   OH268010   3.994   0.341   3.529 -0.7235 -0.3492  0.9711
15532TIP3    H168011   4.024   0.414   3.477 -1.7811 -0.2003  0.5636
15532TIP3    H268012   4.044   0.266   3.497  0.3249  0.1786  1.3591
15533TIP3   OH268013   0.035   3.067   1.663  0.3190 -0.3948 -0.4037
15533TIP3    H168014   0.126   3.057   1.690  0.6667  1.1692 -0.9259
15533TIP3    H268015  -0.015   3.021   1.730  1.3819  0.3846  0.9595
15534TIP3   OH268016   2.933   5.825   0.414 -0.2323  0.9302 -0.3145
15534TIP3    H168017   3.015   5.800   0.456  0.5881  0.1877 -2.2807
15534TIP3    H268018   2.865   5.793   0.472  0.8607 -0.3071  0.3173
15535TIP3   OH268019   0.978   3.160   4.061  0.0280  0.3378  0.0050
15535TIP3    H168020   1.036   3.236   4.059 -0.7780  0.9348 -1.7223
15535TIP3    H268021   1.034   3.086   4.039  0.1518  0.9281 -1.7881
15536TIP3   OH268022   4.544   3.925   3.635 -0.1590  0.1563 -0.3348
15536TIP3    H168023   4.475   3.965   3.687  0.0790 -0.1307  0.2005
15536TIP3    H268024   4.626   3.956   3.674  0.0216 -0.2225 -0.4107
15537TIP3   OH268025   3.335   3.432   2.503  0.7785  0.4620 -0.5245
15537TIP3    H168026   3.348   3.340   2.481 -1.5219 -0.0619  0.1659
15537TIP3    H268027   3.409   3.454   2.560  0.0960 -1.6239  1.2238
15538TIP3   OH268028   4.524   5.625   2.168  0.4875 -0.1301  0.0270
15538TIP3    H168029   4.455   5.676   2.209 -1.9226 -2.0707 -1.4692
15538TIP3    H268030   4.523   5.541   2.213  2.0777 -0.1113  0.1476
15539TIP3   OH268031   0.260   0.205   2.342  0.2132  0.5799 -0.5922
15539TIP3    H168032   0.222   0.168   2.262  0.7295  0.7833 -0.9346
15539TIP3    H268033   0.349   0.170   2.345  0.6620  1.7123 -0.8558
15540TIP3   OH268034   0.592   6.029   5.155 -0.3052  0.6434 -0.3362
15540TIP3    H168035   0.521   6.094   5.158 -0.2386  0.6411  2.3985
15540TIP3    H268036   0.671   6.080   5.173 -0.2984 -0.1861  2.2230
15541TIP3   OH268037   2.281   3.947  14.680 -0.0924 -0.5844  0.3135
15541TIP3    H168038   2.290   3.869  14.735  1.3704 -0.3696  0.4098
15541TIP3    H268039   2.315   3.920  14.594  0.7326  0.0258  0.4378
15542TIP3   OH268040   3.508   3.902   2.603 -0.0496 -0.2420  0.1881
15542TIP3    H168041   3.522   3.954   2.682  0.4257  0.1799 -0.1693
15542TIP3    H268042   3.552   3.951   2.534 -3.2566  1.1569 -0.9928
15543TIP3   OH268043   5.833   2.566   5.319 -0.0741  0.3920 -0.1646
15543TIP3    H168044   5.796   2.493   5.268 -0.8221  0.7942 -0.2020
15543TIP3    H268045   5.877   2.523   5.392 -0.4028 -0.1119 -0.2560
15544TIP3   OH268046   3.294   3.757   2.554 -0.1055  0.4461  0.0484
15544TIP3    H168047   3.385   3.778   2.575 -0.2262  1.1063 -0.0879
15544TIP3    H268048   3.292   3.747   2.459  0.1172 -1.0028  0.1805
15545TIP3   OH268049   4.861   0.855   5.013  0.2014  0.1886 -0.5354
15545TIP3    H168050   4.815   0.937   4.995 -2.2901 -0.3467  2.9031
15545TIP3    H268051   4.926   0.878   5.079 -2.3562 -0.9556  2.5643
15546TIP3   OH268052   3.794   5.767   4.366  0.0149  0.1440 -0.4647
15546TIP3    H168053   3.832   5.703   4.427  1.1021 -0.8122 -2.1084
15546TIP3    H268054   3.715   5.798   4.411 -0.3731 -2.1206  0.5234
15547TIP3   OH268055   2.571   0.244   6.010 -0.2340 -0.4269  0.0214
15547TIP3    H168056   2.635   0.295   5.960 -0.1356  0.4413  1.0271
15547TIP3    H268057   2.608   0.156   6.013  0.2053 -0.2730 -0.6538
15548TIP3   OH268058   0.588   5.762   0.066 -0.2350 -0.1114  0.3816
15548TIP3    H168059   0.550   5.759  -0.022 -0.3352 -0.0662  0.4234
15548TIP3    H268060   0.518   5.796   0.121  0.7408  2.5506  0.0150
15549TIP3   OH268061   2.759   4.381   3.199 -0.4348  0.6084  0.6412
15549TIP3    H168062   2.788   4.442   3.266  1.5557  0.9893 -0.5336
15549TIP3    H268063   2.828   4.314   3.196  0.0631  1.1747 -1.7427
15550TIP3   OH268064   1.341   6.003   0.280  0.4145 -0.1747 -0.0090
15550TIP3    H168065   1.377   6.078   0.328  1.9796 -1.2116  0.4777
15550TIP3    H268066   1.399   5.992   0.205 -1.7951  1.1855 -1.9888
15551TIP3   OH268067   0.216   2.946  15.140  0.0679  0.3315 -0.2930
15551TIP3    H168068   0.154   2.873  15.143 -0.7241  0.9111 -2.0401
15551TIP3    H268069   0.301   2.904  15.129 -0.0777 -0.4224  1.2158
15552TIP3   OH268070   2.871   0.292   3.022  0.0381 -0.3380  0.0623
15552TIP3    H168071   2.846   0.247   2.941  0.6873  0.5959 -0.6815
15552TIP3    H268072   2.790   0.334   3.052 -0.8846 -3.1073  1.5138
15553TIP3   OH268073   6.421   4.149   5.518 -0.6986  0.0157  0.4361
15553TIP3    H168074   6.516   4.141   5.523 -0.6931 -0.7438 -0.6524
15553TIP3    H268075   6.406   4.241   5.498 -0.1918  0.1450  0.6426
15554TIP3   OH268076   4.992   5.056   2.943  0.2499 -0.1016 -0.1085
15554TIP3    H168077   4.994   4.961   2.933 -0.0252 -0.4601  2.8968
15554TIP3    H268078   5.065   5.075   3.002 -0.4938  1.4256  0.3273
15555TIP3   OH268079   5.618   2.892   2.632  0.3350  0.0658 -0.6603
15555TIP3    H168080   5.647   2.966   2.687 -2.6231  1.3086 -0.6578
15555TIP3    H268081   5.624   2.816   2.690 -0.3329  0.9569  0.6197
15556TIP3   OH268082   3.085   3.886   3.335 -0.2991  0.5020  0.1593
15556TIP3    H168083   3.011   3.887   3.274 -0.0801  0.9088 -0.1012
15556TIP3    H268084   3.091   3.976   3.366  0.7875  0.7323 -0.6713
15557TIP3   OH268085   5.870   2.130  14.109  0.7271  0.0024 -0.7174
15557TIP3    H168086   5.944   2.191  14.111  0.1224  0.7087  0.3756
15557TIP3    H268087   5.809   2.164  14.175 -0.2866 -0.9355 -1.1649
15558TIP3   OH268088   3.180   4.961   2.462  0.0332 -0.0411 -0.2618
15558TIP3    H168089   3.196   4.866   2.459 -2.4231 -0.4693 -0.5228
15558TIP3    H268090   3.253   4.998   2.412  0.3735 -1.8745 -1.2039
15559TIP3   OH268091   5.384   5.356   0.633  0.1261  0.6356 -0.1329
15559TIP3    H168092   5.366   5.305   0.711  0.0226  0.6358 -0.1560
15559TIP3    H268093   5.477   5.378   0.639  0.4502 -0.5505 -0.7097
15560TIP3   OH268094   2.016   6.854   0.079 -0.5262 -0.0829  0.0867
15560TIP3    H168095   1.956   6.925   0.057 -1.6400 -0.5744  1.4469
15560TIP3    H268096   2.027   6.860   0.174  2.9018  1.0152 -0.3170
15561TIP3   OH268097   0.283   1.107   2.699 -0.4733 -0.0998  0.3126
15561TIP3    H168098   0.286   1.190   2.747  3.3047  0.3601 -0.5173
15561TIP3    H268099   0.324   1.044   2.759  1.0508 -0.2885 -0.8966
15562TIP3   OH268100   5.804   3.048   1.474  0.3580  0.0613 -0.3110
15562TIP3    H168101   5.767   3.136   1.466  2.7265  0.8861 -2.9388
15562TIP3    H268102   5.728   2.992   1.490 -1.2405  2.4842  0.9395
15563TIP3   OH268103   5.892   5.812   4.537 -0.4521  0.4311 -0.2927
15563TIP3    H168104   5.876   5.777   4.449  1.1977  0.8197 -0.7517
15563TIP3    H268105   5.865   5.904   4.532 -1.5830  0.1243 -0.0193
15564TIP3   OH268106   5.893   4.609   1.382 -0.2366  0.3574 -0.1808
15564TIP3    H168107   5.910   4.559   1.302  1.0191  0.2819  0.1185
15564TIP3    H268108   5.976   4.652   1.402 -0.1678 -0.6098  1.7619
15565TIP3   OH268109   5.244   5.759  13.884  0.1730  0.1934 -0.1583
15565TIP3    H168110   5.319   5.700  13.875 -0.6590 -1.1083  1.2244
15565TIP3    H268111   5.168   5.705  13.862 -0.5265  0.9889  0.2555
15566TIP3   OH268112   6.147   6.807   5.437  0.1165 -0.5644  0.1522
15566TIP3    H168113   6.077   6.779   5.495  1.0605 -2.3061  0.4837
15566TIP3    H268114   6.113   6.886   5.395 -2.0536 -1.4229  0.2407
15567TIP3   OH268115   1.606   3.720   0.533 -0.2556  0.2736 -0.0333
15567TIP3    H168116   1.618   3.793   0.594 -1.1798  1.4670 -1.2403
15567TIP3    H268117   1.679   3.727   0.472 -0.2586  0.1017 -0.0571
15568TIP3   OH268118   3.547   2.709   2.437  0.2852  0.9497 -0.0761
15568TIP3    H168119   3.634   2.707   2.398 -0.6217 -1.3348 -2.1040
15568TIP3    H268120   3.487   2.712   2.363 -1.4233  0.3340  1.2348
15569TIP3   OH268121   5.183   3.589   2.943  0.3812  0.2679 -0.5913
15569TIP3    H168122   5.116   3.535   2.903  0.5321  0.9599 -1.8217
15569TIP3    H268123   5.145   3.677   2.946  0.9766  0.5389 -0.7268
15570TIP3   OH268124   3.482   3.570   3.666  0.2721 -0.2487  0.6195
15570TIP3    H168125   3.443   3.491   3.629  0.1654 -0.2888  0.8193
15570TIP3    H268126   3.572   3.571   3.631  0.0555 -0.0886  0.0609
15571TIP3   OH268127   7.045   5.948   2.913  0.3898  0.8401  0.1081
15571TIP3    H168128   6.997   5.950   2.830  0.3471  0.7492  0.1312
15571TIP3    H268129   6.983   5.985   2.977 -0.0166 -0.1945  0.3314
15572TIP3   OH268130   4.774   4.345   1.228 -0.3699 -0.0397 -0.3675
15572TIP3    H168131   4.862   4.324   1.256  0.0444  1.4965 -0.4497
15572TIP3    H268132   4.744   4.268   1.180  0.6000 -0.8924  0.3947
15573TIP3   OH268133   3.274   4.257   0.722 -0.3250  0.5357  0.4744
15573TIP3    H168134   3.341   4.279   0.656  0.5351  0.8673  1.4409
15573TIP3    H268135   3.205   4.214   0.672  1.0888 -0.7674 -0.3904
15574TIP3   OH268136   4.915   4.202   2.225 -0.5438 -0.7805  0.1275
15574TIP3    H168137   4.856   4.216   2.299 -1.7822 -1.7376 -0.6557
15574TIP3    H268138   4.875   4.251   2.153 -0.3356 -1.3772 -0.3938
15575TIP3   OH268139   4.763   6.761   2.360 -0.0716 -0.5683  0.3191
15575TIP3    H168140   4.701   6.823   2.399  1.6039  0.6444  1.1061
15575TIP3    H268141   4.845   6.809   2.356  1.0767 -2.4968  0.2363
15576TIP3   OH268142   2.826   2.677  15.364 -0.2213 -0.5383  0.1255
15576TIP3    H168143   2.899   2.739  15.356 -1.0925  0.3724 -0.9796
15576TIP3    H268144   2.764   2.720  15.422 -0.6400 -0.5623 -0.3028
15577TIP3   OH268145   2.523   5.807   1.291 -0.0219 -0.3416  0.3804
15577TIP3    H168146   2.463   5.806   1.365  0.2989 -0.4054  0.6390
15577TIP3    H268147   2.514   5.895   1.254  0.5011 -0.0035  1.0499
15578TIP3   OH268148   0.282   4.312   2.079 -0.0224  0.0412 -0.3873
15578TIP3    H168149   0.204   4.357   2.046  0.2581 -1.0379 -2.6367
15578TIP3    H268150   0.350   4.330   2.013  1.0810 -0.6627  0.5307
15579TIP3   OH268151   0.288   1.621   0.107 -0.2727 -1.1025  0.0002
15579TIP3    H168152   0.326   1.607   0.020 -0.1471 -2.1653  0.2208
15579TIP3    H268153   0.235   1.543   0.123 -3.3002  0.7284 -0.6773
15580TIP3   OH268154   2.121   1.556  15.130 -0.1526 -0.7692  0.2478
15580TIP3    H168155   2.104   1.514  15.214 -0.9098 -0.9152  0.0273
15580TIP3    H268156   2.096   1.647  15.143  0.8431 -0.5258  0.5227
15581TIP3   OH268157   4.034   3.622   2.564 -0.0714 -0.1934 -0.0707
15581TIP3    H168158   3.944   3.641   2.539 -0.2849 -0.3262  0.5927
15581TIP3    H268159   4.069   3.705   2.596  0.0848 -0.1079 -0.4682
15582TIP3   OH268160   1.048   4.643  13.837 -0.0734 -0.1802 -0.0631
15582TIP3    H168161   1.017   4.723  13.879 -1.6051 -1.2036  0.7936
15582TIP3    H268162   0.990   4.631  13.762  1.3875  0.5423 -1.3517
15583TIP3   OH268163   1.554   4.716   4.684  0.5665  0.3054  0.7624
15583TIP3    H168164   1.624   4.738   4.623 -1.4309 -0.5385 -1.9341
15583TIP3    H268165   1.531   4.799   4.726  0.4496  1.3558 -1.3243
15584TIP3   OH268166   1.285   0.171   2.682 -0.2086 -0.0644  0.3263
15584TIP3    H168167   1.190   0.174   2.694 -0.0921  2.0094  0.9118
15584TIP3    H268168   1.302   0.085   2.645 -2.4236 -0.1207 -0.6204
15585TIP3   OH268169   0.980   0.900   1.355 -0.0269  0.2505  0.4966
15585TIP3    H168170   1.045   0.830   1.367 -0.7291 -0.4262  0.3485
15585TIP3    H268171   0.972   0.909   1.260 -2.4708 -1.8494  0.4512
15586TIP3   OH268172   2.489   3.025   3.001 -0.1467  0.2318 -0.1323
15586TIP3    H168173   2.417   2.962   2.995 -1.1957  1.3846  0.3067
15586TIP3    H268174   2.551   2.996   2.934  0.8807 -3.1550  2.1571
15587TIP3   OH268175   2.210   2.194   0.186  0.3542  0.0567 -0.9776
15587TIP3    H168176   2.297   2.153   0.189  0.0856 -0.7566 -3.1992
15587TIP3    H268177   2.166   2.161   0.264  1.3122 -1.2168 -0.9463
15588TIP3   OH268178   5.166   5.103   3.133  0.4347  0.0417 -0.1470
15588TIP3    H168179   5.153   5.153   3.213  1.3083  0.0073  0.0189
15588TIP3    H268180   5.260   5.081   3.133 -0.1177 -2.5906  0.3929
15589TIP3   OH268181   4.494   4.645   3.865 -0.5162 -0.3792  0.3430
15589TIP3    H168182   4.418   4.678   3.816  1.6463  1.5714 -1.8510
15589TIP3    H268183   4.494   4.696   3.946 -2.6139 -1.7467  1.2396
15590TIP3   OH268184   6.624   0.453   4.044  0.4254  0.1770 -0.3930
15590TIP3    H168185   6.558   0.481   3.980  0.5888 -1.7455 -1.4551
15590TIP3    H268186   6.640   0.361   4.023 -0.9453 -1.1160  3.6867
15591TIP3   OH268187   4.266   6.970   4.466  0.1347  0.0638  0.6144
15591TIP3    H168188   4.204   7.024   4.516  0.1509 -0.0190  0.7245
15591TIP3    H268189   4.331   7.033   4.434 -0.2821  0.2175  0.0768
15592TIP3   OH268190   6.572   2.991   1.171  0.7703 -0.3306 -0.1965
15592TIP3    H168191   6.543   2.900   1.173  0.1726 -0.2119 -2.0957
15592TIP3    H268192   6.492   3.042   1.160  1.1975  0.3611 -0.1605
15593TIP3   OH268193   5.148   7.047   3.332  0.3398 -0.3002 -0.2304
15593TIP3    H168194   5.113   6.996   3.259  0.1347 -0.9179  0.2988
15593TIP3    H268195   5.242   7.035   3.327  0.2397 -1.3592  0.3523
15594TIP3   OH268196   1.920   0.080  14.536  0.6347  0.6569  0.7208
15594TIP3    H168197   1.888   0.095  14.447 -0.5948  1.0673  1.2195
15594TIP3    H268198   2.007   0.042  14.524 -0.7674 -2.2730 -0.7001
15595TIP3   OH268199   0.921   5.957   1.524  0.3988 -0.1765 -0.7015
15595TIP3    H168200   0.941   5.897   1.452  0.7767 -0.7533 -0.1294
15595TIP3    H268201   0.867   6.025   1.485 -1.2864 -1.6971 -1.0641
15596TIP3   OH268202   5.235   4.388   4.371 -0.4157  0.6012  0.8468
15596TIP3    H168203   5.311   4.402   4.427 -0.9335  0.1516  1.6795
15596TIP3    H268204   5.251   4.303   4.329  0.3026  1.2617 -0.2382
15597TIP3   OH268205   4.057   0.673   3.257 -0.3936 -0.8323  0.2921
15597TIP3    H168206   4.072   0.708   3.170  1.6901  0.4139  1.1069
15597TIP3    H268207   4.105   0.590   3.258  0.4941 -0.3262  0.5750
15598TIP3   OH268208   4.834   0.199   3.527  0.1060 -0.2092  0.1025
15598TIP3    H168209   4.826   0.190   3.622  1.6271 -0.1155  0.2570
15598TIP3    H268210   4.866   0.114   3.497  1.0836  0.2291 -0.1306
15599TIP3   OH268211   4.397   3.738  15.523 -0.3625  0.3433 -0.3175
15599TIP3    H168212   4.469   3.704  15.576 -0.9978  1.2184  1.1188
15599TIP3    H268213   4.438   3.765  15.441  0.5163 -1.7187 -0.5959
15600TIP3   OH268214   4.819   6.429   5.002 -0.3994 -0.1735 -0.7196
15600TIP3    H168215   4.775   6.502   4.957  0.8161 -0.1220 -1.8624
15600TIP3    H268216   4.855   6.468   5.081 -1.5613 -0.0007 -0.2697
15601TIP3   OH268217   2.679   6.954   1.207 -0.1026 -0.1194  0.0337
15601TIP3    H168218   2.742   6.935   1.277 -0.9109 -2.1427  0.2290
15601TIP3    H268219   2.732   6.995   1.138  1.0587  0.0477  1.0106
15602TIP3   OH268220   5.028   3.421   4.202  0.6740  0.3928 -0.4167
15602TIP3    H168221   5.061   3.489   4.261 -1.8283  0.5809  0.8288
15602TIP3    H268222   5.098   3.356   4.199  0.3744 -0.2761  3.8684
15603TIP3   OH268223   2.547   0.828   1.674 -0.2982  0.0428 -0.0408
15603TIP3    H168224   2.579   0.749   1.631  3.8865  1.1877  0.7855
15603TIP3    H268225   2.565   0.898   1.612  1.2741  1.0519  1.5115
15604TIP3   OH268226   5.275   5.898   5.722  0.2959 -0.2169 -0.6773
15604TIP3    H168227   5.193   5.853   5.741  0.2542  0.3772  0.6445
15604TIP3    H268228   5.259   5.989   5.748  1.3840 -0.1059 -0.3589
15605TIP3   OH268229   5.768   1.271   5.303 -0.4481 -0.2742 -0.4973
15605TIP3    H168230   5.862   1.269   5.285  0.4995  1.2884  3.7544
15605TIP3    H268231   5.751   1.191   5.352 -1.3150 -0.3739 -0.9381
15606TIP3   OH268232   3.250   3.220   3.348 -0.1798  0.0768 -0.0703
15606TIP3    H168233   3.157   3.242   3.343  0.0900  1.0334 -1.0471
15606TIP3    H268234   3.254   3.126   3.329 -0.9395  0.0448 -0.0634
15607TIP3   OH268235   3.563   0.419   3.208  0.1961 -0.6739  0.0171
15607TIP3    H168236   3.576   0.327   3.188  2.8266 -0.5607  0.9934
15607TIP3    H268237   3.639   0.443   3.261 -0.5704  1.9967 -0.0143
15608TIP3   OH268238   6.246   4.945   1.781 -0.6730  0.6438 -0.0016
15608TIP3    H168239   6.266   5.005   1.709 -0.3938  1.8834  1.0927
15608TIP3    H268240   6.150   4.944   1.785 -0.6954  0.4204 -0.5045
15609TIP3   OH268241   6.839   3.138   1.982  0.4025 -0.0880 -0.6120
15609TIP3    H168242   6.927   3.138   2.020  1.2086 -1.1887 -2.4448
15609TIP3    H268243   6.848   3.187   1.900 -0.3372 -1.5780 -1.5986
15610TIP3   OH268244   2.012   2.968   5.373  0.5011  0.0726  0.7342
15610TIP3    H168245   2.018   2.924   5.458 -0.8997  0.2320  0.9223
15610TIP3    H268246   1.965   3.049   5.392 -0.1349 -0.0655 -0.2592
15611TIP3   OH268247   5.002   0.434   4.648 -0.2912  0.0697  0.3226
15611TIP3    H168248   5.012   0.350   4.693 -2.9614  0.3304  1.5202
15611TIP3    H268249   5.049   0.496   4.704 -0.6048 -0.1906  0.8862
15612TIP3   OH268250   6.361   4.371   3.142  0.8701  0.5875 -0.1237
15612TIP3    H168251   6.267   4.366   3.124  0.7988  1.4142 -0.0453
15612TIP3    H268252   6.387   4.282   3.164 -0.0174  0.4616  0.4330
15613TIP3   OH268253   5.349   1.474   3.117 -0.0798 -0.1286 -0.2574
15613TIP3    H168254   5.331   1.434   3.032  2.8909  1.4257 -1.7069
15613TIP3    H268255   5.444   1.467   3.127 -0.4495 -1.1000  3.3930
15614TIP3   OH268256   3.574   1.205   2.977 -0.0756 -0.1200  0.2913
15614TIP3    H168257   3.547   1.167   3.060 -3.5729  2.4947  0.4803
15614TIP3    H268258   3.562   1.134   2.913  1.4257 -1.7534  1.7715
15615TIP3   OH268259   6.316   4.757   4.157 -0.6629  0.4079 -0.4196
15615TIP3    H168260   6.365   4.819   4.104  0.6493 -1.1505 -1.0461
15615TIP3    H268261   6.277   4.696   4.095  0.6898 -1.2890  0.3559
15616TIP3   OH268262   1.462   6.377  14.847 -0.7818  0.3490 -0.6341
15616TIP3    H168263   1.430   6.331  14.769 -1.2179 -0.4930  0.0200
15616TIP3    H268264   1.393   6.363  14.912  0.9234 -1.5444  0.8395
15617TIP3   OH268265   0.980   5.755  14.645  0.1645 -0.1682  0.1246
15617TIP3    H168266   0.928   5.832  14.623 -3.3488 -1.2948  3.8307
15617TIP3    H268267   1.048   5.788  14.703  0.4152  0.5440 -0.5628
15618TIP3   OH268268   3.295   5.552  14.673  0.1726 -0.3054 -1.1090
15618TIP3    H168269   3.304   5.505  14.756 -1.3962  1.3695  0.0263
15618TIP3    H268270   3.356   5.625  14.680  0.2193 -0.2996 -1.5484
15619TIP3   OH268271   3.020   0.307  14.906  0.4005 -0.0687 -0.0436
15619TIP3    H168272   3.034   0.233  14.964  1.5211  0.6903  0.6859
15619TIP3    H268273   3.039   0.273  14.818 -0.3112 -0.9571  0.1478
15620TIP3   OH268274   6.110   5.132   4.892 -0.2379  0.4247 -0.0061
15620TIP3    H168275   6.069   5.050   4.922  1.1942  0.6193  2.6312
15620TIP3    H268276   6.092   5.135   4.798 -0.7770 -2.6635 -0.0483
15621TIP3   OH268277   1.363   6.639   0.528 -0.4007 -0.4681 -0.6237
15621TIP3    H168278   1.289   6.624   0.470  0.2653 -0.3578 -1.5198
15621TIP3    H268279   1.379   6.733   0.523  0.0628 -0.5493 -0.7874
15622TIP3   OH268280   3.365   5.422   2.482 -0.1854 -0.5785  0.4016
15622TIP3    H168281   3.348   5.387   2.570 -0.6594 -1.6303 -0.1050
15622TIP3    H268282   3.286   5.470   2.459  0.3088  0.5196  0.9302
15623TIP3   OH268283   1.999   2.782   3.142 -0.3793 -0.1702  0.2190
15623TIP3    H168284   1.952   2.866   3.144 -0.3230 -0.1659  1.1544
15623TIP3    H268285   1.962   2.732   3.214 -1.0640 -1.3039 -0.8933
15624TIP3   OH268286   5.628   6.685   3.468 -0.5190 -0.0817  0.1887
15624TIP3    H168287   5.612   6.694   3.374 -2.3131  2.9611  0.7006
15624TIP3    H268288   5.661   6.771   3.495  1.2656 -1.3285  2.1287
15625TIP3   OH268289   3.453   0.216   0.786 -0.2129  0.2591 -0.2481
15625TIP3    H168290   3.460   0.122   0.803 -0.3127  0.7179  2.5430
15625TIP3    H268291   3.535   0.253   0.818 -0.9746  1.3563  0.4903
15626TIP3   OH268292   2.227   3.388   3.490 -0.1427  0.0720  0.0593
15626TIP3    H168293   2.297   3.356   3.434  0.2260  1.4585 -0.3045
15626TIP3    H268294   2.267   3.460   3.539 -1.3517  0.9898 -0.2770
15627TIP3   OH268295   1.446   4.146   1.281  0.1027  0.3537 -0.1628
15627TIP3    H168296   1.467   4.229   1.237 -0.4027  0.6160  0.0865
15627TIP3    H268297   1.374   4.168   1.340  0.1645 -0.2025  0.1178
15628TIP3   OH268298   3.341   0.918   2.809 -0.2465 -0.0400  0.1036
15628TIP3    H168299   3.400   0.874   2.748  0.7409  0.1084  0.9332
15628TIP3    H268300   3.331   0.857   2.881 -0.1455  0.4398  0.5262
15629TIP3   OH268301   6.046   4.720   1.035 -0.0020 -0.3870  0.3002
15629TIP3    H168302   5.967   4.670   1.054 -0.3440  0.3258  0.7994
15629TIP3    H268303   6.102   4.660   0.986 -1.5285 -0.3813 -1.5289
15630TIP3   OH268304   2.613   6.019   4.613  0.2652 -0.1141 -0.5858
15630TIP3    H168305   2.545   6.063   4.562  0.7016 -0.4083 -1.4339
15630TIP3    H268306   2.669   5.976   4.547  0.8970 -0.4085  0.1314
15631TIP3   OH268307   1.817   4.842   2.898 -0.3180  0.4257 -0.0316
15631TIP3    H168308   1.911   4.857   2.883 -0.6090 -0.0224 -2.6178
15631TIP3    H268309   1.802   4.869   2.989  2.0829  1.5965  0.0576
15632TIP3   OH268310   4.653   3.916   5.377 -0.5294  0.3722 -0.0752
15632TIP3    H168311   4.678   3.838   5.328 -0.4876  0.9613 -1.0092
15632TIP3    H268312   4.574   3.891   5.425 -0.0323 -0.4929  0.3028
15633TIP3   OH268313   2.710   5.110   3.843 -0.3155 -0.3386 -0.4981
15633TIP3    H168314   2.722   5.175   3.773  0.2894 -0.8389 -0.8600
15633TIP3    H268315   2.617   5.116   3.865  0.0393  1.7621  0.5764
15634TIP3   OH268316   0.632   6.270   0.344 -0.2351  0.2135  0.3339
15634TIP3    H168317   0.724   6.289   0.362 -0.1346  0.7810 -0.6882
15634TIP3    H268318   0.599   6.227   0.423  1.0018 -0.3117  0.5606
15635TIP3   OH268319   2.286   4.015   4.827  0.0138 -0.4687  0.0207
15635TIP3    H168320   2.220   3.946   4.831  1.3552 -1.8698 -0.9652
15635TIP3    H268321   2.313   4.029   4.918 -0.1822 -1.3468  0.2177
15636TIP3   OH268322   6.677   6.089   3.581  0.3793  0.2041  0.3236
15636TIP3    H168323   6.584   6.082   3.604 -0.6218  0.5629 -3.2678
15636TIP3    H268324   6.703   6.176   3.609 -0.6743  0.5028  0.3847
15637TIP3   OH268325   5.905   2.392   0.247 -0.0189 -0.2945 -0.2176
15637TIP3    H168326   5.964   2.454   0.204  1.1812  0.3341  2.2536
15637TIP3    H268327   5.822   2.438   0.255  0.2770  0.2510 -0.2641
15638TIP3   OH268328   3.805   6.577  14.238  0.4660 -0.3418 -0.4253
15638TIP3    H168329   3.870   6.646  14.252 -3.9876  3.3143  3.7748
15638TIP3    H268330   3.807   6.526  14.319 -1.1733 -0.7462 -0.6200
15639TIP3   OH268331   2.703   3.950   4.632 -0.3926  0.0046 -0.6333
15639TIP3    H168332   2.634   4.003   4.672 -1.2620  0.2784 -2.4324
15639TIP3    H268333   2.776   4.010   4.620 -0.0899 -0.1089  0.6333
15640TIP3   OH268334   4.627   1.435   0.829  0.2839  0.1394 -0.2485
15640TIP3    H168335   4.693   1.370   0.856 -0.1263 -0.7195 -1.3036
15640TIP3    H268336   4.587   1.464   0.911  3.1050  1.9153  0.5972
15641TIP3   OH268337   6.804   2.519   4.888 -0.1117 -0.2861  0.1295
15641TIP3    H168338   6.760   2.562   4.961 -1.0376 -0.7105 -0.1745
15641TIP3    H268339   6.897   2.523   4.911 -0.3910 -0.3853  1.3156
15642TIP3   OH268340   1.232   2.531   0.524 -0.2043 -0.5407  0.2756
15642TIP3    H168341   1.259   2.623   0.529 -2.8473  0.4285 -1.6580
15642TIP3    H268342   1.308   2.482   0.554  1.8573  2.2088 -0.2040
15643TIP3   OH268343   5.813   0.896   0.866 -0.2205 -0.1129  0.1525
15643TIP3    H168344   5.900   0.918   0.901  0.0841 -1.6260  0.3842
15643TIP3    H268345   5.822   0.806   0.836 -1.4866  0.0092 -0.6105
15644TIP3   OH268346   4.014   2.165   5.072  0.3612  0.1659 -0.2353
15644TIP3    H168347   3.961   2.241   5.093 -2.1557 -0.8775 -2.4986
15644TIP3    H268348   4.022   2.117   5.154  0.8370  2.1359  0.9048
15645TIP3   OH268349   6.560   7.054   5.044 -0.4683 -0.1104  0.2327
15645TIP3    H168350   6.506   7.084   5.117 -0.6855  0.9307 -0.3350
15645TIP3    H268351   6.531   7.108   4.970  0.2174 -0.6812 -0.4551
15646TIP3   OH268352   5.298   4.039   3.245  0.5944  0.5608 -0.1018
15646TIP3    H168353   5.369   4.062   3.306  0.9908  1.0211 -0.7305
15646TIP3    H268354   5.243   3.977   3.294  1.4964  0.1057  0.3446
15647TIP3   OH268355   0.994   6.067   2.204 -0.1192  0.5842 -0.3620
15647TIP3    H168356   1.031   5.980   2.218  1.8792  1.1235 -1.9929
15647TIP3    H268357   0.923   6.053   2.141  0.3311  0.1745 -0.7808
15648TIP3   OH268358   1.637   3.052   2.327 -0.0501 -0.1178 -0.3353
15648TIP3    H168359   1.632   3.040   2.422  0.0388 -0.2665 -0.3491
15648TIP3    H268360   1.679   3.138   2.316 -1.2706  0.5033 -0.2298
15649TIP3   OH268361   5.604   4.771  14.296  0.0479 -0.1055 -0.3622
15649TIP3    H168362   5.658   4.757  14.218  0.0944 -3.6685  0.2107
15649TIP3    H268363   5.539   4.836  14.269  2.1982  1.3082 -2.2716
15650TIP3   OH268364   4.703   2.716   5.025 -0.2616 -0.1785 -0.3741
15650TIP3    H168365   4.701   2.795   5.078  1.0591 -0.0746 -0.4685
15650TIP3    H268366   4.655   2.651   5.076  1.6920 -0.3096  1.3125
15651TIP3   OH268367   2.246   0.989   3.596  0.3227  0.4450 -0.0486
15651TIP3    H168368   2.182   1.040   3.646 -1.6408 -2.8156  0.9211
15651TIP3    H268369   2.195   0.954   3.523  1.4965 -0.5977 -0.3641
15652TIP3   OH268370   0.333   4.947   0.566 -0.2752  0.0108  0.0320
15652TIP3    H168371   0.376   4.863   0.550 -2.4342 -0.7011 -2.2716
15652TIP3    H268372   0.248   4.923   0.602 -0.3013  1.2739  0.8226
15653TIP3   OH268373   1.539   6.986   1.488  0.3222 -0.0821 -0.3723
15653TIP3    H168374   1.525   7.034   1.407  1.1490  0.3791 -0.2478
15653TIP3    H268375   1.626   6.947   1.477 -0.3244 -1.5558 -0.4753
15654TIP3   OH268376   1.516   3.573   2.395  0.8105  0.2918 -0.4769
15654TIP3    H168377   1.425   3.554   2.418  0.7780  0.3397 -0.5681
15654TIP3    H268378   1.545   3.633   2.463  0.6538  0.5893 -0.6697
15655TIP3   OH268379   3.933   4.466   3.397 -0.4787  0.1098  0.0632
15655TIP3    H168380   3.877   4.532   3.356 -0.3669  0.1367 -0.0471
15655TIP3    H268381   3.974   4.511   3.471  0.7883  0.6160 -0.9248
15656TIP3   OH268382   0.928   2.636   1.196  0.3123  0.0957 -0.2060
15656TIP3    H168383   0.937   2.671   1.107 -0.4267 -1.5823 -0.9623
15656TIP3    H268384   1.016   2.605   1.218  0.2068 -0.7095 -0.8885
15657TIP3   OH268385   7.042   3.571   1.918  0.2682  0.3274 -0.4380
15657TIP3    H168386   6.986   3.576   1.995 -0.3156  2.7157 -0.9771
15657TIP3    H268387   7.131   3.580   1.951  0.2860 -2.2470  0.2954
15658TIP3   OH268388   2.115   3.175   1.472  0.7283 -0.0474 -0.4531
15658TIP3    H168389   2.114   3.080   1.483 -0.3516  0.0665  0.4496
15658TIP3    H268390   2.064   3.209   1.546  3.2507  1.3853  0.7049
15659TIP3   OH268391   2.343   0.341   5.027  0.1913  0.0590  0.4352
15659TIP3    H168392   2.352   0.436   5.024  1.5222 -0.0779 -0.8026
15659TIP3    H268393   2.303   0.323   5.112 -1.5609  1.8268  0.0076
15660TIP3   OH268394   1.722   5.640   4.139 -0.1211  0.4186 -0.3146
15660TIP3    H168395   1.761   5.554   4.154 -0.4261  0.4466  0.6751
15660TIP3    H268396   1.629   5.628   4.161 -0.4306  0.6582 -1.4728
15661TIP3   OH268397   2.961   6.012   1.745  0.6555 -0.2993  0.3334
15661TIP3    H168398   3.042   6.016   1.694  0.1478 -1.3677 -0.5809
15661TIP3    H268399   2.988   5.980   1.831  1.6461  2.3575  1.0534
15662TIP3   OH268400   3.622   6.003   1.647 -0.1915 -0.1891  0.1426
15662TIP3    H168401   3.531   6.029   1.662 -0.3873  1.7326 -3.7408
15662TIP3    H268402   3.618   5.946   1.570  2.0388  1.3861 -1.1936
15663TIP3   OH268403   3.259   3.255   4.723 -0.0382 -0.2754 -0.2451
15663TIP3    H168404   3.253   3.169   4.765 -2.8732 -1.0723 -2.1466
15663TIP3    H268405   3.209   3.313   4.780 -1.0358 -0.6409 -0.7358
15664TIP3   OH268406   0.964   5.333   0.463 -0.1228 -0.2886 -0.1172
15664TIP3    H168407   0.944   5.288   0.545 -2.5739  2.4226  0.8587
15664TIP3    H268408   1.010   5.412   0.489  0.1435  0.0138 -1.4524
15665TIP3   OH268409   6.296   2.485   1.388  0.1290  0.6028 -0.1004
15665TIP3    H168410   6.263   2.563   1.344  1.5597  1.4114  0.2477
15665TIP3    H268411   6.383   2.471   1.351 -0.2873 -1.1026 -0.4995
15666TIP3   OH268412   5.638   6.842   2.068  0.4562  0.0102 -0.7474
15666TIP3    H168413   5.719   6.845   2.016  1.5669  1.5633  1.0137
15666TIP3    H268414   5.612   6.750   2.066  2.3194 -0.5249 -1.2973
15667TIP3   OH268415   0.595   4.151   5.623  0.1313  0.7286 -0.3137
15667TIP3    H168416   0.685   4.124   5.642 -0.8032 -0.8928  2.0791
15667TIP3    H268417   0.541   4.091   5.673 -2.2890  2.1996 -1.0627
15668TIP3   OH268418   2.048   4.525   5.297 -0.3638  0.6121  0.6521
15668TIP3    H168419   1.990   4.599   5.279  0.4924  1.1952  0.2744
15668TIP3    H268420   2.006   4.451   5.253 -0.1112  1.3146 -0.8130
15669TIP3   OH268421   5.580   6.594  15.368 -0.0332 -0.1573 -0.3478
15669TIP3    H168422   5.674   6.597  15.384  0.0865 -2.0539 -0.6173
15669TIP3    H268423   5.559   6.501  15.359 -1.7328  0.2908 -1.4841
15670TIP3   OH268424   6.652   4.867   3.951  0.0756 -0.0704 -0.4389
15670TIP3    H168425   6.672   4.919   4.029  0.8741 -0.0145 -0.6769
15670TIP3    H268426   6.612   4.930   3.890 -0.5389 -0.1124 -0.0814
15671TIP3   OH268427   2.691   1.196   3.224 -0.0365  0.1811 -0.0026
15671TIP3    H168428   2.756   1.128   3.209 -2.8873 -2.9577  1.0839
15671TIP3    H268429   2.619   1.173   3.166 -1.5039  1.5995  1.2190
15672TIP3   OH268430   1.356   2.734   3.960 -0.4514  0.2839 -0.2055
15672TIP3    H168431   1.315   2.652   3.988  1.9545 -1.0844 -0.5332
15672TIP3    H268432   1.348   2.733   3.865 -2.2839  1.4776 -0.0843
15673TIP3   OH268433   1.827   3.137   1.868 -0.5352 -0.4556 -0.0614
15673TIP3    H168434   1.771   3.214   1.859 -0.0780 -0.0789  0.2978
15673TIP3    H268435   1.767   3.063   1.863 -1.1353 -0.0400  0.7896
15674TIP3   OH268436   4.529   4.482   5.055  0.0833 -0.2331  0.5302
15674TIP3    H168437   4.487   4.397   5.042 -0.8147  0.8256 -5.0519
15674TIP3    H268438   4.620   4.468   5.029  0.3518  0.1446  1.2549
15675TIP3   OH268439   1.705   2.363   2.188 -0.3196 -0.4046  0.0861
15675TIP3    H168440   1.705   2.307   2.110 -1.3580  0.8887 -0.8813
15675TIP3    H268441   1.615   2.358   2.221 -0.7343  1.5484 -0.6738
15676TIP3   OH268442   2.466   0.758   4.681  0.0123  0.0086  0.2966
15676TIP3    H168443   2.460   0.770   4.587  2.2731  0.6400  0.2061
15676TIP3    H268444   2.391   0.807   4.717 -0.9839 -0.4313 -1.1640
15677TIP3   OH268445   2.761   1.600   1.166  0.1706  0.5213  0.2145
15677TIP3    H168446   2.850   1.634   1.162  1.1528 -1.8440  1.1657
15677TIP3    H268447   2.755   1.540   1.092 -0.3101 -0.0544  0.7172
15678TIP3   OH268448   5.835   1.808   3.240  0.5854 -0.0623  0.2227
15678TIP3    H168449   5.839   1.822   3.335 -1.9003 -0.6285  0.4492
15678TIP3    H268450   5.761   1.749   3.228 -0.6308  1.8715 -2.2651
15679TIP3   OH268451   3.271   5.511   2.171 -0.1454 -0.6846 -0.6753
15679TIP3    H168452   3.179   5.487   2.182 -1.0065  1.4375 -2.8614
15679TIP3    H268453   3.319   5.433   2.199 -2.6585 -2.7544 -1.8602
15680TIP3   OH268454   5.222   4.719   4.001  0.2263  0.2429 -0.6954
15680TIP3    H168455   5.201   4.812   4.004 -1.0685  0.0180 -2.0397
15680TIP3    H268456   5.314   4.715   3.974 -0.1663  1.0876 -2.1580
15681TIP3   OH268457   3.500   0.537   1.044 -0.3788  0.7668  0.4078
15681TIP3    H168458   3.449   0.615   1.068 -0.9097  1.0927 -1.6497
15681TIP3    H268459   3.466   0.512   0.958  0.8605 -0.8315  0.3602
15682TIP3   OH268460   4.358   3.596   3.851  0.5886  0.0766  0.0896
15682TIP3    H168461   4.371   3.504   3.871 -0.8202  0.1263  1.3384
15682TIP3    H268462   4.390   3.643   3.928  0.4133  0.5777 -0.1369
15683TIP3   OH268463   4.679   2.667   4.758  0.2630  0.1605  0.3284
15683TIP3    H168464   4.601   2.615   4.779  0.1452  0.6233  1.0617
15683TIP3    H268465   4.696   2.717   4.838  1.7492 -0.4876  0.4412
15684TIP3   OH268466   5.163   6.998   1.774 -0.2998  0.4656 -0.3930
15684TIP3    H168467   5.115   7.079   1.760  0.6163  1.0021 -0.4577
15684TIP3    H268468   5.221   6.990   1.699  0.7862  0.5984  0.4134
15685TIP3   OH268469   2.444   4.080   0.677  0.5295  0.7375 -0.1661
15685TIP3    H168470   2.520   4.021   0.678 -1.9401 -2.6471 -1.0039
15685TIP3    H268471   2.413   4.080   0.767 -0.6086 -0.9245 -0.5213
15686TIP3   OH268472   0.378   5.803   0.845  0.3861  0.9224  0.2822
15686TIP3    H168473   0.361   5.873   0.782  1.2037  0.6534 -0.2332
15686TIP3    H268474   0.294   5.757   0.853  0.3411  0.8310 -0.7434
15687TIP3   OH268475   3.297   1.616   3.065  0.4240  0.6603  0.4522
15687TIP3    H168476   3.278   1.536   3.017  0.7949  1.5874 -1.2934
15687TIP3    H268477   3.241   1.682   3.023  0.9720  1.5435  1.1065
15688TIP3   OH268478   5.118   2.583   2.342  0.2310 -0.0777  0.5895
15688TIP3    H168479   5.136   2.620   2.429  0.7178 -1.5548  1.1344
15688TIP3    H268480   5.171   2.635   2.282 -1.0016  1.7208  1.0115
15689TIP3   OH268481   0.739   3.790   1.628 -0.1537 -0.3227  0.3487
15689TIP3    H168482   0.784   3.707   1.614 -0.4842 -0.3168 -0.7562
15689TIP3    H268483   0.744   3.835   1.544  0.7379  1.1286  1.1602
15690TIP3   OH268484   3.851   1.654   4.208  0.4214 -0.2713 -0.8937
15690TIP3    H168485   3.796   1.614   4.141 -0.6404  0.2813 -0.3771
15690TIP3    H268486   3.871   1.741   4.174 -0.8541  0.3469 -0.1400
15691TIP3   OH268487   0.720   6.535   5.770  0.6826  0.0206 -0.3238
15691TIP3    H168488   0.770   6.492   5.839 -1.0768  0.7251  1.4236
15691TIP3    H268489   0.764   6.620   5.759  2.3373 -0.9754 -1.7014
15692TIP3   OH268490   2.809   0.266   2.735  0.1453 -0.5186  0.0610
15692TIP3    H168491   2.838   0.343   2.785 -1.2350 -0.4262  0.7372
15692TIP3    H268492   2.758   0.303   2.663 -2.4488 -0.8262  1.6374
15693TIP3   OH268493   5.361   0.652   2.672  0.6130 -0.1717  0.3144
15693TIP3    H168494   5.354   0.563   2.639 -0.1377 -0.0541  0.1354
15693TIP3    H268495   5.293   0.700   2.625 -1.6396 -0.3621  3.2797
15694TIP3   OH268496   3.762   3.857   1.704  0.1199  0.2880  0.5788
15694TIP3    H168497   3.741   3.777   1.753  0.1395 -0.1762 -0.1693
15694TIP3    H268498   3.677   3.890   1.675  0.2931 -0.9136 -1.3822
15695TIP3   OH268499   6.249   2.069   0.065 -0.1733  0.4421 -0.4863
15695TIP3    H168500   6.257   1.980   0.030 -0.6306 -0.3471  1.3751
15695TIP3    H268501   6.163   2.099   0.034 -0.4200 -0.1136 -0.3476
15696TIP3   OH268502   3.138   7.042   5.404  0.1448 -0.3312 -0.0729
15696TIP3    H168503   3.216   6.987   5.399 -0.2016 -0.6574 -2.3910
15696TIP3    H268504   3.165   7.127   5.370 -1.1455 -1.2454 -3.6110
15697TIP3   OH268505   2.814   1.685   1.784  0.1510  0.0812  0.1493
15697TIP3    H168506   2.759   1.719   1.855  0.2585 -1.2675  0.9141
15697TIP3    H268507   2.754   1.674   1.710 -0.0585  1.0947  0.1704
15698TIP3   OH268508   0.588   2.703   2.253  0.0728  0.3076 -0.3236
15698TIP3    H168509   0.555   2.652   2.326  0.1736  0.7666  0.0398
15698TIP3    H268510   0.594   2.793   2.286 -0.8655  0.7011 -1.2026
15699TIP3   OH268511   3.238   3.796   2.045 -0.1605  0.1402  0.7605
15699TIP3    H168512   3.162   3.847   2.016  0.2674  0.3143 -0.1057
15699TIP3    H268513   3.201   3.723   2.095 -0.7891  1.2283  1.9008
15700TIP3   OH268514   3.076   6.629  15.087 -0.0012 -0.1760  0.0857
15700TIP3    H168515   3.143   6.645  15.153  0.1325  0.9350 -0.3105
15700TIP3    H268516   3.121   6.642  15.004 -0.2281 -1.3358 -0.2212
15701TIP3   OH268517   4.872   2.607   0.996 -0.7288  0.3562  0.3416
15701TIP3    H168518   4.929   2.566   1.061 -0.1505  0.7125  0.0571
15701TIP3    H268519   4.792   2.628   1.046  0.1198  1.5989  1.2028
15702TIP3   OH268520   3.102   3.713   3.563  0.1734 -0.2838  0.3582
15702TIP3    H168521   3.115   3.790   3.508 -2.9254 -0.7428 -1.0683
15702TIP3    H268522   3.021   3.730   3.610  0.1625 -2.1010  1.0383
15703TIP3   OH268523   2.393   4.512   2.941  0.4630  0.0170  0.0949
15703TIP3    H168524   2.354   4.496   3.027 -0.0830  0.1945 -0.1214
15703TIP3    H268525   2.458   4.581   2.957 -0.6540  1.0850  0.0948
15704TIP3   OH268526   3.315   0.541   3.856  0.2353 -0.2603  0.2675
15704TIP3    H168527   3.339   0.486   3.931  0.0258 -0.2186  0.3635
15704TIP3    H268528   3.382   0.610   3.855 -0.4991  0.4789  1.1908
15705TIP3   OH268529   3.574   2.431  14.784  0.8242 -0.4238  0.0343
15705TIP3    H168530   3.515   2.401  14.853  0.8176 -1.1548 -0.2782
15705TIP3    H268531   3.603   2.350  14.741  1.8171 -0.0497 -0.0079
15706TIP3   OH268532   4.458   3.756   1.364  0.2241 -0.0673  0.8409
15706TIP3    H168533   4.496   3.793   1.284  1.4287 -0.7744  1.0654
15706TIP3    H268534   4.378   3.713   1.335 -0.3338  1.3273  0.3261
15707TIP3   OH268535   1.075   5.617   3.534  0.1926 -0.0324  0.3134
15707TIP3    H168536   1.152   5.648   3.487  0.9525 -0.6940  1.1038
15707TIP3    H268537   1.086   5.651   3.623 -0.5111  0.0090  0.3868
15708TIP3   OH268538   2.561   4.269   2.366 -0.7261 -0.4106 -0.1269
15708TIP3    H168539   2.587   4.180   2.341  0.8570  0.5236 -1.9289
15708TIP3    H268540   2.641   4.321   2.356 -1.8465  1.3902  0.0319
15709TIP3   OH268541   6.273   4.695   2.330 -0.0997  0.5413  0.1041
15709TIP3    H168542   6.197   4.655   2.372 -0.8354  2.8201  1.0405
15709TIP3    H268543   6.310   4.753   2.397  3.1448 -1.3024  0.0498
15710TIP3   OH268544   3.962   3.929  15.160 -0.4062 -0.7713 -0.2621
15710TIP3    H168545   3.992   4.002  15.213  0.4005 -1.6894  0.5787
15710TIP3    H268546   4.042   3.895  15.118 -0.8144 -0.9714 -0.8879
15711TIP3   OH268547   0.853   3.887   4.197 -0.6615  0.0891 -0.2499
15711TIP3    H168548   0.761   3.863   4.210 -0.5180 -0.6147 -0.4678
15711TIP3    H268549   0.901   3.837   4.264 -0.5097  1.0295  0.3485
15712TIP3   OH268550   4.905   3.807   4.026 -0.6642 -0.4294 -0.6346
15712TIP3    H168551   4.825   3.757   4.019 -0.2640 -0.9991 -1.1278
15712TIP3    H268552   4.974   3.742   4.035 -0.4368  0.0705  1.8126
15713TIP3   OH268553   6.767   4.678   2.627 -0.2496 -0.5362  0.2247
15713TIP3    H168554   6.789   4.746   2.563 -1.7862  0.4276  0.6942
15713TIP3    H268555   6.848   4.663   2.675 -0.3239  2.2433  1.2763
15714TIP3   OH268556   4.298   2.051   3.599  0.1100  0.7141  0.3911
15714TIP3    H168557   4.376   2.107   3.595  0.1295  0.6619  0.0206
15714TIP3    H268558   4.331   1.962   3.588 -0.1702  0.8224 -1.5377
15715TIP3   OH268559   3.400   3.856   3.576 -0.0938 -0.2845 -0.4518
15715TIP3    H168560   3.325   3.913   3.594 -0.0138 -0.4700  0.4504
15715TIP3    H268561   3.390   3.782   3.635  0.5300 -0.5589 -0.6818
15716TIP3   OH268562   0.188   3.328   3.735  0.3854  0.2846  0.3377
15716TIP3    H168563   0.267   3.302   3.783 -0.0570  0.5314  1.2100
15716TIP3    H268564   0.148   3.396   3.790 -0.0728  0.6446 -0.4332
15717TIP3   OH268565   4.719   3.279  14.421 -0.1150 -0.2532  0.1582
15717TIP3    H168566   4.705   3.285  14.516 -0.5251 -1.7380  0.2055
15717TIP3    H268567   4.647   3.224  14.390 -1.5013  2.3509 -1.4101
15718TIP3   OH268568   6.430   3.500   2.480  0.0065 -0.2364  0.3719
15718TIP3    H168569   6.417   3.407   2.497 -0.0172  0.0285  1.8704
15718TIP3    H268570   6.495   3.528   2.545  1.2676  0.4484 -1.1294
15719TIP3   OH268571   2.821   3.168   3.138 -0.8033 -0.1442  0.0158
15719TIP3    H168572   2.741   3.187   3.187 -0.7080  1.3482 -0.4003
15719TIP3    H268573   2.805   3.204   3.051  0.1019 -0.3555 -0.2454
15720TIP3   OH268574   6.946   6.049   1.111  0.7460  0.4882  0.1474
15720TIP3    H168575   7.034   6.062   1.075  1.3179  1.8535  1.9502
15720TIP3    H268576   6.959   5.985   1.181 -0.0638 -0.8789 -0.9416
15721TIP3   OH268577   6.016   6.784   4.223 -0.0577 -0.5756 -0.1577
15721TIP3    H168578   5.988   6.724   4.153  1.7097 -2.1873  0.4643
15721TIP3    H268579   5.944   6.782   4.286 -0.0808 -1.9944 -0.2031
15722TIP3   OH268580   6.501   6.549   1.529 -0.2448  0.1758 -0.0581
15722TIP3    H168581   6.410   6.561   1.555  0.1797 -1.6800  2.4268
15722TIP3    H268582   6.525   6.464   1.565  3.7313  2.4225  3.0558
15723TIP3   OH268583   2.583   2.222   0.878  0.0435 -0.5866 -0.6511
15723TIP3    H168584   2.657   2.161   0.879  0.3592 -0.3033  2.7560
15723TIP3    H268585   2.623   2.307   0.858  0.9927 -0.1911  2.5189
15724TIP3   OH268586   5.538   2.075   0.207  0.4477 -0.5054 -0.4194
15724TIP3    H168587   5.522   2.008   0.141 -3.2958 -1.9562  1.7682
15724TIP3    H268588   5.468   2.139   0.195  0.8820  0.2527  0.8875
15725TIP3   OH268589   6.804   3.365   5.248 -0.3846 -0.6649  0.3297
15725TIP3    H168590   6.857   3.385   5.171 -1.0146  0.9970  0.3062
15725TIP3    H268591   6.717   3.346   5.212 -0.3190 -1.3154  0.5188
15726TIP3   OH268592   4.159   7.050   0.098 -0.5734  0.1316 -0.0291
15726TIP3    H168593   4.226   7.087   0.041 -0.6797  1.5097  0.6967
15726TIP3    H268594   4.077   7.092   0.069 -0.7753  0.0944  0.4731
15727TIP3   OH268595   6.303   1.915   2.292  0.1870 -0.2149  0.4333
15727TIP3    H168596   6.389   1.933   2.327  1.3616  1.1696 -2.9430
15727TIP3    H268597   6.249   1.989   2.319  1.4041  1.4834 -1.6435
15728TIP3   OH268598   6.710   3.235   1.210 -0.3386  0.6195 -0.2027
15728TIP3    H168599   6.685   3.144   1.195 -1.2793  1.0369 -1.2010
15728TIP3    H268600   6.795   3.245   1.167 -0.8985  0.5927 -1.3201
15729TIP3   OH268601   3.859   4.698  14.206 -0.0530 -0.2345 -0.7678
15729TIP3    H168602   3.896   4.686  14.294 -0.5533 -0.3361 -0.5644
15729TIP3    H268603   3.884   4.787  14.181  0.0208 -0.1759 -0.4861
15730TIP3   OH268604   7.018   3.939   1.468 -0.6238 -0.4600 -0.1652
15730TIP3    H168605   7.096   3.994   1.457 -0.1291 -1.3545 -1.1774
15730TIP3    H268606   7.044   3.874   1.533 -0.4319 -0.9450 -0.7313
15731TIP3   OH268607   5.195   4.372   1.552 -0.0423  1.1176 -0.6865
15731TIP3    H168608   5.125   4.328   1.600 -0.1316 -0.0868 -1.8874
15731TIP3    H268609   5.218   4.311   1.481  3.1930  0.8530  0.5131
15732TIP3   OH268610   3.598   4.239   4.878 -0.2676  0.7792 -0.3901
15732TIP3    H168611   3.551   4.201   4.953 -1.1301 -0.0348 -1.3224
15732TIP3    H268612   3.580   4.178   4.806  0.5503  1.5616 -1.2572
15733TIP3   OH268613   5.824   4.097   2.682  0.0061 -0.2237  0.1805
15733TIP3    H168614   5.815   4.190   2.702 -1.4879 -0.2476 -0.3695
15733TIP3    H268615   5.771   4.052   2.748 -0.8695 -0.5789 -0.7694
15734TIP3   OH268616   3.388   2.352   3.449 -0.2250  0.0237 -0.2329
15734TIP3    H168617   3.333   2.341   3.372 -0.8420  1.0680  0.0437
15734TIP3    H268618   3.451   2.281   3.444 -3.6588 -3.2946  1.2373
15735TIP3   OH268619   6.327   2.764   3.046 -0.1456  0.1975  0.0487
15735TIP3    H168620   6.346   2.848   3.003 -1.2632  0.4068 -0.0554
15735TIP3    H268621   6.238   2.743   3.019  0.6601 -1.7766 -1.0969
15736TIP3   OH268622   1.358   5.078   2.162 -0.1652 -0.0736 -0.4031
15736TIP3    H168623   1.389   4.991   2.138  1.3705  0.7323 -1.3918
15736TIP3    H268624   1.345   5.073   2.257 -2.0756 -1.9770 -0.7287
15737TIP3   OH268625   2.464   6.744  14.042  0.2717 -0.0309  0.0236
15737TIP3    H168626   2.541   6.690  14.059  1.5782  1.6014 -0.6221
15737TIP3    H268627   2.436   6.718  13.954 -1.4801 -2.4641  1.2616
15738TIP3   OH268628   0.211   4.461   3.965  0.4386 -1.0219  0.2083
15738TIP3    H168629   0.236   4.402   4.037 -0.9965 -1.5393  0.3094
15738TIP3    H268630   0.186   4.542   4.008 -0.5227 -1.3669  0.3213
15739TIP3   OH268631   0.907   0.909  15.489  0.0292  0.7447  0.4713
15739TIP3    H168632   0.869   0.874  15.570  1.4843 -0.4129  0.6667
15739TIP3    H268633   0.876   1.000  15.485 -1.7591  0.1828  1.2431
15740TIP3   OH268634   6.267   5.165   3.401  0.2065  0.4612  0.5227
15740TIP3    H168635   6.266   5.250   3.445  0.5689  0.7381  0.0078
15740TIP3    H268636   6.360   5.141   3.398  0.3002  0.9848 -1.0995
15741TIP3   OH268637   1.371   3.615   0.585 -0.8865  0.0441 -0.3185
15741TIP3    H168638   1.454   3.660   0.577 -1.1846  0.6781  0.0695
15741TIP3    H268639   1.328   3.627   0.501 -0.6215 -0.2161 -0.4919
15742TIP3   OH268640   2.315   1.161  13.915  0.1092 -0.2898  0.4932
15742TIP3    H168641   2.303   1.246  13.873 -1.8286 -1.2872 -1.0363
15742TIP3    H268642   2.390   1.122  13.869 -0.1848 -0.1830 -0.0789
15743TIP3   OH268643   4.337   3.300  15.316 -0.1832 -0.2058 -0.4201
15743TIP3    H168644   4.416   3.247  15.328 -1.2910 -1.9931 -0.8683
15743TIP3    H268645   4.329   3.350  15.397  1.1734 -0.3120 -0.2089
15744TIP3   OH268646   0.887   3.375   2.206  0.4049  0.3072 -0.1011
15744TIP3    H168647   0.873   3.450   2.264  1.0019 -0.1457  0.6428
15744TIP3    H268648   0.957   3.402   2.147  1.0274  0.1250  0.5487
15745TIP3   OH268649   2.555   1.841   0.613  0.1807 -0.0338 -0.3689
15745TIP3    H168650   2.497   1.896   0.664 -0.5779 -2.9011  1.9803
15745TIP3    H268651   2.639   1.888   0.612 -1.0830  2.3034 -0.6016
15746TIP3   OH268652   5.823   4.836  14.952  0.6654 -0.4248  0.7169
15746TIP3    H168653   5.833   4.790  15.036  2.0188 -0.3361  0.6214
15746TIP3    H268654   5.862   4.922  14.967 -1.5282  0.5848  0.7819
15747TIP3   OH268655   6.191   4.397   5.759 -0.1567  0.3667 -0.1241
15747TIP3    H168656   6.154   4.381   5.846 -5.4582  0.5758 -2.1174
15747TIP3    H268657   6.227   4.485   5.764 -1.3300  0.7753  1.6046
15748TIP3   OH268658   4.292   3.027   5.001  0.2653 -0.1559 -0.2244
15748TIP3    H168659   4.197   3.039   4.992  0.5070  1.5186 -0.6456
15748TIP3    H268660   4.319   3.096   5.063  1.0677 -1.2177  0.6242
15749TIP3   OH268661   0.292   1.986   3.050 -0.0639  0.7655  0.2902
15749TIP3    H168662   0.315   1.925   2.980  0.8940 -0.1270  1.3654
15749TIP3    H268663   0.373   2.033   3.069 -0.5567  1.6889  0.1482
15750TIP3   OH268664   0.714   5.910   1.077 -0.1681 -0.7161 -0.0679
15750TIP3    H168665   0.735   5.860   0.998 -0.6489 -1.5073  0.3082
15750TIP3    H268666   0.693   5.998   1.044  0.2837 -0.8573 -0.7555
15751TIP3   OH268667   0.635   2.754  14.733  0.2205 -0.1675 -0.1824
15751TIP3    H168668   0.655   2.841  14.698 -1.2034  0.1844 -0.1695
15751TIP3    H268669   0.697   2.741  14.804  0.6790  0.6869 -0.4206
15752TIP3   OH268670   5.385   5.722   1.724 -0.6804 -0.8026 -0.6708
15752TIP3    H168671   5.447   5.711   1.796 -2.5120  0.8611  1.2449
15752TIP3    H268672   5.421   5.796   1.674 -0.2571 -0.9195 -0.5481
15753TIP3   OH268673   6.451   0.392   2.443  0.5874  0.4257  0.0733
15753TIP3    H168674   6.378   0.365   2.500  1.6767  1.1802  1.8852
15753TIP3    H268675   6.527   0.392   2.501  1.6128  1.8898 -1.2427
15754TIP3   OH268676   3.465   6.358   0.202 -0.4467 -0.7820  0.2399
15754TIP3    H168677   3.419   6.408   0.134  0.5322 -0.0447  0.1043
15754TIP3    H268678   3.496   6.424   0.263 -0.6377 -1.3778  0.9860
15755TIP3   OH268679   6.190   1.832   3.007 -0.2217  0.2195 -0.2443
15755TIP3    H168680   6.214   1.749   3.048  1.4482  0.4019 -0.8161
15755TIP3    H268681   6.121   1.868   3.064  1.5161  0.1152  2.0165
15756TIP3   OH268682   5.472   6.777   2.359 -0.1831  0.0681 -0.2625
15756TIP3    H168683   5.466   6.871   2.345 -0.6120 -0.0306 -0.7508
15756TIP3    H268684   5.383   6.751   2.383  0.2354  0.0157  1.2949
15757TIP3   OH268685   5.267   3.591   1.094 -0.0227  0.5032  0.5531
15757TIP3    H168686   5.300   3.533   1.025 -0.6665 -0.6636  1.2118
15757TIP3    H268687   5.187   3.628   1.058 -0.3541 -0.0995  0.6674
15758TIP3   OH268688   3.723   5.626   4.146 -0.1674  0.3073 -0.8086
15758TIP3    H168689   3.760   5.694   4.203 -0.8836  0.1140 -0.1009
15758TIP3    H268690   3.782   5.623   4.070 -0.1158  1.7107 -0.8376
15759TIP3   OH268691   0.233   6.602   4.900  0.2499 -0.6721  0.5849
15759TIP3    H168692   0.249   6.673   4.962  0.2923 -1.1270  1.0960
15759TIP3    H268693   0.279   6.629   4.820 -1.9433  1.1621 -0.1208
15760TIP3   OH268694   3.753   5.770   3.127 -0.3569 -0.3205  0.1710
15760TIP3    H168695   3.795   5.769   3.041 -1.2721  0.2276 -0.2972
15760TIP3    H268696   3.672   5.720   3.115 -0.1029 -0.9278  0.9243
15761TIP3   OH268697   4.508   1.906  14.710 -0.1314  0.3723 -0.3350
15761TIP3    H168698   4.429   1.852  14.702 -0.8527  1.6081 -1.7632
15761TIP3    H268699   4.578   1.855  14.671  0.0524 -1.2263  1.9627
15762TIP3   OH268700   3.673   4.292   1.783 -0.2497  0.3568  0.2830
15762TIP3    H168701   3.716   4.247   1.856  0.1296  0.5018  0.1551
15762TIP3    H268702   3.726   4.371   1.770  0.8022 -0.5858 -1.3494
15763TIP3   OH268703   0.041   0.722   2.069 -0.5932 -0.1212 -0.5568
15763TIP3    H168704   0.121   0.675   2.093 -1.4502 -0.8183  1.0027
15763TIP3    H268705   0.072   0.800   2.022  1.0805  0.2855  1.1353
15764TIP3   OH268706   3.903   2.455   0.458 -0.1681  0.5247  0.5156
15764TIP3    H168707   3.822   2.407   0.474 -0.2742  0.4959 -0.1076
15764TIP3    H268708   3.895   2.533   0.513  0.0049 -0.1639  1.5250
15765TIP3   OH268709   0.014   0.538   3.909 -0.4973  0.1275 -0.6995
15765TIP3    H168710   0.091   0.572   3.956 -1.2248 -0.0257  0.6455
15765TIP3    H268711  -0.016   0.611   3.856  0.6407  0.1555 -1.3046
15766TIP3   OH268712   1.004   2.116   1.981  0.1377 -0.0768  0.5103
15766TIP3    H168713   1.086   2.126   2.030  0.9058  1.1593 -0.9970
15766TIP3    H268714   0.935   2.126   2.047  1.0901  3.7242  1.0152
15767TIP3   OH268715   5.785   4.875   4.525  0.9916  0.2935 -0.1937
15767TIP3    H168716   5.765   4.787   4.557  0.6620  1.1653  2.0655
15767TIP3    H268717   5.808   4.924   4.603  0.7245  2.3446 -1.3807
15768TIP3   OH268718   2.360   2.937   4.189 -0.3153  0.3196 -0.2653
15768TIP3    H168719   2.411   2.941   4.109 -0.0990 -0.3727 -0.1621
15768TIP3    H268720   2.277   2.898   4.163 -0.9206  1.7202 -0.4927
15769TIP3   OH268721   6.660   5.701   2.706 -1.1355  0.0082  0.4855
15769TIP3    H168722   6.679   5.680   2.615 -0.8613 -0.2358  0.5960
15769TIP3    H268723   6.666   5.617   2.752 -2.7596 -0.1241  0.4813
15770TIP3   OH268724   2.210   5.349   2.543  0.3315 -0.1920 -0.1329
15770TIP3    H168725   2.255   5.432   2.528  0.6370 -0.4663 -0.7410
15770TIP3    H268726   2.198   5.312   2.456  0.0329 -0.7059  0.1217
15771TIP3   OH268727   0.776   0.575   0.338  0.9166  0.1145  0.4737
15771TIP3    H168728   0.861   0.573   0.296  0.1608  1.2948 -1.1615
15771TIP3    H268729   0.735   0.492   0.313 -0.0977  1.4195 -2.4305
15772TIP3   OH268730   6.133   6.632   4.589  0.3270  0.3042  0.1244
15772TIP3    H168731   6.192   6.706   4.600  0.9024 -0.1603  0.1658
15772TIP3    H268732   6.142   6.607   4.497  2.4573 -1.6553  0.8177
15773TIP3   OH268733   0.111   3.600   1.057 -0.0118  0.5897 -0.6989
15773TIP3    H168734   0.181   3.535   1.047 -0.4621 -0.0104 -0.0033
15773TIP3    H268735   0.151   3.670   1.109  0.1470  0.3607 -0.5105
15774TIP3   OH268736   3.350   5.270   4.242 -0.0178  0.1885 -0.3148
15774TIP3    H168737   3.256   5.285   4.233 -0.2893 -1.1530  0.2319
15774TIP3    H268738   3.389   5.358   4.236 -1.1005  0.5163 -2.8177
15775TIP3   OH268739   4.738   3.102   3.057 -0.0951 -0.4939 -0.0302
15775TIP3    H168740   4.707   3.089   3.146 -0.1617  1.2333  0.2212
15775TIP3    H268741   4.714   3.021   3.011 -1.4096 -0.7990  1.1474
15776TIP3   OH268742   1.816   1.179   2.168  0.1082 -0.1147  0.4646
15776TIP3    H168743   1.860   1.203   2.250  0.8561  0.4384 -0.0933
15776TIP3    H268744   1.736   1.231   2.169  1.9214  2.7945 -0.9315
15777TIP3   OH268745   3.818   4.724   4.354  0.2837 -0.3472 -0.1541
15777TIP3    H168746   3.799   4.749   4.263  0.1509 -1.9673 -0.5967
15777TIP3    H268747   3.911   4.700   4.352  0.7812  1.4759  0.5825
15778TIP3   OH268748   1.107   5.845   0.299 -0.2138  0.1390  0.2547
15778TIP3    H168749   1.186   5.897   0.284  0.0893 -0.6911 -1.1600
15778TIP3    H268750   1.037   5.910   0.306  0.3055  0.7960 -0.4948
15779TIP3   OH268751   6.866   3.886   1.798  0.2740 -0.2208  0.5467
15779TIP3    H168752   6.829   3.971   1.824  2.5230  0.9382  0.0646
15779TIP3    H268753   6.800   3.848   1.741 -0.4902  1.5046  0.2433
15780TIP3   OH268754   6.830   6.360  14.244 -0.2931 -0.3707  0.0854
15780TIP3    H168755   6.915   6.400  14.229 -0.0503 -0.3113  1.5339
15780TIP3    H268756   6.847   6.286  14.302 -1.2448 -0.2274  0.5666
15781TIP3   OH268757   1.366   1.786   1.352 -0.3538  0.1468 -0.6746
15781TIP3    H168758   1.408   1.715   1.401 -1.1826  0.5463  0.6687
15781TIP3    H268759   1.291   1.744   1.310 -1.3941  0.4030  0.8970
15782TIP3   OH268760   6.838   4.060   1.263 -0.4343  0.1210 -0.2623
15782TIP3    H168761   6.892   4.117   1.208 -0.8943  1.8104  1.0030
15782TIP3    H268762   6.901   4.017   1.321 -0.3116  1.1370  0.3653
15783TIP3   OH268763   2.511   6.233   4.494 -0.3459 -0.1291 -0.0581
15783TIP3    H168764   2.520   6.305   4.556 -0.6898 -0.7074  0.6703
15783TIP3    H268765   2.438   6.258   4.438 -1.4381 -0.5839  1.1336
15784TIP3   OH268766   6.944   4.652   0.724 -0.4643  0.2521  0.5869
15784TIP3    H168767   6.964   4.564   0.757  1.0485  0.4073  0.1394
15784TIP3    H268768   7.024   4.702   0.739 -0.4657  0.8933 -1.3809
15785TIP3   OH268769   1.307   3.441   1.895  0.4857 -0.5612 -0.0846
15785TIP3    H168770   1.372   3.491   1.845  0.4706  0.5107  0.9621
15785TIP3    H268771   1.318   3.470   1.985  0.0836 -2.0375  0.4580
15786TIP3   OH268772   5.153   4.624   1.432 -0.3453  0.4312  0.1866
15786TIP3    H168773   5.169   4.539   1.472  0.7228  1.4610  2.0762
15786TIP3    H268774   5.062   4.644   1.452 -0.5596 -0.2105 -0.1512
15787TIP3   OH268775   6.193   3.272   2.125 -0.0064 -0.2309  0.1345
15787TIP3    H168776   6.161   3.204   2.184  2.7312 -2.1881 -0.5668
15787TIP3    H268777   6.280   3.295   2.160  0.6414  0.2793 -1.7662
15788TIP3   OH268778   2.265   6.334   0.348  0.1417  0.2710 -0.0125
15788TIP3    H168779   2.252   6.304   0.258 -1.0701 -0.5256  0.4170
15788TIP3    H268780   2.314   6.264   0.390  0.9155  0.7476 -0.0998
15789TIP3   OH268781   4.013   1.931   4.862  0.1134 -0.9010 -0.1345
15789TIP3    H168782   3.982   2.012   4.902  0.3227 -1.7388  1.7847
15789TIP3    H268783   4.090   1.957   4.811 -1.9160  0.6735 -2.4858
15790TIP3   OH268784   3.716   4.929   2.897 -0.5176 -0.3209 -0.2527
15790TIP3    H168785   3.728   4.982   2.818  0.8441 -0.7219 -0.3264
15790TIP3    H268786   3.729   4.839   2.866  0.7291 -0.4259  0.5700
15791TIP3   OH268787   4.590   3.116  14.051 -0.1519  0.5326 -0.1554
15791TIP3    H168788   4.672   3.125  14.100  0.0115 -1.2588 -0.0856
15791TIP3    H268789   4.522   3.124  14.117  0.0758 -2.1664  0.4433
15792TIP3   OH268790   2.012   3.352   2.638 -0.1053  0.2308  0.0169
15792TIP3    H168791   1.927   3.311   2.624  0.6821 -1.8229  1.0655
15792TIP3    H268792   2.067   3.319   2.567  0.4891 -0.4019  0.7671
15793TIP3   OH268793   4.158   6.032   1.296  0.4401  0.6716 -0.6908
15793TIP3    H168794   4.135   6.078   1.377  0.0076 -0.3597 -0.2047
15793TIP3    H268795   4.147   6.097   1.227  0.1979  1.3919  0.0108
15794TIP3   OH268796   6.437   3.323   3.111  0.6641 -0.3314  0.0178
15794TIP3    H168797   6.423   3.356   3.022  0.6350 -0.1052  0.1069
15794TIP3    H268798   6.532   3.319   3.120  0.6839 -2.5234 -0.8334
15795TIP3   OH268799   3.105   3.845   1.130  0.2683  0.1986 -0.2919
15795TIP3    H168800   3.025   3.847   1.183  0.1238 -0.7238 -0.4604
15795TIP3    H268801   3.075   3.845   1.040  0.5455  2.9577 -0.4216
15796TIP3   OH268802   5.707   1.213   4.690 -0.3025 -0.5661 -0.1697
15796TIP3    H168803   5.654   1.271   4.745 -0.7630 -1.3150  0.1850
15796TIP3    H268804   5.643   1.156   4.648  0.1514 -0.8285 -0.5032
15797TIP3   OH268805   4.576   0.644   2.701  0.4598 -0.3664 -0.2665
15797TIP3    H168806   4.548   0.672   2.788  0.2400 -0.9143 -0.1557
15797TIP3    H268807   4.589   0.725   2.652  0.3718 -0.0627  0.2110
15798TIP3   OH268808   5.635   0.281   4.283 -0.7822  0.0355  0.3840
15798TIP3    H168809   5.700   0.317   4.342 -1.5294 -1.0553  1.9259
15798TIP3    H268810   5.685   0.227   4.222 -0.0849  0.5248  0.5142
15799TIP3   OH268811   0.316   3.437   4.662 -0.9356  0.5810 -0.4472
15799TIP3    H168812   0.283   3.522   4.634  0.7136  1.6707  0.8528
15799TIP3    H268813   0.251   3.405   4.724 -0.9284  1.4728  0.0196
15800TIP3   OH268814   3.597   4.396   3.782 -0.3953 -0.1443 -0.0020
15800TIP3    H168815   3.626   4.317   3.827 -1.5748 -1.1136 -0.9100
15800TIP3    H268816   3.518   4.369   3.734 -0.1667  1.2978 -1.2263
15801TIP3   OH268817   0.761   0.489   4.512  0.1656  0.2514 -0.3047
15801TIP3    H168818   0.773   0.424   4.443 -1.0181  1.3716 -1.5884
15801TIP3    H268819   0.727   0.566   4.467 -2.5197  0.3725  1.7958
15802TIP3   OH268820   5.552   1.184   1.233  0.1633 -0.0343 -0.0190
15802TIP3    H168821   5.554   1.187   1.329  1.3814 -1.0646  0.0003
15802TIP3    H268822   5.619   1.120   1.210  0.7721  1.1442 -1.6158
15803TIP3   OH268823   0.591   2.664   0.526 -0.2675  0.0949  0.0539
15803TIP3    H168824   0.515   2.623   0.486 -0.1002  1.4106 -1.6851
15803TIP3    H268825   0.559   2.748   0.558  0.7498  1.3259 -2.0446
15804TIP3   OH268826   6.182   6.296   2.298 -0.1937  0.2892 -0.4292
15804TIP3    H168827   6.246   6.228   2.276  0.1958  0.6735 -0.4834
15804TIP3    H268828   6.187   6.304   2.394 -0.2334  0.2478 -0.4236
15805TIP3   OH268829   6.265   4.527   0.383  0.2377  0.1291  0.3004
15805TIP3    H168830   6.185   4.477   0.366  1.2751 -0.9425 -1.4157
15805TIP3    H268831   6.234   4.603   0.433 -1.3016 -2.3290  3.2560
15806TIP3   OH268832   1.546   6.936   4.094 -0.2399 -0.1003  0.5276
15806TIP3    H168833   1.546   6.943   4.190 -2.1401 -0.5995  0.5818
15806TIP3    H268834   1.517   7.022   4.064  0.0227 -0.0540  0.4033
15807TIP3   OH268835   1.448   4.100  15.305  0.4226 -0.2779  0.2156
15807TIP3    H168836   1.505   4.177  15.308 -1.3085  1.0751 -0.5149
15807TIP3    H268837   1.451   4.073  15.213  1.3025 -1.3314  0.5354
15808TIP3   OH268838   7.050   3.360   1.133  0.4776  0.0230  0.1564
15808TIP3    H168839   7.085   3.335   1.219  1.6329 -2.1338 -0.9127
15808TIP3    H268840   7.086   3.448   1.118  1.4077 -0.1505  1.2759
15809TIP3   OH268841   6.514   2.997   3.574  0.2010  0.0959 -0.1637
15809TIP3    H168842   6.595   3.014   3.621  0.2512  0.3592 -0.3426
15809TIP3    H268843   6.453   3.063   3.606 -0.1705 -0.5731  0.5241
15810TIP3   OH268844   6.576   0.691   2.520 -0.1097 -0.1308 -0.4077
15810TIP3    H168845   6.521   0.660   2.592  0.5117 -0.0913  0.0888
15810TIP3    H268846   6.646   0.741   2.563  0.5530 -0.5340 -0.9972
15811TIP3   OH268847   5.700   5.046   1.396  0.6224 -0.5642  0.4146
15811TIP3    H168848   5.684   5.139   1.380 -0.0745 -1.0923 -2.2641
15811TIP3    H268849   5.657   5.028   1.479 -0.0987  1.2768  0.4706
15812TIP3   OH268850   5.707   1.181  14.782 -0.2453  0.1018  0.5054
15812TIP3    H168851   5.681   1.175  14.873 -1.8146 -1.7302 -0.0369
15812TIP3    H268852   5.646   1.243  14.743  0.3536  0.7984  0.6709
15813TIP3   OH268853   3.605   0.082   3.919 -0.4481 -0.1270  0.1002
15813TIP3    H168854   3.597   0.057   3.827 -1.0481 -0.4004  0.2252
15813TIP3    H268855   3.599  -0.001   3.967 -0.5254  0.0537  0.4027
15814TIP3   OH268856   0.273   3.509   0.622  0.2603 -0.7571  0.6220
15814TIP3    H168857   0.283   3.534   0.531  0.1593 -0.7110  0.6231
15814TIP3    H268858   0.280   3.591   0.671  2.9627 -1.1054  0.8766
15815TIP3   OH268859   1.232   2.679   1.443 -0.6149  0.1905 -0.8850
15815TIP3    H168860   1.242   2.590   1.409  0.1924 -0.1838  0.2840
15815TIP3    H268861   1.282   2.678   1.525 -1.4635  1.4265 -0.3496
15816TIP3   OH268862   0.498   2.889  15.425  0.4875  0.3382 -0.5787
15816TIP3    H168863   0.566   2.929  15.370  1.8424  0.0992  0.9013
15816TIP3    H268864   0.505   2.795  15.408  1.6515  0.1621  0.8181
15817TIP3   OH268865   6.634   6.185   2.934  0.4375  0.0135  0.5295
15817TIP3    H168866   6.540   6.197   2.943  0.3171  2.2468 -2.9261
15817TIP3    H268867   6.647   6.090   2.944 -2.3240 -0.4882 -0.3824
15818TIP3   OH268868   0.541   3.318   1.609 -0.1411 -0.7444  0.1295
15818TIP3    H168869   0.554   3.273   1.693  0.7485  0.1478  0.4740
15818TIP3    H268870   0.446   3.321   1.598 -0.2388 -1.8838  0.5428
15819TIP3   OH268871   4.604   5.352   1.583 -0.0883  0.1281  0.0491
15819TIP3    H168872   4.587   5.286   1.515  0.6392  0.5971 -0.5909
15819TIP3    H268873   4.622   5.300   1.662  1.1417 -0.4646 -0.6042
15820TIP3   OH268874   5.992   6.693  14.916  0.0818  0.2697 -0.2907
15820TIP3    H168875   5.911   6.660  14.955 -1.2396  2.3587 -1.2148
15820TIP3    H268876   5.975   6.692  14.822  0.6014  2.0782 -0.4122
15821TIP3   OH268877   7.125   5.555   2.824 -0.1551 -0.1960  0.4842
15821TIP3    H168878   7.143   5.464   2.849  0.2391  0.0760  1.1939
15821TIP3    H268879   7.057   5.548   2.757  0.8819 -1.0952 -0.5060
15822TIP3   OH268880   0.626   2.441   0.681 -0.0398 -0.0704 -0.2659
15822TIP3    H168881   0.607   2.516   0.624 -1.7995  0.8847  1.5147
15822TIP3    H268882   0.701   2.468   0.733 -0.7236  0.5001  0.4314
15823TIP3   OH268883   1.709   1.818   3.066  0.1693  0.3079 -0.0525
15823TIP3    H168884   1.644   1.747   3.067 -0.2808  0.7204  1.6828
15823TIP3    H268885   1.694   1.864   2.983 -1.6250  0.2757  0.2459
15824TIP3   OH268886   1.878   5.906   1.574 -0.1821 -0.0596  0.6795
15824TIP3    H168887   1.904   5.822   1.538 -1.1670 -0.4343  0.8194
15824TIP3    H268888   1.857   5.889   1.666 -2.3502 -0.0991  0.2109
15825TIP3   OH268889   6.510   7.076   1.240  0.1308 -0.5347 -0.2360
15825TIP3    H168890   6.518   7.144   1.306  0.6242 -2.1757  1.4218
15825TIP3    H268891   6.533   7.120   1.158  1.8220  0.9465  1.0010
15826TIP3   OH268892   0.756   1.328   3.220 -0.6057  0.0812 -0.0466
15826TIP3    H168893   0.706   1.386   3.163 -0.3736 -0.7608 -1.1426
15826TIP3    H268894   0.755   1.370   3.306 -2.3221  0.5717 -0.3022
15827TIP3   OH268895   6.422   2.223   3.945 -0.1489 -0.0290  0.1435
15827TIP3    H168896   6.505   2.268   3.964  0.2578 -0.7668  0.1318
15827TIP3    H268897   6.366   2.244   4.019 -0.4713  1.7218 -0.5757
15828TIP3   OH268898   5.912   4.042   0.435 -0.4540  0.4965  0.4100
15828TIP3    H168899   5.931   4.046   0.529  0.9868 -0.7392  0.1889
15828TIP3    H268900   5.823   4.008   0.430  0.0963 -1.1367  1.3024
15829TIP3   OH268901   6.280   5.161   1.604  0.3409 -0.1547  0.0817
15829TIP3    H168902   6.306   5.241   1.559 -0.9137  0.2941  0.1310
15829TIP3    H268903   6.221   5.191   1.673 -1.4143 -1.2591 -0.9028
15830TIP3   OH268904   3.740   3.068   2.997 -0.0159  0.1873  0.1756
15830TIP3    H168905   3.799   3.105   3.063 -1.4929  2.0726  0.4955
15830TIP3    H268906   3.653   3.080   3.034 -0.7409 -0.4671 -1.2942
15831TIP3   OH268907   6.741   1.661  13.577 -0.1100  0.3485  0.1457
15831TIP3    H168908   6.802   1.660  13.503 -0.0738 -0.1507  0.1841
15831TIP3    H268909   6.655   1.651  13.536 -0.2180  1.5328  0.0510
15832TIP3   OH268910   1.524   2.708   1.883 -0.2566  0.1608  0.4043
15832TIP3    H168911   1.574   2.644   1.933  0.2961  1.5440  1.6539
15832TIP3    H268912   1.486   2.766   1.949 -0.3712  1.4003 -0.7330
15833TIP3   OH268913   4.161   2.930   2.633 -0.1220 -0.3563  0.1977
15833TIP3    H168914   4.213   2.878   2.572 -0.3763  0.0462 -0.3735
15833TIP3    H268915   4.116   2.993   2.577 -1.5675 -0.9902  0.6446
15834TIP3   OH268916   0.998   3.143   6.178 -0.0231  0.5912  0.1295
15834TIP3    H168917   0.911   3.169   6.206 -0.2421  0.3466 -0.3195
15834TIP3    H268918   1.015   3.061   6.225  0.5823  1.4191  1.3834
15835TIP3   OH268919   1.233   4.940   3.182 -0.3419  0.0289  0.3168
15835TIP3    H168920   1.183   4.917   3.260  1.8724  1.6968  2.2793
15835TIP3    H268921   1.287   4.864   3.163  1.3972  0.7469  2.2863
15836TIP3   OH268922   4.921   5.532   4.977 -0.0214 -0.1510 -0.0487
15836TIP3    H168923   4.927   5.528   4.881  0.0429 -1.9671  0.0230
15836TIP3    H268924   4.985   5.467   5.007 -0.3547  0.1143  1.2282
15837TIP3   OH268925   1.876   4.692   1.450 -0.2054 -0.5589 -0.0811
15837TIP3    H168926   1.871   4.749   1.373 -0.7688  0.7505  0.9037
15837TIP3    H268927   1.906   4.608   1.416 -3.2886 -0.8774 -2.2394
15838TIP3   OH268928   1.717   1.321   4.641 -0.0998  0.1751  0.3241
15838TIP3    H168929   1.789   1.375   4.606 -0.6144 -0.1065 -1.2115
15838TIP3    H268930   1.731   1.322   4.736  1.2709  1.0652  0.1395
15839TIP3   OH268931   1.609   3.938   1.200  0.2003 -0.1857 -0.1802
15839TIP3    H168932   1.543   3.997   1.236  1.2333  0.4989  0.6528
15839TIP3    H268933   1.560   3.862   1.169 -0.9639  0.3067  0.4301
15840TIP3   OH268934   3.004   7.151   5.608  0.2721 -0.3047  0.4487
15840TIP3    H168935   3.052   7.092   5.551  0.1893  1.8950 -2.0281
15840TIP3    H268936   2.997   7.232   5.558  1.5317  2.2902  4.2118
15841TIP3   OH268937   2.694   5.489   4.692  0.0369  0.0798 -0.1833
15841TIP3    H168938   2.639   5.552   4.737  1.1290  0.9150  0.0100
15841TIP3    H268939   2.680   5.407   4.739 -0.0077  0.5977  0.7232
15842TIP3   OH268940   2.826   7.087  15.127  0.4318 -0.6253  0.0729
15842TIP3    H168941   2.885   7.163  15.131  1.1758 -1.2641  2.3027
15842TIP3    H268942   2.879   7.019  15.085  0.6083 -0.6245  0.2912
15843TIP3   OH268943   1.103   4.594   4.331  0.0532 -0.5474 -0.6132
15843TIP3    H168944   1.183   4.639   4.307 -0.5700  1.1015  0.3420
15843TIP3    H268945   1.051   4.593   4.251 -0.9902  2.7527 -0.0535
15844TIP3   OH268946   7.103   5.108   3.858 -0.0883 -0.2514 -0.2752
15844TIP3    H168947   7.071   5.168   3.790 -0.0974  0.6958  0.5609
15844TIP3    H268948   7.054   5.132   3.936  0.8132 -0.5230  0.3792
15845TIP3   OH268949   7.034   2.502   4.679 -0.3441  0.6966  0.6307
15845TIP3    H168950   7.067   2.589   4.698 -0.2970  0.8542 -0.1572
15845TIP3    H268951   7.077   2.445   4.742  0.5205  1.0737  0.3858
15846TIP3   OH268952   2.385   6.314   3.872  0.0435 -0.0029 -0.6276
15846TIP3    H168953   2.302   6.353   3.842 -1.1191 -1.3761  0.7145
15846TIP3    H268954   2.432   6.293   3.791 -1.2035  0.2109 -1.4287
15847TIP3   OH268955   6.449   3.168   1.856 -0.1598  0.0647 -0.3734
15847TIP3    H168956   6.495   3.156   1.939  0.8784  0.4813 -0.8887
15847TIP3    H268957   6.442   3.263   1.846 -1.2488  0.0051 -0.2374
15848TIP3   OH268958   5.645   0.998   3.930 -0.0398  0.1113 -0.0511
15848TIP3    H168959   5.705   0.961   3.994  1.2540  0.0154 -1.2937
15848TIP3    H268960   5.697   1.064   3.883 -1.0977  0.5216 -0.6783
15849TIP3   OH268961   4.751   4.882   3.091  0.3643 -0.5283  0.3648
15849TIP3    H168962   4.803   4.867   3.012  0.6971  1.7295  0.1324
15849TIP3    H268963   4.779   4.967   3.123 -0.7888 -0.7834  2.1426
15850TIP3   OH268964   7.099   0.904   3.281 -0.6391 -0.0942  0.4011
15850TIP3    H168965   7.128   0.855   3.358 -0.1328  0.2594  0.4439
15850TIP3    H268966   7.010   0.875   3.266 -1.2463  0.8388  1.9608
15851TIP3   OH268967   6.468   4.643   4.413  0.0850 -0.2431  0.2134
15851TIP3    H168968   6.408   4.690   4.355 -1.2808 -1.4150  0.6591
15851TIP3    H268969   6.485   4.560   4.368 -2.1799 -1.7991  2.1575
15852TIP3   OH268970   5.818   5.884   3.027 -0.0663  0.2214 -0.1076
15852TIP3    H168971   5.755   5.834   2.975  1.1462  0.7686 -2.1480
15852TIP3    H268972   5.869   5.817   3.073  0.3087 -0.3603 -1.3580
15853TIP3   OH268973   1.266   2.195   1.134  0.0550 -0.0936 -0.0368
15853TIP3    H168974   1.329   2.229   1.071  0.6004  1.5282  1.3600
15853TIP3    H268975   1.320   2.159   1.204 -0.5279  2.9122  2.0253
15854TIP3   OH268976   2.831   3.793   2.050 -0.0171  0.1659  0.0214
15854TIP3    H168977   2.875   3.727   2.104 -0.9451  0.4265  1.1292
15854TIP3    H268978   2.902   3.838   2.004  0.5716 -2.2062 -1.4744
15855TIP3   OH268979   2.321   3.477   4.796 -0.1748 -0.0442 -0.2215
15855TIP3    H168980   2.404   3.526   4.794  1.1657 -2.1825  0.6819
15855TIP3    H268981   2.346   3.388   4.770 -1.6555 -1.4133  2.7414
15856TIP3   OH268982   1.006   1.555   2.377  0.3805  0.3154  0.0428
15856TIP3    H168983   0.932   1.494   2.369 -0.8501  2.0368 -2.0885
15856TIP3    H268984   1.083   1.500   2.369 -0.6834 -1.2685  0.3831
15857TIP3   OH268985   5.139   1.015   3.326  0.2259 -0.6491 -0.8771
15857TIP3    H168986   5.152   0.936   3.378  1.8063 -0.7754 -1.4292
15857TIP3    H268987   5.085   0.987   3.253  0.3493 -1.1082 -0.7968
15858TIP3   OH268988   6.383   2.879   0.405 -0.2039  0.2153  0.5325
15858TIP3    H168989   6.398   2.818   0.477 -0.5576  1.4196  1.6391
15858TIP3    H268990   6.458   2.866   0.347 -1.4550 -2.9292 -0.4492
15859TIP3   OH268991   6.454   1.868   4.648 -0.0321 -0.1255  0.3993
15859TIP3    H168992   6.515   1.932   4.612 -0.1870 -0.8289 -1.1950
15859TIP3    H268993   6.409   1.914   4.718  0.2315  1.3474 -0.3763
15860TIP3   OH268994   6.421   2.632   0.538  0.0521  0.0803  0.5369
15860TIP3    H168995   6.409   2.539   0.519 -2.2585  0.5979 -0.8068
15860TIP3    H268996   6.382   2.645   0.624  0.1408 -0.1588  0.6122
15861TIP3   OH268997   5.647   3.080  14.771  0.5804 -0.1523 -0.2117
15861TIP3    H168998   5.721   3.094  14.712  0.8716  0.8428  0.3777
15861TIP3    H268999   5.683   3.022  14.839  0.6896 -0.0202 -0.1587
15862TIP3   OH269000   0.634   3.966   1.418  0.7772 -0.7571 -0.2809
15862TIP3    H169001   0.580   3.970   1.497  0.5655  1.4799 -0.5004
15862TIP3    H269002   0.574   3.941   1.349 -0.5809  3.7980 -0.9323
15863TIP3   OH269003   3.628   0.531   2.880 -0.2864  0.2669  0.0044
15863TIP3    H169004   3.709   0.558   2.923 -0.9042  1.4177  0.4830
15863TIP3    H269005   3.569   0.606   2.891 -1.6187 -0.7897  0.2175
15864TIP3   OH269006   5.770   0.608   0.880  0.4323 -0.0634 -0.2754
15864TIP3    H169007   5.762   0.521   0.841 -0.0293  0.4232 -1.2708
15864TIP3    H269008   5.835   0.597   0.950  1.0409 -1.0000 -0.9798
15865TIP3   OH269009   4.644   2.279   0.967  0.1749 -0.5287 -0.5203
15865TIP3    H169010   4.692   2.301   1.047 -0.5747  1.4080 -0.5793
15865TIP3    H269011   4.712   2.255   0.904  0.7998 -1.5477  0.5200
15866TIP3   OH269012   6.896   6.910   4.705  0.2867  0.4365 -1.0612
15866TIP3    H169013   6.933   6.825   4.683  1.1806  0.4774  0.2162
15866TIP3    H269014   6.965   6.973   4.680  0.9257  0.5456  0.9118
15867TIP3   OH269015   1.612   0.666   5.359  0.7013 -0.0829  0.2479
15867TIP3    H169016   1.595   0.615   5.280  1.1258 -0.3936  0.3529
15867TIP3    H269017   1.635   0.600   5.425  1.4598  0.2508  0.3293
15868TIP3   OH269018   6.318   2.715   1.767 -1.0255 -0.0987  0.1983
15868TIP3    H169019   6.399   2.664   1.768 -0.0050  1.4634 -0.3773
15868TIP3    H269020   6.253   2.658   1.726 -0.3107 -1.4950  0.9916
15869TIP3   OH269021   5.779   4.901   1.139  0.7052 -0.2699 -0.5328
15869TIP3    H169022   5.865   4.905   1.182  0.2035  1.4220  0.3395
15869TIP3    H269023   5.774   4.812   1.104  1.3771 -1.5055  2.3887
15870TIP3   OH269024   3.965   6.335   3.734  0.1226 -0.0816  0.2896
15870TIP3    H169025   4.042   6.380   3.771 -0.7863  2.4566 -0.8033
15870TIP3    H269026   4.002   6.267   3.677  1.5417  0.1966  0.8625
15871TIP3   OH269027   4.835   3.288   4.893 -0.1790 -0.2022 -0.1480
15871TIP3    H169028   4.858   3.201   4.924 -0.9503 -0.5874 -0.6414
15871TIP3    H269029   4.827   3.341   4.973  1.5700 -0.2532  0.0771
15872TIP3   OH269030   0.877   3.592   2.371 -0.7841  0.0299 -0.1580
15872TIP3    H169031   0.928   3.647   2.430 -0.7991  1.0676 -1.1033
15872TIP3    H269032   0.795   3.640   2.356 -0.6836 -0.0995 -1.2009
15873TIP3   OH269033   1.330   6.224  14.677  0.0063 -0.1098  0.1581
15873TIP3    H169034   1.338   6.145  14.623  0.3437  1.1187 -1.6360
15873TIP3    H269035   1.240   6.222  14.710 -0.6284 -0.2284 -1.5232
15874TIP3   OH269036   3.573   2.505   1.953 -0.4408 -0.0952  0.4212
15874TIP3    H169037   3.659   2.539   1.977 -0.2940 -1.7148  2.2770
15874TIP3    H269038   3.591   2.438   1.887 -0.3505  0.0184  0.3297
15875TIP3   OH269039   0.741   2.468   0.117  0.2868  0.0017 -0.6314
15875TIP3    H169040   0.652   2.503   0.108  0.0872 -0.4760 -0.5267
15875TIP3    H269041   0.728   2.379   0.149  0.8122 -0.0044 -0.4364
15876TIP3   OH269042   1.116   5.514   4.916 -0.7509 -0.0368  0.1859
15876TIP3    H169043   1.176   5.479   4.851 -1.9665  0.7400 -1.3816
15876TIP3    H269044   1.030   5.509   4.874 -1.4279  1.3409  1.3872
15877TIP3   OH269045   2.861   6.107   3.773  0.0052 -0.7418 -0.0269
15877TIP3    H169046   2.871   6.128   3.866  0.9726 -4.5037  0.8050
15877TIP3    H269047   2.939   6.145   3.732 -0.8092  1.6171  0.4995
15878TIP3   OH269048   0.397   4.810   3.241  0.1758  0.4688 -0.3311
15878TIP3    H169049   0.357   4.896   3.237 -0.2654  0.2911  0.2643
15878TIP3    H269050   0.326   4.751   3.266  0.9346  0.2580  1.4344
15879TIP3   OH269051   0.213   0.426   5.518  1.0318  0.0897  0.4721
15879TIP3    H169052   0.277   0.456   5.454  0.6909  0.2731  0.2177
15879TIP3    H269053   0.215   0.491   5.588  1.1812  0.0527  0.5012
15880TIP3   OH269054   2.435   1.055   2.858 -0.4163 -0.0016  0.5099
15880TIP3    H169055   2.397   1.004   2.787  0.8318 -1.4751  0.8700
15880TIP3    H269056   2.477   0.990   2.915  2.1842  1.5052  0.3917
15881TIP3   OH269057   4.946   4.439   3.430  0.4119  0.0135 -0.7184
15881TIP3    H169058   4.992   4.523   3.432 -0.4626  0.4863  1.4896
15881TIP3    H269059   5.012   4.376   3.401  1.8745  1.0208  0.3248
15882TIP3   OH269060   6.163   2.839   5.064 -0.0881  0.5557 -0.0758
15882TIP3    H169061   6.238   2.788   5.033  0.4981  1.4485 -0.1467
15882TIP3    H269062   6.187   2.930   5.046 -1.7985  0.7566 -1.4003
15883TIP3   OH269063   2.023   3.298   1.743 -0.6103  0.3107  0.0480
15883TIP3    H169064   1.960   3.241   1.787  1.2949 -1.0617  1.0795
15883TIP3    H269065   2.007   3.384   1.781 -3.2172  0.4185 -1.2011
15884TIP3   OH269066   2.146   5.856   3.690  0.5039  0.0944  0.1993
15884TIP3    H169067   2.233   5.817   3.696  0.8783  0.9899  0.7082
15884TIP3    H269068   2.150   5.932   3.748 -0.5812  0.2122  0.1288
15885TIP3   OH269069   5.431   1.640   1.503 -0.0675 -0.1437 -0.1796
15885TIP3    H169070   5.419   1.692   1.582 -0.3880 -1.0793  0.3954
15885TIP3    H269071   5.398   1.696   1.432 -0.0090  0.5952  0.3692
15886TIP3   OH269072   6.501   4.799   2.477 -0.5314 -0.0335  0.6521
15886TIP3    H169073   6.529   4.857   2.548  0.9979  0.7801 -0.5822
15886TIP3    H269074   6.514   4.711   2.512  0.7497  0.3573  1.1993
15887TIP3   OH269075   6.291   4.904   2.826  0.4906  0.9614  0.1589
15887TIP3    H169076   6.365   4.845   2.816  0.6824  1.2310 -0.0164
15887TIP3    H269077   6.222   4.865   2.771 -0.4669 -0.8588  2.5290
15888TIP3   OH269078   5.730   7.103   4.279 -0.3006  0.7523 -0.3989
15888TIP3    H169079   5.699   7.022   4.238 -0.1084  0.7946 -0.6340
15888TIP3    H269080   5.733   7.166   4.206 -1.6703  1.3241  0.0199
15889TIP3   OH269081   2.541   1.233   5.204 -0.2922  0.1105 -0.3929
15889TIP3    H169082   2.505   1.217   5.117  0.7756 -0.4761 -0.7253
15889TIP3    H269083   2.481   1.188   5.263 -0.5672 -0.1657 -0.8814
15890TIP3   OH269084   6.467   2.405  14.304  0.2898 -0.5082  0.8869
15890TIP3    H169085   6.511   2.389  14.221 -1.8931  3.0432 -1.0684
15890TIP3    H269086   6.378   2.372  14.291  0.0714 -0.3505  1.9596
15891TIP3   OH269087   6.253   4.230   2.008  0.3480  0.0040 -0.1004
15891TIP3    H169088   6.252   4.285   1.930  0.6991  0.6748  0.3608
15891TIP3    H269089   6.341   4.194   2.011  0.5343  0.4808  0.3239
15892TIP3   OH269090   6.909   2.001   1.695  0.2851  0.2845  0.1973
15892TIP3    H169091   6.996   2.041   1.694 -0.0318  0.9776 -0.0002
15892TIP3    H269092   6.871   2.026   1.611  0.2757 -0.8782 -0.1584
15893TIP3   OH269093   2.408   1.693   0.422  0.5926  0.4229  0.0308
15893TIP3    H169094   2.459   1.760   0.467  0.6653 -0.1696  0.8532
15893TIP3    H269095   2.396   1.624   0.487 -0.5384  0.1774 -0.4220
15894TIP3   OH269096   6.727   6.504  14.524  0.4340  0.3727 -0.4226
15894TIP3    H169097   6.643   6.462  14.503  0.3113  0.5216 -0.2303
15894TIP3    H269098   6.778   6.496  14.444  0.7261 -0.9220 -0.1217
15895TIP3   OH269099   1.602   0.564   0.272 -0.0737 -0.3809  0.2160
15895TIP3    H169100   1.642   0.478   0.263 -0.2321 -0.6179  1.5697
15895TIP3    H269101   1.509   0.548   0.258 -0.2432 -0.6396  1.5596
15896TIP3   OH269102   5.075   4.021   2.087  0.5196 -0.3191  0.5578
15896TIP3    H169103   5.068   4.094   2.025  1.6124 -1.5509 -1.0282
15896TIP3    H269104   5.012   4.043   2.156 -1.3163  0.6856 -1.3742
15897TIP3   OH269105   0.047   7.085  15.516  0.2119 -0.5815 -0.2904
15897TIP3    H169106  -0.004   7.157  15.554 -0.9332 -2.2384  1.4027
15897TIP3    H269107   0.010   7.073  15.429  1.0478  1.4857 -0.9646
15898TIP3   OH269108   0.712   3.651   5.271  0.3097 -0.0541  0.2534
15898TIP3    H169109   0.807   3.643   5.275  0.2895 -0.4531 -0.0800
15898TIP3    H269110   0.680   3.589   5.336  0.2943  0.4787  0.7559
15899TIP3   OH269111   1.360   2.265   4.600  0.2327 -0.0683 -0.1238
15899TIP3    H169112   1.350   2.186   4.652  0.3162  0.7176  1.1181
15899TIP3    H269113   1.287   2.263   4.539 -0.6290 -0.3684  0.8953
15900TIP3   OH269114   5.832   0.768   3.859 -0.3885  0.4821  0.2316
15900TIP3    H169115   5.913   0.716   3.856 -1.0402 -0.6035  1.0747
15900TIP3    H269116   5.861   0.858   3.870  0.7180  0.1236  0.2638
15901TIP3   OH269117   0.493   0.738   2.854  0.3326  0.0681 -0.1155
15901TIP3    H169118   0.500   0.643   2.866  0.2409  0.3036  1.9430
15901TIP3    H269119   0.571   0.774   2.895 -0.0063  0.9418 -0.2131
15902TIP3   OH269120   1.617   5.455   5.320 -0.1147  0.4654  0.7317
15902TIP3    H169121   1.541   5.432   5.266  0.1625 -1.6366  1.1887
15902TIP3    H269122   1.579   5.490   5.401 -0.5964 -0.0889  0.7503
15903TIP3   OH269123   0.786   6.221   2.674 -0.1830 -0.1630  0.2385
15903TIP3    H169124   0.782   6.250   2.765  1.0297  3.0198 -0.6491
15903TIP3    H269125   0.877   6.191   2.663  0.4956  2.0716 -0.6005
15904TIP3   OH269126   0.574   1.326   3.783 -0.2952 -0.1047 -0.7533
15904TIP3    H169127   0.614   1.366   3.861  0.6514 -2.2513 -0.0754
15904TIP3    H269128   0.562   1.398   3.722 -2.4881  1.9072  1.9570
15905TIP3   OH269129   0.628   5.703   3.825  0.1570  0.2850  0.2447
15905TIP3    H169130   0.535   5.724   3.821  0.2180  0.8824  1.5828
15905TIP3    H269131   0.667   5.751   3.752 -0.7150 -0.7546 -0.9261
15906TIP3   OH269132   0.320   2.529   1.394 -0.2122  0.4733 -0.2402
15906TIP3    H169133   0.313   2.439   1.364  0.5348 -0.4842  2.3160
15906TIP3    H269134   0.410   2.536   1.427 -0.5136  1.9125  0.2925
15907TIP3   OH269135   5.287   5.217   2.079 -0.3084 -0.8757  0.5108
15907TIP3    H169136   5.302   5.193   1.987  0.1194  0.6704  0.1618
15907TIP3    H269137   5.364   5.183   2.125  1.3076  1.4960 -0.3025
15908TIP3   OH269138   2.896   6.630   3.901 -0.3199  0.1240  0.4304
15908TIP3    H169139   2.852   6.670   3.826 -1.3286 -1.2273  0.2828
15908TIP3    H269140   2.864   6.681   3.976  0.0267  0.9315  0.0371
15909TIP3   OH269141   6.295   5.996   1.409 -0.2168  0.3630  0.4955
15909TIP3    H169142   6.317   5.940   1.334 -0.2167  1.2606 -0.1842
15909TIP3    H269143   6.276   5.935   1.480 -2.0381 -0.5312 -0.7365
15910TIP3   OH269144   1.574   1.320   2.800 -0.1391 -0.6654  0.0533
15910TIP3    H169145   1.510   1.355   2.738  1.4764  0.0050 -1.2876
15910TIP3    H269146   1.658   1.329   2.755  1.3430  1.6002  3.0759
15911TIP3   OH269147   3.326   6.899   1.388 -0.4008  0.5783  0.1036
15911TIP3    H169148   3.316   6.988   1.355  0.2973  0.9451  0.8775
15911TIP3    H269149   3.366   6.909   1.474  0.9197 -0.5385 -0.3596
15912TIP3   OH269150   2.146   0.374   1.952  0.0608  0.0972 -0.7522
15912TIP3    H169151   2.136   0.386   2.047  0.8181 -0.3836 -0.6104
15912TIP3    H269152   2.228   0.418   1.931  0.1796 -0.2910 -1.0953
15913TIP3   OH269153   6.546   4.988   2.227  0.3448  0.2261 -0.0294
15913TIP3    H169154   6.495   4.961   2.150  0.1413  1.4369 -0.3348
15913TIP3    H269155   6.526   4.923   2.294 -0.0188 -0.4482 -0.7898
15914TIP3   OH269156   1.692   5.036   1.749 -0.1217  0.4643 -0.2313
15914TIP3    H169157   1.674   4.950   1.710  0.4117  0.2245  0.0488
15914TIP3    H269158   1.772   5.065   1.706 -0.0404  0.6100  0.0184
15915TIP3   OH269159   5.662   0.359   3.575 -0.2197  0.0021  0.4216
15915TIP3    H169160   5.595   0.409   3.621 -1.1060 -1.1476  0.4201
15915TIP3    H269161   5.646   0.376   3.482  1.3921  2.0981  0.4886
15916TIP3   OH269162   3.992   4.734   1.418 -0.3066 -0.9425  0.2500
15916TIP3    H169163   3.936   4.808   1.391  0.2468 -0.0662  1.4450
15916TIP3    H269164   3.935   4.680   1.472 -0.6212 -1.2232 -0.3555
15917TIP3   OH269165   4.870   1.470   3.401 -0.1656 -0.0449  0.3464
15917TIP3    H169166   4.891   1.379   3.425  1.0910 -0.0786 -0.8457
15917TIP3    H269167   4.910   1.522   3.471 -0.8075 -0.4018  0.9852
15918TIP3   OH269168   1.259   2.926   4.965  0.8898 -0.1093  0.1923
15918TIP3    H169169   1.184   2.985   4.976  1.5463  0.6585  0.5667
15918TIP3    H269170   1.259   2.905   4.871  0.4484  0.2109  0.1212
15919TIP3   OH269171   6.427   4.137  13.102 -0.4908  0.8754  0.0164
15919TIP3    H169172   6.421   4.157  13.009 -0.8482  0.3078 -0.0868
15919TIP3    H269173   6.350   4.179  13.140 -1.4207 -0.5624 -0.2481
15920TIP3   OH269174   1.354   6.884   3.851 -0.2669  0.8148 -0.0913
15920TIP3    H169175   1.328   6.962   3.900  1.6589  0.5152  1.5134
15920TIP3    H269176   1.446   6.900   3.830  0.2992 -1.2469  0.7316
15921TIP3   OH269177   2.059   7.064   3.578 -0.2327  0.3879  0.2860
15921TIP3    H169178   2.094   6.977   3.557 -1.1259  0.7037 -2.8209
15921TIP3    H269179   2.028   7.056   3.668 -0.6793 -2.6524 -0.0712
15922TIP3   OH269180   7.135   6.007   1.597 -0.0179 -0.8180 -0.3275
15922TIP3    H169181   7.169   5.948   1.664 -1.3756 -1.7015 -0.3759
15922TIP3    H269182   7.160   6.094   1.626  0.0312 -1.2472  0.9644
15923TIP3   OH269183   0.754   0.263   4.669  0.8581  0.0620 -0.3473
15923TIP3    H169184   0.843   0.229   4.672  1.3965  1.3504 -1.2546
15923TIP3    H269185   0.762   0.347   4.623 -1.0866 -0.6732 -2.1018
15924TIP3   OH269186   2.218   3.123   2.202  0.3570 -0.7131  0.1739
15924TIP3    H169187   2.239   3.186   2.133 -1.2729  1.4344  1.6031
15924TIP3    H269188   2.143   3.074   2.168 -0.7442  0.6616  0.5705
15925TIP3   OH269189   0.389   3.084   3.699  0.1408  0.2144 -0.4861
15925TIP3    H169190   0.376   3.060   3.791  0.8602  1.8703  0.0801
15925TIP3    H269191   0.319   3.040   3.652 -1.1684  0.5825  1.0729
15926TIP3   OH269192   0.556   0.866   4.607  0.0860  0.1000 -0.8065
15926TIP3    H169193   0.511   0.811   4.672  1.8248 -1.4020 -0.8059
15926TIP3    H269194   0.620   0.915   4.659  0.1321  0.3629 -1.1154
15927TIP3   OH269195   1.392   3.048   1.804  0.2854  0.1666  0.5362
15927TIP3    H169196   1.330   3.099   1.855  0.3711 -0.4666  1.2760
15927TIP3    H269197   1.358   2.959   1.807  1.2531 -0.1923  0.9758
15928TIP3   OH269198   2.356   2.656  15.246 -0.2821  0.3234 -0.4223
15928TIP3    H169199   2.272   2.697  15.267  0.4016  1.0151  0.9959
15928TIP3    H269200   2.349   2.568  15.282 -0.1299  0.6173  0.3275
15929TIP3   OH269201   4.598   1.689   3.792 -0.1004 -0.0463  0.7480
15929TIP3    H169202   4.673   1.650   3.836  1.4167 -0.5595 -2.1709
15929TIP3    H269203   4.605   1.783   3.811  2.0926  0.1043 -0.5628
15930TIP3   OH269204   3.114   1.777   2.921 -0.0605  0.6847  0.6435
15930TIP3    H169205   3.083   1.809   2.836  0.0640  1.3414  0.8450
15930TIP3    H269206   3.035   1.745   2.965 -0.1699  0.6244  0.4012
15931TIP3   OH269207   0.019   1.086   1.297 -0.1246  0.1725  0.1657
15931TIP3    H169208  -0.064   1.062   1.255  0.4458  0.3720 -1.1157
15931TIP3    H269209   0.012   1.180   1.311  0.8640  0.6555 -2.2690
15932TIP3   OH269210   2.474   2.189   2.841 -0.6248 -0.0243 -0.1434
15932TIP3    H169211   2.559   2.193   2.797 -1.3397 -0.7958 -1.6632
15932TIP3    H269212   2.450   2.281   2.855  1.3294  0.2011  2.1188
15933TIP3   OH269213   6.809   1.447   3.843 -0.6059  0.1692 -0.0705
15933TIP3    H169214   6.749   1.390   3.891  1.3811 -2.3357 -0.4599
15933TIP3    H269215   6.796   1.424   3.751  1.7686 -1.3138 -0.0835
15934TIP3   OH269216   0.461   6.232   2.040  0.3621 -0.0385 -0.0983
15934TIP3    H169217   0.420   6.210   1.956 -0.9363  2.4134 -0.1691
15934TIP3    H269218   0.550   6.261   2.016  1.7399 -3.9897 -0.0878
15935TIP3   OH269219   3.181   2.610   2.346  0.0768  0.5890 -0.0064
15935TIP3    H169220   3.133   2.613   2.263  0.9646  0.7969 -0.5209
15935TIP3    H269221   3.265   2.652   2.326  0.0987  1.0898  1.1303
15936TIP3   OH269222   7.041   7.031  15.317 -0.0850 -0.1338 -0.3527
15936TIP3    H169223   7.058   7.086  15.241 -0.2168 -0.3168 -0.5142
15936TIP3    H269224   6.953   6.996  15.303 -0.2808  0.1666  0.0883
15937TIP3   OH269225   0.099   3.807   2.506 -0.4478 -0.0571  0.1303
15937TIP3    H169226   0.137   3.817   2.419 -1.2671  1.9833 -0.0214
15937TIP3    H269227   0.168   3.839   2.565 -0.9343  1.1937  0.0312
15938TIP3   OH269228   0.060   5.465   3.452 -0.1576 -0.8728  0.0415
15938TIP3    H169229   0.041   5.545   3.501 -0.5504 -0.9254 -0.0217
15938TIP3    H269230   0.115   5.494   3.379 -1.0373 -0.5162 -0.4845
15939TIP3   OH269231   1.907   6.471   2.487  0.5203 -0.4326  0.2252
15939TIP3    H169232   2.002   6.468   2.500  0.9829  0.7062 -2.4405
15939TIP3    H269233   1.890   6.403   2.422 -0.8349 -2.1143  2.2835
15940TIP3   OH269234   2.665   0.094   0.229  0.1609  0.2606  0.4440
15940TIP3    H169235   2.618   0.042   0.295 -1.1123  0.0175 -0.6396
15940TIP3    H269236   2.699   0.169   0.277  1.9691 -1.5079  2.0351
15941TIP3   OH269237   1.576   3.947   3.933  0.1589  0.2799 -0.3433
15941TIP3    H169238   1.495   3.924   3.886  0.2893 -1.4365  0.2281
15941TIP3    H269239   1.646   3.906   3.882  0.6255  1.2972 -0.5303
15942TIP3   OH269240   1.592   2.777   2.794 -0.5930 -0.3174  0.1661
15942TIP3    H169241   1.553   2.789   2.881 -0.5022 -1.3560  0.3527
15942TIP3    H269242   1.611   2.683   2.788  1.4336  0.0807 -0.1090
15943TIP3   OH269243   1.803   7.033   4.242  0.3594  0.2087  0.8581
15943TIP3    H169244   1.842   7.120   4.243 -0.1181  0.4257  1.8293
15943TIP3    H269245   1.714   7.047   4.210 -0.0474  0.2387  1.9630
15944TIP3   OH269246   0.864   1.662   3.665  0.0020  0.2332 -0.4709
15944TIP3    H169247   0.812   1.583   3.649  2.5051 -2.0140  1.9002
15944TIP3    H269248   0.840   1.689   3.753  0.1181  1.3725 -0.7850
15945TIP3   OH269249   0.718   3.463   2.884 -0.0253 -0.0216 -0.0025
15945TIP3    H169250   0.788   3.424   2.831  0.9761  1.0455  0.5126
15945TIP3    H269251   0.758   3.540   2.923 -1.1767 -0.0235  1.2051
15946TIP3   OH269252   0.624   6.804   0.694  0.2212 -0.3456  0.2420
15946TIP3    H169253   0.577   6.728   0.727 -0.6793  0.5515  1.0753
15946TIP3    H269254   0.640   6.785   0.601 -1.1963 -0.9571  0.1149
15947TIP3   OH269255   1.204   6.650  14.710 -0.2459 -0.2844 -0.0081
15947TIP3    H169256   1.175   6.560  14.694 -0.7197 -0.5141  1.9912
15947TIP3    H269257   1.189   6.695  14.627 -0.7737 -1.8552 -0.7851
15948TIP3   OH269258   1.259   1.380   2.384 -0.4716  0.2792  0.3322
15948TIP3    H169259   1.347   1.368   2.419 -1.4001  0.5062  2.8734
15948TIP3    H269260   1.272   1.406   2.293  2.0907  0.8587  0.8435
15949TIP3   OH269261   5.682   4.196   4.563 -0.6089 -0.2054 -0.0519
15949TIP3    H169262   5.668   4.128   4.497  1.2020 -1.1821  0.5336
15949TIP3    H269263   5.777   4.199   4.575 -0.5943  2.9115 -0.5424
15950TIP3   OH269264   1.639   7.043   4.610 -0.2449  0.1644 -0.4865
15950TIP3    H169265   1.717   6.988   4.599  0.4721  0.8625  0.9896
15950TIP3    H269266   1.662   7.126   4.569 -0.6978 -0.0576 -1.1971
15951TIP3   OH269267   2.413   5.472   1.967 -0.2759  0.0312 -0.1966
15951TIP3    H169268   2.323   5.491   1.993 -0.4148 -2.6644  1.4674
15951TIP3    H269269   2.464   5.482   2.047  0.5674 -0.4828 -0.6622
15952TIP3   OH269270   1.421   1.614   2.785  0.2923 -0.2440  0.4483
15952TIP3    H169271   1.337   1.619   2.739  1.2474 -0.7259 -1.4061
15952TIP3    H269272   1.478   1.675   2.738  1.2641 -0.6338  1.0989
15953TIP3   OH269273   6.330   5.667   4.118  0.5028  0.4373  0.3694
15953TIP3    H169274   6.373   5.690   4.201  1.8576  1.7935 -0.6976
15953TIP3    H269275   6.311   5.574   4.127 -0.3956  0.7934  2.6704
15954TIP3   OH269276   0.219   0.276  15.037 -0.3957  1.0361 -0.6013
15954TIP3    H169277   0.279   0.267  14.962  0.4182  2.5211 -0.1574
15954TIP3    H269278   0.274   0.260  15.113 -0.6929  1.8633 -0.2146
15955TIP3   OH269279   1.581   1.465   4.420  0.0179  0.0843 -0.5365
15955TIP3    H169280   1.597   1.438   4.510 -0.8969  0.4238 -0.2693
15955TIP3    H269281   1.511   1.408   4.390  0.4327 -0.1407 -1.0961
15956TIP3   OH269282   2.377   3.097   0.536 -0.2864  0.6426  0.1221
15956TIP3    H169283   2.406   3.143   0.615 -0.1425  1.8304 -0.6203
15956TIP3    H269284   2.452   3.098   0.477  0.8162 -3.3580  1.2708
15957TIP3   OH269285   5.290   4.595   0.785  0.2653  0.0009  0.3045
15957TIP3    H169286   5.281   4.512   0.737  0.9544 -0.5807  1.1653
15957TIP3    H269287   5.372   4.632   0.754  0.3345 -0.0038  0.4867
15958TIP3   OH269288   6.056   6.432   1.714  0.8737 -0.0459 -0.3308
15958TIP3    H169289   6.052   6.428   1.809  0.6802  1.7555 -0.2518
15958TIP3    H269290   6.037   6.343   1.685 -2.0907  0.0544  1.2014
15959TIP3   OH269291   0.371   3.054   1.457 -0.1282  0.1614  0.7975
15959TIP3    H169292   0.336   2.974   1.418  1.6342 -0.9360  1.3733
15959TIP3    H269293   0.465   3.049   1.440 -0.1185  2.6952 -0.1613
15960TIP3   OH269294   2.892   7.152   4.702  0.1140 -0.1453  0.9558
15960TIP3    H169295   2.804   7.165   4.668  1.0511  0.5658 -1.2571
15960TIP3    H269296   2.899   7.058   4.717 -1.2116 -0.1384  1.7540
15961TIP3   OH269297   1.858   1.166   4.315  0.1117 -0.2273  0.7784
15961TIP3    H169298   1.937   1.113   4.314  0.2071 -0.1307  2.5146
15961TIP3    H269299   1.786   1.103   4.317  0.2170 -0.2921  2.4770
15962TIP3   OH269300   5.434   6.989   3.371  0.3564  0.1044 -0.8185
15962TIP3    H169301   5.380   6.962   3.446  1.9357 -2.9689 -0.7005
15962TIP3    H269302   5.498   7.049   3.408  1.8156 -2.2390  0.5788
15963TIP3   OH269303   6.555   1.379   2.163 -0.9477  0.1853  0.2112
15963TIP3    H169304   6.554   1.474   2.168 -1.5933  0.1237  1.3160
15963TIP3    H269305   6.482   1.357   2.105 -0.8377  0.3527  0.0076
15964TIP3   OH269306   6.291   2.762   3.534  0.5859 -0.0697  0.1571
15964TIP3    H169307   6.342   2.762   3.454  0.2338 -0.3776 -0.0707
15964TIP3    H269308   6.352   2.791   3.602  1.4541 -1.8254  0.1439
15965TIP3   OH269309   1.597   4.715   0.030 -0.0088  0.0021 -0.7117
15965TIP3    H169310   1.573   4.630  -0.006  1.5163 -0.5449 -0.4671
15965TIP3    H269311   1.525   4.773   0.006 -1.0739 -1.3743 -0.8378
15966TIP3   OH269312   0.500   5.244   2.714  0.1064  0.3175  0.4915
15966TIP3    H169313   0.468   5.315   2.659 -1.1277  0.2600  1.1046
15966TIP3    H269314   0.589   5.227   2.683  0.3303  1.9686  0.1969
15967TIP3   OH269315   0.684   3.798  15.060  0.7030 -0.3028  0.1542
15967TIP3    H169316   0.671   3.793  15.154  0.7709 -1.7687  0.0965
15967TIP3    H269317   0.721   3.714  15.036  0.3162 -0.0953 -1.2392
15968TIP3   OH269318   2.803   2.505   3.612  0.8481 -0.1009 -0.2888
15968TIP3    H169319   2.717   2.511   3.653  1.3107  2.4306  0.4241
15968TIP3    H269320   2.807   2.417   3.576 -2.3643 -0.0099 -1.0353
15969TIP3   OH269321   5.401   5.093   3.332 -0.2473  0.0112 -0.4930
15969TIP3    H169322   5.445   5.075   3.249  2.0531 -2.0504  1.0870
15969TIP3    H269323   5.421   5.184   3.351  2.6681 -0.6344 -0.2541
15970TIP3   OH269324   5.452   4.820   4.528 -0.0934  0.1488 -0.4885
15970TIP3    H169325   5.415   4.776   4.605 -0.6342 -0.1572 -0.9175
15970TIP3    H269326   5.481   4.748   4.471  0.8515  0.3823 -0.3057
15971TIP3   OH269327   0.189   4.121   4.886  0.2704  0.2679  0.1254
15971TIP3    H169328   0.154   4.144   4.972  0.4801  1.0532  0.0079
15971TIP3    H269329   0.273   4.078   4.906  0.5476  0.8810  0.2985
15972TIP3   OH269330   1.314   0.190   3.839 -0.2390 -0.2305 -0.4815
15972TIP3    H169331   1.349   0.234   3.916 -1.1743 -2.7014  1.3951
15972TIP3    H269332   1.389   0.182   3.780  0.5975  1.2472  0.3445
15973TIP3   OH269333   1.202   5.439   4.292  0.2125 -0.0048  0.1607
15973TIP3    H169334   1.127   5.454   4.234  0.3919  1.1002  0.1886
15973TIP3    H269335   1.198   5.346   4.314  0.0317 -0.3887 -1.4529
15974TIP3   OH269336   3.048   2.643   2.096 -0.3091 -0.3576 -0.3832
15974TIP3    H169337   3.016   2.711   2.038  0.0824 -0.2112 -0.4275
15974TIP3    H269338   3.131   2.616   2.058  0.3346  0.2989  0.5587
15975TIP3   OH269339   0.677   1.064   3.160  0.0405  0.2204  0.1420
15975TIP3    H169340   0.700   1.153   3.186 -0.4542  0.1899  0.6768
15975TIP3    H269341   0.757   1.013   3.174  0.2867  0.5520 -0.0520
15976TIP3   OH269342   5.632   2.451   0.513  0.5014  0.2252  0.3716
15976TIP3    H169343   5.582   2.432   0.434  0.2050 -0.1875  0.6557
15976TIP3    H269344   5.689   2.524   0.489  1.2972 -0.7150 -0.5811
15977TIP3   OH269345   1.909   6.313   2.265  0.6087 -0.1384  0.0006
15977TIP3    H169346   1.834   6.254   2.263  0.2380  0.3344  0.1107
15977TIP3    H269347   1.976   6.267   2.214  0.0220 -0.2423 -0.6841
15978TIP3   OH269348   1.667   5.839   2.894 -0.2678 -0.3705  0.2790
15978TIP3    H169349   1.612   5.768   2.859  1.3366 -2.2039  1.3595
15978TIP3    H269350   1.742   5.842   2.835  0.3552 -0.5407  1.0613
15979TIP3   OH269351   3.770   0.676   4.589  0.0571 -0.0487  0.0428
15979TIP3    H169352   3.784   0.770   4.605 -1.1755  0.2062 -0.3074
15979TIP3    H269353   3.827   0.632   4.653 -0.5868  0.9448  1.3272
15980TIP3   OH269354   6.604   0.177   2.091  0.2833 -0.4553  0.4306
15980TIP3    H169355   6.619   0.193   1.998 -1.5898 -1.9898 -0.1799
15980TIP3    H269356   6.569   0.259   2.124  0.9633  0.1042 -0.2243
15981TIP3   OH269357   2.008   5.295   2.924 -0.0679  0.4099 -0.0421
15981TIP3    H169358   2.066   5.225   2.892 -0.3494  0.3631 -0.4543
15981TIP3    H269359   1.936   5.296   2.861 -1.8698 -1.3012  1.9192
15982TIP3   OH269360   6.268   6.973   1.425  0.1934 -0.2376 -0.5822
15982TIP3    H169361   6.332   7.026   1.378 -1.3075  2.4228  0.3095
15982TIP3    H269362   6.223   7.034   1.483 -0.8504 -2.6876  1.2946
15983TIP3   OH269363   6.901   3.553   4.555 -0.4128  0.4491  0.4042
15983TIP3    H169364   6.886   3.642   4.587 -1.7430  0.2703  0.3161
15983TIP3    H269365   6.891   3.560   4.460 -1.6964 -0.0123  0.5007
15984TIP3   OH269366   2.998   7.069   3.710  0.4901  0.4106  0.1057
15984TIP3    H169367   2.911   7.099   3.739  0.9119 -0.0340  1.9134
15984TIP3    H269368   2.980   7.001   3.645 -0.5169  0.2277  0.5649
15985TIP3   OH269369   3.330   5.062   3.762  0.2803  0.2734  0.4874
15985TIP3    H169370   3.238   5.034   3.768  0.6873 -1.4559 -0.7088
15985TIP3    H269371   3.343   5.079   3.669  0.5760  2.7551  0.9518
15986TIP3   OH269372   1.429   6.198   3.124  0.2434 -0.2672  0.2363
15986TIP3    H169373   1.349   6.224   3.079  0.0668 -1.5286 -0.1750
15986TIP3    H269374   1.418   6.105   3.144  0.9848 -0.1091  1.4832
15987TIP3   OH269375   1.395   0.636   6.420 -0.2200  0.5085 -0.0331
15987TIP3    H169376   1.300   0.647   6.407 -0.0187  1.5560 -0.6729
15987TIP3    H269377   1.412   0.546   6.392 -0.9595  0.4566 -0.3351
15988TIP3   OH269378   4.836   5.825   3.310 -0.3500  0.2438 -0.2513
15988TIP3    H169379   4.799   5.761   3.250 -0.4462 -0.0424  0.1102
15988TIP3    H269380   4.761   5.874   3.343 -0.4629 -0.6114  0.7980
15989TIP3   OH269381   2.171   4.039  15.079  0.3869 -0.6737 -0.0752
15989TIP3    H169382   2.217   4.057  14.997  1.4799 -0.1643  0.6467
15989TIP3    H269383   2.216   3.963  15.116 -1.5529 -2.3580 -1.0457
15990TIP3   OH269384   0.005   0.096  13.592 -0.2529 -0.3452  0.5852
15990TIP3    H169385   0.024   0.028  13.528 -0.6693 -1.0113  1.1662
15990TIP3    H269386  -0.082   0.128  13.567  0.4265  0.7910 -0.3923
15991TIP3   OH269387   3.154   4.678   4.070 -0.2017 -0.1852  0.2180
15991TIP3    H169388   3.099   4.723   4.006  2.8185  0.7263 -1.8668
15991TIP3    H269389   3.149   4.731   4.149  0.1522  1.6249 -0.9508
15992TIP3   OH269390   3.064   5.526   4.834 -0.6506 -0.0094 -0.2139
15992TIP3    H169391   3.030   5.485   4.914  1.7264 -2.3628 -0.3450
15992TIP3    H269392   3.022   5.477   4.763 -2.7718  2.0913 -0.4789
15993TIP3   OH269393   4.727   6.307   3.610 -0.4873 -0.1586  0.0671
15993TIP3    H169394   4.665   6.273   3.674 -1.4165  1.0201 -0.1907
15993TIP3    H269395   4.696   6.273   3.526 -0.2080 -0.3574  0.0398
15994TIP3   OH269396   0.497   6.706  14.009  0.7633  0.3507  0.0148
15994TIP3    H169397   0.437   6.651  13.958  1.1865 -0.3819  0.2996
15994TIP3    H269398   0.584   6.678  13.982  0.9929  0.0691  1.0120
15995TIP3   OH269399   3.372   5.307  12.835 -0.2671 -0.5879  0.2221
15995TIP3    H169400   3.348   5.396  12.809 -2.9041 -1.1040  0.7175
15995TIP3    H269401   3.311   5.250  12.787 -0.3627 -1.9569  1.8898
15996TIP3   OH269402   3.997   0.421   5.356 -0.2279  0.3602 -0.2158
15996TIP3    H169403   4.070   0.386   5.304  0.0837  0.4166  0.1813
15996TIP3    H269404   4.003   0.374   5.440 -0.9615 -0.0126 -0.3658
15997TIP3   OH269405   2.341   6.593   5.118 -0.3281 -0.2817 -0.4624
15997TIP3    H169406   2.292   6.631   5.191 -0.6300 -0.7298 -0.4242
15997TIP3    H269407   2.302   6.633   5.040 -1.8194 -1.7794 -0.5194
15998TIP3   OH269408   1.222   5.331   0.381  0.0458  0.4435 -0.3094
15998TIP3    H169409   1.188   5.273   0.450 -0.7898  2.0842  0.6764
15998TIP3    H269410   1.189   5.418   0.404  1.3117  1.3274 -1.7646
15999TIP3   OH269411   4.543   1.416   2.712  0.2259  0.1284 -0.5533
15999TIP3    H169412   4.627   1.458   2.697  1.2485 -1.6497  0.0624
15999TIP3    H269413   4.565   1.334   2.755 -1.8732 -0.0724  0.1701
16000TIP3   OH269414   6.829   2.265   2.549  0.5857 -0.5731  0.4524
16000TIP3    H169415   6.873   2.193   2.593  1.5793  0.5800  1.4060
16000TIP3    H269416   6.835   2.338   2.611 -2.0684 -0.1875  0.3232
16001TIP3   OH269417   5.770   4.929   0.123  0.6364  0.2365  0.1824
16001TIP3    H169418   5.780   4.993   0.193 -0.6047  1.0910 -0.3855
16001TIP3    H269419   5.849   4.939   0.070  0.6388  1.0386  0.3199
16002TIP3   OH269420   4.949   0.361   1.755 -0.3622 -0.3372 -0.2544
16002TIP3    H169421   4.867   0.406   1.779 -0.6687 -1.1093  0.1674
16002TIP3    H269422   4.997   0.353   1.837 -1.2338 -2.6244  0.0753
16003TIP3   OH269423   4.721   0.056   5.628  0.0423  0.0638  0.0538
16003TIP3    H169424   4.719  -0.014   5.562  0.8310 -0.0697  0.1738
16003TIP3    H269425   4.720   0.009   5.711 -0.4122  0.2240  0.1437
16004TIP3   OH269426   1.994   5.810   4.956  0.5508  0.3219  0.0285
16004TIP3    H169427   1.926   5.764   5.005  0.2594  0.7581  0.0314
16004TIP3    H269428   2.074   5.760   4.974  0.6355  1.0387  1.7472
16005TIP3   OH269429   5.170   1.176  11.995 -0.1570  0.5177  0.3893
16005TIP3    H169430   5.145   1.114  11.926 -0.1135  0.1126  0.7287
16005TIP3    H269431   5.248   1.137  12.035  1.0300  1.7776 -0.6648
16006TIP3   OH269432   2.791   6.496   0.796  0.2173 -0.1042  0.4011
16006TIP3    H169433   2.750   6.415   0.827  0.4082 -0.5964 -0.6234
16006TIP3    H269434   2.885   6.482   0.810  0.5811 -1.4346 -2.8277
16007TIP3   OH269435   1.913   2.986   2.660 -0.6247 -0.0699  0.4182
16007TIP3    H169436   1.969   2.912   2.637 -1.0875 -0.3660  0.2285
16007TIP3    H269437   1.944   3.058   2.605  1.1203  0.4393  2.0222
16008TIP3   OH269438   2.513   6.423   3.439  0.0802 -0.3361  0.0077
16008TIP3    H169439   2.462   6.462   3.368 -1.0122 -0.1379  0.8743
16008TIP3    H269440   2.455   6.354   3.473 -0.1942  0.8435  1.9440
16009TIP3   OH269441   2.442   3.443   2.739 -0.0276 -0.4007  0.9516
16009TIP3    H169442   2.357   3.488   2.740 -0.1076 -0.4735 -0.8550
16009TIP3    H269443   2.420   3.351   2.725  0.3554 -0.4249  0.5051
16010TIP3   OH269444   3.755   0.580  14.141 -0.3968  0.3520  1.1274
16010TIP3    H169445   3.759   0.502  14.196 -3.0633  0.1586  1.0849
16010TIP3    H269446   3.846   0.609  14.134  0.4759 -2.0426  2.1424
16011TIP3   OH269447   0.798   7.135   0.395 -0.6751  0.5604  0.2312
16011TIP3    H169448   0.860   7.063   0.381 -0.7271  0.9640 -2.1468
16011TIP3    H269449   0.842   7.191   0.459  0.7875  0.0877 -0.3299
16012TIP3   OH269450   1.762   1.158   0.632 -0.1149 -0.3615 -0.8220
16012TIP3    H169451   1.792   1.090   0.692 -1.3725 -0.1843  0.0232
16012TIP3    H269452   1.745   1.234   0.689 -1.3767 -0.2135 -1.3848
16013TIP3   OH269453   0.404   4.419   4.998 -0.0929  0.2111 -0.0088
16013TIP3    H169454   0.404   4.490   4.933 -1.5435 -0.4372 -0.7525
16013TIP3    H269455   0.475   4.362   4.971 -0.1871  0.3586 -0.5777
16014TIP3   OH269456   6.962   5.008  13.565  0.0927 -0.2895  0.2404
16014TIP3    H169457   7.004   4.961  13.637  0.4671 -1.1608 -0.5312
16014TIP3    H269458   7.013   5.088  13.556  0.2706 -0.3499  0.7024
16015TIP3   OH269459   2.060   5.892   3.411 -0.2924 -0.0554 -0.0346
16015TIP3    H169460   2.080   5.904   3.504 -1.0414 -1.2650  0.2870
16015TIP3    H269461   2.021   5.805   3.406  1.2579 -0.6761 -1.7386
16016TIP3   OH269462   6.519   1.763   3.887 -0.1464  0.3450  0.0623
16016TIP3    H169463   6.516   1.829   3.956  0.1636  0.1748  0.2380
16016TIP3    H269464   6.482   1.807   3.810  0.6884  0.9376 -0.0021
16017TIP3   OH269465   6.844   0.789  15.213  0.7569 -0.2256  0.1316
16017TIP3    H169466   6.895   0.870  15.202  0.9895 -0.1412  1.6653
16017TIP3    H269467   6.798   0.778  15.130  3.0623 -0.1426 -1.2139
16018TIP3   OH269468   6.420   3.141   4.369  0.8013 -0.4426  0.1074
16018TIP3    H169469   6.445   3.229   4.397 -1.8887  0.4956 -0.2704
16018TIP3    H269470   6.438   3.085   4.445  2.2656  0.4695  0.4492
16019TIP3   OH269471   1.611   6.913   2.427 -0.4261 -0.2456 -0.2889
16019TIP3    H169472   1.593   6.920   2.521  0.6317 -1.5876  0.0237
16019TIP3    H269473   1.672   6.840   2.419 -1.4307 -0.9097 -2.1537
16020TIP3   OH269474   6.129   6.468   4.801 -0.1836  0.1826 -0.3752
16020TIP3    H169475   6.067   6.510   4.860 -1.3728 -1.3524 -0.5371
16020TIP3    H269476   6.119   6.515   4.718 -1.9570 -0.8218 -0.7337
16021TIP3   OH269477   3.142   1.349   0.781  0.6317 -0.7637 -0.4435
16021TIP3    H169478   3.221   1.400   0.761 -0.0729 -0.8134 -3.5664
16021TIP3    H269479   3.162   1.260   0.752  0.6681 -1.6037  2.0249
16022TIP3   OH269480   6.784   1.148   2.951 -0.1122  0.0563 -0.0951
16022TIP3    H169481   6.775   1.239   2.924 -1.2649 -0.0660 -0.1404
16022TIP3    H269482   6.876   1.127   2.933 -0.4489  0.4526 -2.4206
16023TIP3   OH269483   3.236   6.092   4.071 -0.9996 -0.1943 -0.0765
16023TIP3    H169484   3.319   6.060   4.104 -0.7547 -0.2478 -0.7337
16023TIP3    H269485   3.234   6.064   3.979 -1.4941  0.2862 -0.2181
16024TIP3   OH269486   0.558   5.777   2.624 -0.7249 -0.5165 -0.5019
16024TIP3    H169487   0.488   5.805   2.565 -0.2920  1.4046 -0.1587
16024TIP3    H269488   0.630   5.838   2.606  1.0440 -2.7181 -1.1576
16025TIP3   OH269489   6.857   0.861   3.690 -0.1575  0.6935  0.3230
16025TIP3    H169490   6.796   0.787   3.689 -0.3443  0.8548 -1.0716
16025TIP3    H269491   6.940   0.823   3.721 -1.1349  0.6405  2.9989
16026TIP3   OH269492   2.628   0.620   4.100 -0.3281 -0.0053 -0.1997
16026TIP3    H169493   2.597   0.606   4.189  0.8455  1.5685  0.4850
16026TIP3    H269494   2.718   0.587   4.100 -0.2270  0.2541 -0.7210
16027TIP3   OH269495   0.903   0.144   2.905 -0.2563 -0.0295 -0.6424
16027TIP3    H169496   0.914   0.169   2.814 -1.9632  2.2723 -0.2537
16027TIP3    H269497   0.992   0.142   2.940  0.3149  0.2471 -2.0386
16028TIP3   OH269498   1.592   6.397   5.144  0.4968 -0.1305 -0.9103
16028TIP3    H169499   1.626   6.330   5.203 -2.0473 -1.4329 -0.8948
16028TIP3    H269500   1.564   6.468   5.202  2.2659  0.5508 -0.8674
16029TIP3   OH269501   3.703   6.898   3.559  0.1402  0.2091  0.6305
16029TIP3    H169502   3.793   6.920   3.584  0.2963 -0.0602  0.3081
16029TIP3    H269503   3.700   6.803   3.560 -0.7781  0.2370  2.8575
16030TIP3   OH269504   1.453   5.825   1.381 -0.7541  0.6257 -0.4555
16030TIP3    H169505   1.517   5.885   1.341 -0.4247 -0.5785 -1.7953
16030TIP3    H269506   1.382   5.882   1.411  0.0256  1.7873 -0.7662
16031TIP3   OH269507   4.639   6.634   4.663 -0.0758 -0.7868 -0.4090
16031TIP3    H169508   4.613   6.620   4.754 -0.2833 -0.6224 -0.4430
16031TIP3    H269509   4.561   6.672   4.621  0.5047  0.5301 -0.3063
16032TIP3   OH269510   1.171   6.141   0.799  0.7048  0.2920  0.0599
16032TIP3    H169511   1.184   6.135   0.704 -0.0098 -0.6167  0.0151
16032TIP3    H269512   1.179   6.051   0.830 -0.7364  0.3589  0.6355
16033TIP3   OH269513   2.064   6.990   3.194 -0.2184  0.1031 -0.4543
16033TIP3    H169514   1.977   6.957   3.215  0.6455 -1.1232  1.3507
16033TIP3    H269515   2.052   7.042   3.115 -2.3926 -0.9536 -0.8451
16034TIP3   OH269516   6.006   1.925   4.234  0.1571 -0.7570 -0.0990
16034TIP3    H169517   6.029   1.993   4.170 -1.5495  0.4608  0.5641
16034TIP3    H269518   6.060   1.850   4.209  0.3190  0.0569 -2.3062
16035TIP3   OH269519   6.470   2.103   2.422 -0.1346  0.0872  0.1626
16035TIP3    H169520   6.536   2.088   2.490  0.5475 -1.6216 -0.8417
16035TIP3    H269521   6.503   2.177   2.371  1.0991 -0.8885 -0.4509
16036TIP3   OH269522   2.510   3.743  14.873  0.6596  0.4017 -0.2036
16036TIP3    H169523   2.518   3.690  14.952  0.8344  1.7724  0.7210
16036TIP3    H269524   2.417   3.745  14.854  0.4754  1.1774  0.7579
16037TIP3   OH269525   6.381   3.059   3.058  0.0675  0.3491  0.2073
16037TIP3    H169526   6.420   3.018   3.136 -0.4008  0.4673  0.5067
16037TIP3    H269527   6.396   3.153   3.071 -1.0863  0.4630  0.7520
16038TIP3   OH269528   2.694   0.624   1.235 -0.3893 -0.4049  0.0793
16038TIP3    H169529   2.664   0.533   1.232  2.0877 -1.3406  1.8133
16038TIP3    H269530   2.789   0.618   1.230 -0.1945  2.1240  0.0680
16039TIP3   OH269531   1.182   6.209   1.999 -0.1987  0.6792  0.1694
16039TIP3    H169532   1.104   6.209   2.055 -0.6170  0.5197 -0.4119
16039TIP3    H269533   1.151   6.242   1.915 -0.0762 -1.2956 -0.6728
16040TIP3   OH269534   4.094   6.160   4.397  0.0643 -0.3909  1.0021
16040TIP3    H169535   4.143   6.078   4.392  0.3602 -0.1652  0.0232
16040TIP3    H269536   4.019   6.148   4.339 -0.0600 -0.0852  1.0954
16041TIP3   OH269537   1.153   6.427   4.645  0.2813  0.2581 -0.3968
16041TIP3    H169538   1.222   6.487   4.615  1.6327 -0.4772  1.1394
16041TIP3    H269539   1.196   6.374   4.713 -1.6606 -0.5805  0.2027
16042TIP3   OH269540   4.888   5.392   3.751  0.6195 -0.4110  0.8609
16042TIP3    H169541   4.850   5.460   3.806  2.4418 -1.1891  3.1687
16042TIP3    H269542   4.973   5.428   3.724  2.6521 -2.5765  4.0072
16043TIP3   OH269543   6.483   1.061   3.983  0.1625  0.0214  0.3575
16043TIP3    H169544   6.568   1.088   3.949  0.1886  0.7184  0.9788
16043TIP3    H269545   6.423   1.131   3.958 -0.0872 -0.1280  0.5307
16044TIP3   OH269546   0.292   0.533   5.062 -0.0013 -0.2736  0.4281
16044TIP3    H169547   0.207   0.556   5.023 -0.0430 -1.3298 -0.1405
16044TIP3    H269548   0.339   0.487   4.992  0.9135  0.0104  0.8446
16045TIP3   OH269549   1.102   0.508   4.890  0.0531  0.0558  0.6078
16045TIP3    H169550   1.009   0.494   4.911  0.5060 -1.8144  1.3913
16045TIP3    H269551   1.147   0.504   4.974  1.0421 -0.5369  0.0575
16046TIP3   OH269552   0.043   6.007   0.975 -0.3398  0.1736 -0.5702
16046TIP3    H169553   0.097   6.022   0.898 -0.9100  1.5183 -0.7231
16046TIP3    H269554   0.009   5.918   0.964  2.9537 -1.2552  0.2276
16047TIP3   OH269555   1.662   6.196   1.778 -0.5499 -0.2039 -0.1660
16047TIP3    H169556   1.588   6.221   1.833 -1.5560 -2.1018 -0.6139
16047TIP3    H269557   1.675   6.102   1.795  1.2785 -0.0666 -0.6472
16048TIP3   OH269558   2.874   2.961   2.886 -0.0765 -0.3677  0.2558
16048TIP3    H169559   2.970   2.967   2.888 -0.1915  1.0565  1.6674
16048TIP3    H269560   2.848   3.015   2.811  0.1172  0.5412  0.8483
16049TIP3   OH269561   1.336   3.970   5.087 -0.1233  0.1015  0.0971
16049TIP3    H169562   1.294   4.020   5.017 -0.3333 -1.1032 -0.6521
16049TIP3    H269563   1.419   3.942   5.049  0.1906  0.2526  0.6704
16050TIP3   OH269564   6.310   5.916   5.411 -0.3404  0.3571 -0.2165
16050TIP3    H169565   6.391   5.864   5.416 -1.1524 -0.8352  0.8171
16050TIP3    H269566   6.329   5.994   5.464 -0.2290 -0.4238  0.9075
16051TIP3   OH269567   5.995   1.984   3.132 -0.0453  0.2048  0.1744
16051TIP3    H169568   5.944   1.910   3.165 -0.6618 -0.5138 -2.2277
16051TIP3    H269569   6.042   2.017   3.208  1.8299 -3.9150  0.9321
16052TIP3   OH269570   6.205   4.022   3.662 -0.1747  0.0778  0.3758
16052TIP3    H169571   6.274   3.956   3.669  0.1783  0.4927  0.8395
16052TIP3    H269572   6.138   3.981   3.607  0.7081 -0.1137 -0.5900
16053TIP3   OH269573   1.637   6.695   5.084 -0.3119 -0.1750  0.0760
16053TIP3    H169574   1.681   6.618   5.049  0.9282  0.6302 -0.1310
16053TIP3    H269575   1.609   6.669   5.172 -1.3317 -1.3930 -0.5957
16054TIP3   OH269576   3.786   7.026   1.234 -0.4824 -0.1750 -0.1891
16054TIP3    H169577   3.718   7.071   1.283 -1.7623 -1.0666 -1.0984
16054TIP3    H269578   3.792   6.940   1.275  0.1320 -0.0870 -0.0873
16055TIP3   OH269579   4.585   3.228  15.414 -0.2495  0.4097  0.1840
16055TIP3    H169580   4.632   3.148  15.395 -2.0128 -1.1515  2.0619
16055TIP3    H269581   4.644   3.278  15.471  0.6807  0.2754 -0.6511
16056TIP3   OH269582   5.025   0.127   5.348 -0.1004  0.3571  0.3330
16056TIP3    H169583   5.013   0.188   5.420  1.5981  1.7548 -0.5266
16056TIP3    H269584   5.019   0.181   5.269 -0.7143 -0.9392 -0.5243
16057TIP3   OH269585   3.021   6.520   1.670  0.4949 -0.6485 -0.3001
16057TIP3    H169586   2.993   6.535   1.579  1.8028  0.2806 -0.5797
16057TIP3    H269587   3.094   6.459   1.662  1.1496  0.0777  0.0370
16058TIP3   OH269588   2.121   6.015   3.900 -0.4386  0.2620  0.3737
16058TIP3    H169589   2.170   6.064   3.967 -0.9294  0.4319  0.6123
16058TIP3    H269590   2.030   6.017   3.931 -0.4586 -0.8363  0.4062
16059TIP3   OH269591   6.899   5.073   4.827  0.5289 -0.4747 -0.0175
16059TIP3    H169592   6.811   5.081   4.864  1.1977 -1.0539  1.7666
16059TIP3    H269593   6.909   4.979   4.811  0.9267 -0.4460  0.0617
16060TIP3   OH269594   3.564   0.673   3.866 -0.7202 -0.1664 -0.5990
16060TIP3    H169595   3.604   0.593   3.831 -2.7479 -1.2038 -0.6344
16060TIP3    H269596   3.612   0.690   3.946  0.3767 -0.8830 -1.0885
16061TIP3   OH269597   2.533   5.318   3.460 -0.3018  1.0268 -0.0996
16061TIP3    H169598   2.443   5.349   3.452 -0.9296 -0.6139  0.3235
16061TIP3    H269599   2.559   5.295   3.371 -0.5807  0.7817 -0.1205
16062TIP3   OH269600   0.325   1.016   4.517  0.3522 -0.4383  0.2289
16062TIP3    H169601   0.312   0.981   4.429 -1.2794  0.6377  0.0116
16062TIP3    H269602   0.413   0.988   4.542  0.7581 -0.9064 -1.6732
16063TIP3   OH269603   6.982   4.302   1.906  0.2027  0.5999 -0.2663
16063TIP3    H169604   7.058   4.316   1.850 -0.1060 -0.4566 -0.9696
16063TIP3    H269605   6.909   4.343   1.858 -0.2207 -1.0515 -1.0812
16064TIP3   OH269606   5.937   0.145   5.221  0.2862  0.2242 -0.3439
16064TIP3    H169607   5.850   0.105   5.217  0.5671 -0.3957 -0.2665
16064TIP3    H269608   5.941   0.184   5.308  1.0376 -1.9377  0.6203
16065TIP3   OH269609   6.110   0.934   4.889  0.1110  0.4452  0.8008
16065TIP3    H169610   6.193   0.966   4.853 -0.1824 -0.1928 -0.4572
16065TIP3    H269611   6.065   1.013   4.920 -0.8231  1.3864 -2.7023
16066TIP3   OH269612   2.350   0.675   2.508  0.7727 -0.4725  0.1607
16066TIP3    H169613   2.259   0.650   2.491  0.6901  0.6378 -1.1658
16066TIP3    H269614   2.399   0.634   2.437  1.0497  0.4800 -0.2055
16067TIP3   OH269615   0.710   5.544   2.817 -0.5633 -0.2567 -0.3522
16067TIP3    H169616   0.719   5.624   2.764 -0.4237  0.1790  0.3165
16067TIP3    H269617   0.754   5.476   2.765 -1.6297 -0.1490 -1.4318
16068TIP3   OH269618   0.259   2.529   3.298 -0.1848 -0.1324  0.4299
16068TIP3    H169619   0.306   2.560   3.375  0.3057 -0.9532  0.4631
16068TIP3    H269620   0.312   2.557   3.224 -1.5259  2.1906  0.2743
16069TIP3   OH269621   5.254   4.150   0.837 -0.8666  0.0016 -0.2843
16069TIP3    H169622   5.193   4.211   0.795  0.5264  2.1255  0.6831
16069TIP3    H269623   5.302   4.110   0.765  0.9324  2.9865 -0.8242
16070TIP3   OH269624   5.539   4.903   1.576  0.9251 -0.1655  0.3190
16070TIP3    H169625   5.497   4.866   1.653 -1.0749 -0.5258 -0.9076
16070TIP3    H269626   5.560   4.828   1.521 -0.1627  0.2516 -0.7039
16071TIP3   OH269627   5.374   2.261   3.261  0.2236 -0.4707  0.2686
16071TIP3    H169628   5.377   2.260   3.357 -1.1176  0.5071  0.3340
16071TIP3    H269629   5.455   2.307   3.236 -0.3078  0.9072  1.0071
16072TIP3   OH269630   2.010   1.085   4.635  0.2287 -0.2140 -0.5964
16072TIP3    H169631   2.066   1.156   4.602 -0.9032  0.8456 -0.2851
16072TIP3    H269632   2.016   1.092   4.730 -1.9214  1.1619 -0.5198
16073TIP3   OH269633   0.223   5.955   3.464 -0.3283  0.4332  0.5808
16073TIP3    H169634   0.274   5.887   3.421 -1.7185  0.3250 -0.9345
16073TIP3    H269635   0.140   5.958   3.415 -0.0584  3.6165  0.1759
16074TIP3   OH269636   3.877   0.641   1.854  0.4319  0.4113  0.2523
16074TIP3    H169637   3.902   0.598   1.936  0.4168  0.4524  0.2786
16074TIP3    H269638   3.830   0.719   1.882  0.6615  0.5651  0.2050
16075TIP3   OH269639   4.698   2.913   1.699  0.4163  0.6252 -0.1724
16075TIP3    H169640   4.689   2.976   1.771 -0.7013  0.4418 -0.1358
16075TIP3    H269641   4.611   2.873   1.692  0.4125  0.8845 -1.8387
16076TIP3   OH269642   2.350   4.750   4.414  0.2860  0.2353  0.3031
16076TIP3    H169643   2.440   4.743   4.445  0.5924  0.0514 -0.6379
16076TIP3    H269644   2.318   4.660   4.412 -0.5569  0.4516  2.5014
16077TIP3   OH269645   2.650   6.355   1.627  1.2534  0.0826  0.0823
16077TIP3    H169646   2.684   6.339   1.714  0.2974 -0.3460  0.3876
16077TIP3    H269647   2.723   6.336   1.568  0.5670 -4.2264  0.4834
16078TIP3   OH269648   5.111   6.231   3.241 -0.7562 -0.0036  0.1874
16078TIP3    H169649   5.147   6.313   3.207 -2.6502  0.3966 -0.9057
16078TIP3    H269650   5.047   6.259   3.307 -0.4862 -0.6626  0.7432
16079TIP3   OH269651   4.415   3.179   5.215 -0.2627  0.1918 -0.4690
16079TIP3    H169652   4.384   3.243   5.279  1.1232  1.3012 -0.8952
16079TIP3    H269653   4.500   3.212   5.187  0.0584 -1.3647 -1.3729
16080TIP3   OH269654   5.424   7.050  15.385  0.6042  0.0549  0.4688
16080TIP3    H169655   5.476   6.978  15.419  1.4467  0.3342 -0.2144
16080TIP3    H269656   5.435   7.044  15.290 -0.0394  0.5471  0.3611
16081TIP3   OH269657   6.066   3.731   5.786  0.0694 -0.6328  0.1301
16081TIP3    H169658   6.062   3.749   5.692  0.4336 -0.3620  0.1670
16081TIP3    H269659   6.156   3.701   5.800  0.0052 -0.7011  0.3884
16082TIP3   OH269660   4.251   5.697   2.648 -0.4008  0.2276 -0.1986
16082TIP3    H169661   4.200   5.650   2.582  1.1887  1.4264 -2.3273
16082TIP3    H269662   4.188   5.757   2.688 -1.2207 -0.0062 -1.1201
16083TIP3   OH269663   0.920   4.150   4.220  0.1910 -0.0200 -0.4211
16083TIP3    H169664   0.875   4.067   4.211  0.7676 -0.5039  0.9811
16083TIP3    H269665   1.001   4.129   4.266  0.3892  1.3027 -0.1267
16084TIP3   OH269666   1.595   1.440   1.640 -0.0452 -0.0219  0.1887
16084TIP3    H169667   1.635   1.485   1.714  1.7377 -1.6769  0.2917
16084TIP3    H269668   1.508   1.415   1.671 -0.1015  1.1100  0.9817
16085TIP3   OH269669   0.204   3.322   4.418 -0.0919 -0.0748  0.2170
16085TIP3    H169670   0.244   3.365   4.494 -1.3112  0.4572  0.5603
16085TIP3    H269671   0.212   3.228   4.437  0.1339  0.0477  0.7281
16086TIP3   OH269672   3.077   0.562   5.311 -0.3229  0.2429  0.0907
16086TIP3    H169673   3.128   0.575   5.390  0.9947  0.5962 -0.7895
16086TIP3    H269674   3.001   0.512   5.339  0.5331 -0.3391  1.4358
16087TIP3   OH269675   2.306   0.598   1.882 -0.0582  0.5860 -0.2871
16087TIP3    H169676   2.292   0.691   1.865 -1.4069  0.2551 -1.0529
16087TIP3    H269677   2.368   0.597   1.955 -0.0723  2.0820 -0.2258
16088TIP3   OH269678   3.705   0.330   2.059  0.0547 -0.1768  0.2171
16088TIP3    H169679   3.615   0.301   2.076 -0.0333  0.2806  0.5361
16088TIP3    H269680   3.752   0.249   2.038 -0.6249 -0.3018 -0.8205
16089TIP3   OH269681   0.788   0.371   2.010 -0.6554 -0.0196 -0.1722
16089TIP3    H169682   0.832   0.295   1.972  1.3839  0.6489  0.7715
16089TIP3    H269683   0.695   0.356   1.995 -0.1449 -1.8484 -1.5457
16090TIP3   OH269684   3.176   0.938   4.229 -0.3839 -0.0375  0.0057
16090TIP3    H169685   3.151   0.986   4.308  0.3570 -0.1217  0.2933
16090TIP3    H269686   3.176   1.005   4.160  0.7353  0.4117  0.4240
16091TIP3   OH269687   1.187   3.032  13.487 -0.2885 -0.7030 -0.1128
16091TIP3    H169688   1.255   2.965  13.496 -0.1871 -0.3980  1.4009
16091TIP3    H269689   1.138   3.006  13.409 -0.1585 -2.4511  0.3742
16092TIP3   OH269690   5.030   0.796  14.497  0.0339 -0.0643  0.6292
16092TIP3    H169691   4.984   0.870  14.457  2.6480  0.5554 -1.3667
16092TIP3    H269692   4.962   0.747  14.543 -2.1755  2.1472 -0.2036
16093TIP3   OH269693   6.999   0.450  14.988 -0.3051  0.5353 -0.0263
16093TIP3    H169694   7.029   0.379  14.931 -1.7270  0.1622 -0.3278
16093TIP3    H269695   7.015   0.417  15.076 -0.4735  0.0401 -0.1762
16094TIP3   OH269696   4.693   5.367   3.161 -0.5566  0.7138 -0.0190
16094TIP3    H169697   4.711   5.380   3.068  1.2863 -0.1781  0.1876
16094TIP3    H269698   4.622   5.428   3.181 -1.3843  0.4785 -2.1402
16095TIP3   OH269699   1.413   4.635   1.038 -0.2251  0.4973 -0.3457
16095TIP3    H169700   1.455   4.626   0.952  0.5634 -1.9590  0.2482
16095TIP3    H269701   1.332   4.682   1.021 -0.3361 -0.4420 -2.5327
16096TIP3   OH269702   0.544   2.417   3.193 -0.1542 -0.4272  0.0168
16096TIP3    H169703   0.607   2.460   3.136  1.9441 -2.9528  0.3413
16096TIP3    H269704   0.561   2.453   3.280  1.4407 -1.6620  0.2467
16097TIP3   OH269705   5.888   5.136   1.923 -0.2882 -0.3270 -0.1126
16097TIP3    H169706   5.814   5.178   1.879  0.0380  0.6618  0.2691
16097TIP3    H269707   5.870   5.149   2.017 -0.7094 -1.9467  0.0563
16098TIP3   OH269708   3.630   0.815   0.585  0.1486  0.1885 -0.6637
16098TIP3    H169709   3.624   0.721   0.571  0.4131 -0.2413  1.8841
16098TIP3    H269710   3.673   0.824   0.670  0.6216  2.6230 -1.1202
16099TIP3   OH269711   6.756   4.159   0.807 -0.1875  0.4623 -0.0252
16099TIP3    H169712   6.848   4.133   0.806 -0.0504  0.9574 -1.1408
16099TIP3    H269713   6.741   4.190   0.896  0.1016 -1.7892  0.8485
16100TIP3   OH269714   4.459   1.758   2.181  0.1097 -0.1363 -0.6049
16100TIP3    H169715   4.474   1.851   2.165  1.0542 -0.0977  0.4648
16100TIP3    H269716   4.405   1.730   2.107 -0.5094  1.3428 -0.7415
16101TIP3   OH269717   1.931   6.675   5.179 -0.5678 -0.1856 -0.4833
16101TIP3    H169718   1.857   6.678   5.240 -1.4200 -1.7611 -1.4072
16101TIP3    H269719   1.985   6.603   5.210 -0.3057 -0.1327 -0.8205
16102TIP3   OH269720   0.328   2.834   3.331  0.4835  0.4513 -0.0738
16102TIP3    H169721   0.346   2.784   3.252  3.1466  2.2951 -0.6936
16102TIP3    H269722   0.354   2.777   3.403  0.0205 -0.4273 -0.6035
16103TIP3   OH269723   5.829   5.326   4.778  0.1099  0.2872  0.4031
16103TIP3    H169724   5.807   5.307   4.869 -0.6936 -1.0860 -0.0571
16103TIP3    H269725   5.791   5.413   4.762 -0.2860  0.2654  1.1860
16104TIP3   OH269726   3.594   1.621   2.452  0.0995  0.0657  0.1895
16104TIP3    H169727   3.552   1.539   2.478  0.6337  0.0739  1.1070
16104TIP3    H269728   3.687   1.600   2.448  0.1122  0.2861 -0.9263
16105TIP3   OH269729   5.149   5.148   0.382  0.3756 -0.2175 -0.3876
16105TIP3    H169730   5.162   5.127   0.289 -2.4130  0.9541 -1.0776
16105TIP3    H269731   5.089   5.080   0.414 -0.8018  0.9112 -0.1437
16106TIP3   OH269732   0.209   5.332   4.898  0.4061  0.4710 -0.1733
16106TIP3    H169733   0.130   5.352   4.949  1.0181 -0.0979  0.9969
16106TIP3    H269734   0.281   5.344   4.959  1.1116 -0.7480 -0.7448
16107TIP3   OH269735   2.471   5.755   3.742  0.1974 -0.2019 -0.3703
16107TIP3    H169736   2.422   5.714   3.814 -0.9675  0.0627 -0.9978
16107TIP3    H269737   2.534   5.811   3.786  0.9077 -1.6325  0.4799
16108TIP3   OH269738   2.632   1.898   3.558  0.1971 -0.4270  0.4011
16108TIP3    H169739   2.650   1.820   3.505  0.8247  0.0009 -0.0189
16108TIP3    H269740   2.569   1.948   3.505  0.7776 -0.0295  0.0748
16109TIP3   OH269741   6.939   1.596   5.625 -0.5604  0.1687  0.1913
16109TIP3    H169742   6.888   1.515   5.634 -0.6197 -0.0961 -2.1763
16109TIP3    H269743   7.026   1.568   5.598 -0.3411  0.8536  0.1612
16110TIP3   OH269744   4.222   2.399   4.455 -0.1352  0.1561 -0.0428
16110TIP3    H169745   4.159   2.337   4.417 -1.2510  0.9544  0.4841
16110TIP3    H269746   4.183   2.425   4.539  1.1635  0.2458  0.5477
16111TIP3   OH269747   2.050   3.207   3.587 -0.5135  0.1275  0.2192
16111TIP3    H169748   2.119   3.272   3.594 -2.2924  2.1738 -0.6444
16111TIP3    H269749   2.017   3.217   3.497 -0.9668 -1.8070  0.1497
16112TIP3   OH269750   3.123   1.313   5.245  0.6485 -0.2597 -0.0309
16112TIP3    H169751   3.148   1.290   5.156  1.1279  0.5668 -0.1129
16112TIP3    H269752   3.028   1.301   5.247  0.8276 -1.7637 -0.2018
16113TIP3   OH269753   0.748   5.657   3.100 -0.2486  0.0284  0.9056
16113TIP3    H169754   0.769   5.621   3.014 -0.5861  2.4309 -0.2348
16113TIP3    H269755   0.742   5.751   3.086 -0.3474  0.4793  3.5715
16114TIP3   OH269756   1.229   7.002   2.119  0.3254 -1.1963  0.5039
16114TIP3    H169757   1.247   7.096   2.117  0.3809 -1.1229  2.7222
16114TIP3    H269758   1.301   6.965   2.170 -1.6242 -1.9092  2.8809
16115TIP3   OH269759   0.184   2.286   3.898 -0.1632  0.4652 -0.1070
16115TIP3    H169760   0.166   2.357   3.837  0.1791  0.9382  0.3418
16115TIP3    H269761   0.161   2.207   3.850  0.0631  0.8426 -0.8359
16116TIP3   OH269762   4.332   1.047   0.060  0.3848  0.2370  0.4860
16116TIP3    H169763   4.249   1.088   0.038  0.3227 -0.3773 -0.4209
16116TIP3    H269764   4.376   1.034  -0.024  0.9522 -0.3914  0.8756
16117TIP3   OH269765   2.514   2.261   1.464  0.6116 -0.2558 -0.3324
16117TIP3    H169766   2.448   2.192   1.475  0.4724 -0.2093 -0.8728
16117TIP3    H269767   2.491   2.303   1.381  1.3679 -0.2875 -0.5644
16118TIP3   OH269768   2.533   7.130   2.484 -0.0394 -0.1756 -0.1648
16118TIP3    H169769   2.558   7.114   2.575  1.1767  0.1279 -0.4352
16118TIP3    H269770   2.487   7.214   2.486  1.0166  0.4007 -0.0005
16119TIP3   OH269771   1.923   0.695  15.296  0.8194 -0.0717 -0.0447
16119TIP3    H169772   1.927   0.659  15.385 -1.1857  0.3914  0.2703
16119TIP3    H269773   1.877   0.778  15.306  1.7305  0.6061 -1.3497
16120TIP3   OH269774   4.628   1.251   4.905  0.0394 -1.0294 -0.4305
16120TIP3    H169775   4.545   1.279   4.945  0.2851 -1.1582  0.1705
16120TIP3    H269776   4.607   1.168   4.862 -0.4873 -0.3579 -1.5040
16121TIP3   OH269777   4.215   0.289  14.862  0.2850 -0.0211  0.5063
16121TIP3    H169778   4.266   0.370  14.871 -0.4037  0.6008 -1.0778
16121TIP3    H269779   4.274   0.228  14.818  1.4683 -1.0468  3.3399
16122TIP3   OH269780   1.506   5.159   0.102  0.5861  0.1443 -0.6098
16122TIP3    H169781   1.540   5.248   0.099  0.0895  0.4202  1.1453
16122TIP3    H269782   1.531   5.126   0.189 -1.3088 -0.5607 -0.3063
16123TIP3   OH269783   3.392   0.478   3.607 -0.3026 -0.4677 -0.2346
16123TIP3    H169784   3.356   0.497   3.694  1.5363  1.2535  0.1998
16123TIP3    H269785   3.446   0.400   3.621  0.1432 -0.0850  0.2391
16124TIP3   OH269786   1.634   5.408   2.959  0.9490  0.3203  0.1874
16124TIP3    H169787   1.714   5.451   2.990  0.9067  0.0582  0.6666
16124TIP3    H269788   1.657   5.371   2.874  0.5657  2.6222 -0.9741
16125TIP3   OH269789   3.053   2.590   5.385 -0.1256  0.2727  0.0430
16125TIP3    H169790   2.977   2.553   5.340 -1.3668  1.8154  0.8385
16125TIP3    H269791   3.032   2.682   5.396  2.6236  1.1044 -1.2408
16126TIP3   OH269792   2.512   4.303   3.870  0.4444  0.1988 -0.4321
16126TIP3    H169793   2.558   4.384   3.894  0.9129 -0.0210 -0.5786
16126TIP3    H269794   2.579   4.235   3.875 -0.3781 -0.4775  1.4591
16127TIP3   OH269795   5.640   6.478  13.645 -0.1392  0.3898  0.3020
16127TIP3    H169796   5.653   6.560  13.598  2.2952 -0.6372 -0.9040
16127TIP3    H269797   5.630   6.504  13.737  0.6974  2.0241 -0.0520
16128TIP3   OH269798   1.429   5.472   1.076 -0.1952  0.0076 -0.3593
16128TIP3    H169799   1.484   5.507   1.147  0.0931 -0.9781 -0.0822
16128TIP3    H269800   1.339   5.487   1.106 -0.0907  1.6449 -0.8211
16129TIP3   OH269801   5.852   5.768   4.279  0.2317  0.4897  0.0450
16129TIP3    H169802   5.921   5.807   4.226  0.3397 -0.5468 -0.5900
16129TIP3    H269803   5.785   5.741   4.216  1.2310 -2.5435  0.1923
16130TIP3   OH269804   1.094   1.277   1.569  0.6664  0.2226 -0.4836
16130TIP3    H169805   1.068   1.186   1.582  0.0019  0.6759  1.4753
16130TIP3    H269806   1.146   1.299   1.647 -0.5355  1.9987 -0.1392
16131TIP3   OH269807   3.414   3.045   1.591  0.0637 -0.4255 -0.0142
16131TIP3    H169808   3.348   3.114   1.583  0.4203 -0.0411  0.3433
16131TIP3    H269809   3.461   3.065   1.672  1.7731  0.3181 -1.1561
16132TIP3   OH269810   6.376   1.713   5.237  0.3382  0.3712 -0.2820
16132TIP3    H169811   6.294   1.707   5.188  1.6074 -0.4244 -2.3301
16132TIP3    H269812   6.426   1.636   5.210  0.8360 -0.4235  2.7206
16133TIP3   OH269813   6.000   0.336   0.721 -0.7712  0.2850 -0.0439
16133TIP3    H169814   6.021   0.266   0.783  2.8799  2.4428  1.3248
16133TIP3    H269815   5.905   0.347   0.728 -0.7147 -0.9274  3.7011
16134TIP3   OH269816   4.162   0.936   4.510  0.0833 -0.1970  0.0033
16134TIP3    H169817   4.244   0.902   4.546  0.5840 -0.3111 -1.2254
16134TIP3    H269818   4.116   0.972   4.586  0.5355 -1.5929  0.9661
16135TIP3   OH269819   3.069   6.985   3.119  0.0580  0.3840  0.1145
16135TIP3    H169820   2.998   6.922   3.130 -0.1233  0.6012  0.1788
16135TIP3    H269821   3.075   7.030   3.203 -0.8809  1.5723 -0.4333
16136TIP3   OH269822   1.675   5.553   3.516  0.4413  0.5406 -0.1312
16136TIP3    H169823   1.720   5.482   3.471 -2.0362 -1.5884  0.6582
16136TIP3    H269824   1.586   5.552   3.481 -1.3954 -0.8227  4.2963
16137TIP3   OH269825   4.240   1.588   4.743 -0.0320 -0.3401 -0.3055
16137TIP3    H169826   4.191   1.515   4.704 -1.1539 -0.2845  0.9456
16137TIP3    H269827   4.256   1.560   4.833 -0.7293  1.0687  0.2726
16138TIP3   OH269828   1.844   4.540   4.336  0.1155  0.8618 -0.2403
16138TIP3    H169829   1.830   4.592   4.415 -1.3654 -1.4058  1.0402
16138TIP3    H269830   1.922   4.488   4.355  0.2411  0.8985 -0.6351
16139TIP3   OH269831   1.455   4.154   3.593 -0.6010  0.6253  0.3651
16139TIP3    H169832   1.418   4.224   3.540  0.0495  1.4921  1.0496
16139TIP3    H269833   1.470   4.194   3.678 -2.5637 -1.0033  1.5368
16140TIP3   OH269834   6.889   2.683  14.900  0.7448 -0.5424  0.5706
16140TIP3    H169835   6.931   2.758  14.943  1.9939  0.2578 -1.9662
16140TIP3    H269836   6.939   2.671  14.819 -2.7571 -0.7519 -1.6598
16141TIP3   OH269837   3.993   0.852   5.788  0.1452 -0.5756 -0.2337
16141TIP3    H169838   3.922   0.857   5.724  2.9140 -2.4582 -3.6513
16141TIP3    H269839   4.028   0.941   5.792 -0.0353 -0.4496 -1.3772
16142TIP3   OH269840   2.271   5.402   5.683 -0.1824 -0.0518 -0.1642
16142TIP3    H169841   2.299   5.453   5.759  1.8728 -0.3820 -0.6648
16142TIP3    H269842   2.179   5.426   5.671 -0.2869  0.7070  1.8493
16143TIP3   OH269843   2.880   6.453   1.289 -0.3446 -0.3916 -0.1659
16143TIP3    H169844   2.964   6.431   1.249 -0.2942 -1.7410  0.6491
16143TIP3    H269845   2.857   6.539   1.253  1.9585  0.5419  0.4948
16144TIP3   OH269846   6.418   6.938   4.490 -0.1457  0.9165  0.2721
16144TIP3    H169847   6.505   6.964   4.460 -0.2728  1.2898  0.2296
16144TIP3    H269848   6.393   6.866   4.432 -0.4356  1.7059 -0.5813
16145TIP3   OH269849   3.310   3.269   3.621  0.0039 -0.3703  0.1627
16145TIP3    H169850   3.268   3.209   3.559  0.6955  0.6690 -1.3385
16145TIP3    H269851   3.260   3.350   3.616  0.7841  0.1157  0.0761
16146TIP3   OH269852   1.994   3.731   1.106 -0.0481  0.1037 -0.4876
16146TIP3    H169853   2.017   3.823   1.119  0.0823 -0.0896  0.7287
16146TIP3    H269854   2.015   3.714   1.014  0.6151  1.0924 -0.5338
16147TIP3   OH269855   4.925   6.776   1.526  0.2701 -0.1976 -0.3262
16147TIP3    H169856   4.840   6.742   1.498 -0.8448  1.5839  0.8266
16147TIP3    H269857   4.972   6.793   1.444 -2.1881  3.0319 -1.1486
16148TIP3   OH269858   3.809   3.874   4.847  0.3225  0.3139  0.7890
16148TIP3    H169859   3.882   3.895   4.906  0.9320  0.8527 -0.1565
16148TIP3    H269860   3.851   3.836   4.770 -0.4678 -0.1986  0.6097
16149TIP3   OH269861   2.612   5.442   0.904 -0.0973 -0.3582  0.1646
16149TIP3    H169862   2.668   5.464   0.830  1.0252 -1.0527  0.7998
16149TIP3    H269863   2.523   5.442   0.867  0.4771 -1.0977 -1.2747
16150TIP3   OH269864   1.831   0.821   2.280  0.0011  0.1222  0.8466
16150TIP3    H169865   1.739   0.795   2.273 -0.0859  0.7143 -0.2489
16150TIP3    H269866   1.880   0.746   2.247 -0.1932  0.7483 -0.9021
16151TIP3   OH269867   5.774   0.317   1.403 -0.3022  0.1148  0.5342
16151TIP3    H169868   5.859   0.351   1.373 -1.0109 -0.4235 -2.2175
16151TIP3    H269869   5.737   0.389   1.455  0.0659  1.9585 -1.6649
16152TIP3   OH269870   2.791   0.266   0.995 -0.6224 -0.0786 -0.0620
16152TIP3    H169871   2.741   0.275   1.076 -1.0858 -0.4795 -0.3032
16152TIP3    H269872   2.725   0.268   0.926 -0.1716  1.0823 -0.4839
16153TIP3   OH269873   2.505   0.157   4.895 -0.6511 -0.1007 -0.2904
16153TIP3    H169874   2.599   0.174   4.908 -0.6154 -2.0808  2.4140
16153TIP3    H269875   2.462   0.240   4.917  0.2146 -0.3095  2.3343
16154TIP3   OH269876   2.568   4.288   1.948  0.0972 -0.2779  0.0028
16154TIP3    H169877   2.528   4.344   2.015 -0.9290  0.8161 -1.4959
16154TIP3    H269878   2.629   4.346   1.901 -0.1848 -0.6876 -0.8761
16155TIP3   OH269879   3.018   5.395   3.656 -0.0000  0.3540 -0.1632
16155TIP3    H169880   3.053   5.411   3.744 -1.1820  1.2137  0.1707
16155TIP3    H269881   2.976   5.477   3.632 -2.5288 -0.8818 -0.1606
16156TIP3   OH269882   4.960   5.231   1.013  0.1619 -0.2314 -0.2304
16156TIP3    H169883   4.990   5.146   1.044  1.4047  0.4439  0.4395
16156TIP3    H269884   4.987   5.233   0.921  3.5365  0.9193  0.6923
16157TIP3   OH269885   3.608   4.093   5.140 -0.5396  0.3742  0.3715
16157TIP3    H169886   3.587   4.000   5.130  0.3082  0.2152 -0.0274
16157TIP3    H269887   3.697   4.093   5.175 -1.0350  1.0246  1.6628
16158TIP3   OH269888   2.913   3.875   0.935 -0.3305 -0.1099 -0.1851
16158TIP3    H169889   2.883   3.966   0.928 -2.8087 -0.7954  0.7107
16158TIP3    H269890   2.987   3.869   0.874  0.0824  2.5708 -0.0181
16159TIP3   OH269891   3.506   1.177   4.042  0.9553 -0.0098  0.2008
16159TIP3    H169892   3.422   1.148   4.006  2.0910  0.6481 -3.2721
16159TIP3    H269893   3.483   1.234   4.114 -1.5773 -0.3407 -0.2865
16160TIP3   OH269894   2.236   4.816   4.669  0.2121 -0.2790  0.5998
16160TIP3    H169895   2.260   4.785   4.581 -0.0805 -0.3889  0.5555
16160TIP3    H269896   2.152   4.773   4.686 -0.0800  0.3034  0.6392
16161TIP3   OH269897   1.125   7.001   3.319 -0.4191 -0.0229  0.3855
16161TIP3    H169898   1.096   6.969   3.404  0.0182  0.1493  0.6064
16161TIP3    H269899   1.217   6.974   3.314 -0.0380  1.2154  0.5889
16162TIP3   OH269900   6.751   3.164  14.909 -0.1273 -0.0081  0.2019
16162TIP3    H169901   6.694   3.160  14.985  0.8198  1.6106  1.0246
16162TIP3    H269902   6.802   3.244  14.921 -0.4253  0.6359 -2.4654
16163TIP3   OH269903   5.371   2.736   2.458  0.2870  0.3313 -0.1576
16163TIP3    H169904   5.367   2.832   2.450 -0.3584  0.2827 -0.4143
16163TIP3    H269905   5.405   2.706   2.373 -0.2310  0.2825 -0.3503
16164TIP3   OH269906   2.931   6.268   2.390 -0.0518 -0.0614  0.6319
16164TIP3    H169907   2.994   6.339   2.377 -0.4853  0.8131  2.9951
16164TIP3    H269908   2.847   6.313   2.401 -0.5979 -1.0490  0.5218
16165TIP3   OH269909   3.821   2.252   3.533  0.0845 -0.5192  0.8097
16165TIP3    H169910   3.856   2.331   3.574  0.8157  0.5104 -1.7143
16165TIP3    H269911   3.824   2.186   3.602  3.2603  0.5780  1.8119
16166TIP3   OH269912   1.576   5.856   3.571 -0.6072  0.4434  0.6128
16166TIP3    H169913   1.600   5.940   3.531  0.9357 -0.3065 -0.0799
16166TIP3    H269914   1.656   5.826   3.614 -0.3732 -1.9290 -1.3800
16167TIP3   OH269915   1.578   7.062   2.176 -0.1551 -0.0702 -0.5138
16167TIP3    H169916   1.579   6.966   2.182  0.2026 -0.2760 -3.1329
16167TIP3    H269917   1.669   7.087   2.195 -0.2610 -0.2547  0.2344
16168TIP3   OH269918   3.824   6.175   1.533  0.5025  0.0060  0.2004
16168TIP3    H169919   3.772   6.120   1.591  0.6879 -0.0599  0.3044
16168TIP3    H269920   3.769   6.252   1.518  0.2962 -0.1487  0.1555
16169TIP3   OH269921   4.823   5.376   2.616  0.2229 -0.1657 -0.1103
16169TIP3    H169922   4.802   5.295   2.571 -0.1494  0.2246 -0.6523
16169TIP3    H269923   4.902   5.408   2.574  1.6336 -1.3468  1.5542
16170TIP3   OH269924   0.363   2.550   4.188  0.0039 -0.4165 -0.1212
16170TIP3    H169925   0.326   2.554   4.276  1.3118 -0.1852  0.4199
16170TIP3    H269926   0.299   2.595   4.134 -0.7072 -0.3719  0.7390
16171TIP3   OH269927   6.784   6.692   5.861 -0.0893  0.1881 -0.5690
16171TIP3    H169928   6.879   6.691   5.869 -0.0155 -0.5767 -1.5115
16171TIP3    H269929   6.759   6.782   5.885  0.9564  0.6930 -1.3297
16172TIP3   OH269930   3.746   0.714   4.085  0.0766 -0.3320  0.2202
16172TIP3    H169931   3.677   0.770   4.120 -0.6844 -0.3443 -1.2035
16172TIP3    H269932   3.781   0.668   4.161 -1.3706 -0.1999  0.9770
16173TIP3   OH269933   3.723   0.328   1.400 -0.0997  0.1922  0.1172
16173TIP3    H169934   3.646   0.382   1.385 -1.2054 -1.0930  1.0583
16173TIP3    H269935   3.762   0.363   1.480  0.7463  1.3234 -0.7664
16174TIP3   OH269936   4.370   0.207   3.206 -0.2072 -0.1867 -0.2751
16174TIP3    H169937   4.331   0.228   3.291  1.3201 -1.1551  0.6737
16174TIP3    H269938   4.415   0.124   3.220 -0.8164 -0.8981 -2.3181
16175TIP3   OH269939   2.792   4.663   5.381  0.2526  0.0322 -0.5240
16175TIP3    H169940   2.819   4.754   5.392  1.6435 -0.2232 -1.5931
16175TIP3    H269941   2.785   4.629   5.470  0.6480  0.9357 -0.1420
16176TIP3   OH269942   2.191   1.564   3.164  0.2516  1.0289  0.1256
16176TIP3    H169943   2.118   1.625   3.156 -0.5506 -0.2558 -2.8507
16176TIP3    H269944   2.152   1.478   3.148  2.2255  0.2090 -0.4856
16177TIP3   OH269945   4.830   3.917   3.242  0.1432  0.2988  0.5716
16177TIP3    H169946   4.753   3.951   3.286 -0.0883  0.1383  0.2904
16177TIP3    H269947   4.805   3.829   3.214  0.4577  0.2091  0.5663
16178TIP3   OH269948   5.831   1.142   3.774  0.0505  0.5928  0.4459
16178TIP3    H169949   5.917   1.101   3.766  0.4778  1.6579 -0.4242
16178TIP3    H269950   5.837   1.223   3.724 -1.0310  1.3582  1.5113
16179TIP3   OH269951   6.036   1.492   2.784 -0.1352 -0.3172 -0.4009
16179TIP3    H169952   5.944   1.482   2.760 -0.1860  2.0299 -1.2483
16179TIP3    H269953   6.051   1.422   2.848 -2.4280 -0.8823 -0.4213
16180TIP3   OH269954   7.134   2.499   2.531 -0.2287 -0.8385  0.1749
16180TIP3    H169955   7.049   2.533   2.503  1.3443  1.2805 -2.2677
16180TIP3    H269956   7.158   2.553   2.606 -0.1469 -0.1333 -0.3621
16181TIP3   OH269957   1.354   6.714   4.719  0.1835 -0.5653 -0.2676
16181TIP3    H169958   1.312   6.634   4.751 -0.4837 -0.1554 -0.1088
16181TIP3    H269959   1.352   6.774   4.794  2.3081 -1.0164  0.1780
16182TIP3   OH269960   2.900   0.521   3.535  0.2140  0.4163  0.1845
16182TIP3    H169961   2.955   0.505   3.612  2.7239 -0.1942 -1.6474
16182TIP3    H269962   2.825   0.570   3.568  1.0801 -0.1111  3.0534
16183TIP3   OH269963   4.208   3.205   3.272  0.0819 -0.5420 -0.5853
16183TIP3    H169964   4.149   3.147   3.320 -0.2857 -0.0428 -0.4328
16183TIP3    H269965   4.256   3.253   3.340 -0.3631  0.0889 -0.7151
16184TIP3   OH269966   5.905   3.620   3.236  0.3922  0.3237 -0.3036
16184TIP3    H169967   5.857   3.639   3.317 -1.4251 -0.4161 -1.1774
16184TIP3    H269968   5.922   3.707   3.198  0.1090  0.6128  0.2207
16185TIP3   OH269969   5.910   0.008   0.703  0.6415 -0.1438  0.5532
16185TIP3    H169970   6.000   0.003   0.671  0.4234  1.9664 -0.4998
16185TIP3    H269971   5.865  -0.063   0.657  1.3649 -0.0332 -0.3561
16186TIP3   OH269972   5.765   6.894   3.926  0.1778  0.7517 -0.7942
16186TIP3    H169973   5.749   6.818   3.869  0.9924  0.5287 -0.7419
16186TIP3    H269974   5.724   6.871   4.009 -0.9802  1.0566 -1.2740
16187TIP3   OH269975   7.090   0.259   1.298  0.6634  0.6106  0.2865
16187TIP3    H169976   7.094   0.283   1.391  1.0906 -0.7083  0.6233
16187TIP3    H269977   7.003   0.286   1.270  0.1051 -0.0073  1.3750
16188TIP3   OH269978   1.100   2.770  15.534  0.4212  0.5202 -0.2754
16188TIP3    H169979   1.129   2.792  15.622  1.6614  2.2920 -1.0934
16188TIP3    H269980   1.035   2.836  15.512  0.3176  0.2548 -0.7964
16189TIP3   OH269981   1.552   0.248   2.578  0.1637 -0.2528  0.2129
16189TIP3    H169982   1.584   0.185   2.513 -0.2385 -0.1042 -0.1306
16189TIP3    H269983   1.473   0.208   2.614 -0.4053  0.3010 -0.4044
16190TIP3   OH269984   1.866   6.940   2.616  1.0626  0.0902  0.3227
16190TIP3    H169985   1.891   6.992   2.540  1.4340 -0.6982 -0.0946
16190TIP3    H269986   1.845   6.854   2.581  0.2475  0.0103  0.9900
16191TIP3   OH269987   7.079   4.700   5.731  0.1249 -0.1595  0.5606
16191TIP3    H169988   7.173   4.684   5.725 -0.0026 -0.9004  0.5698
16191TIP3    H269989   7.070   4.793   5.710  1.1685  0.6323  3.3904
16192TIP3   OH269990   2.532   4.870   1.352 -0.8135 -0.1746  0.6822
16192TIP3    H169991   2.619   4.880   1.313 -0.8128  0.0314  0.7357
16192TIP3    H269992   2.494   4.796   1.305 -0.2967 -0.7971  1.2252
16193TIP3   OH269993   1.004   1.943   3.080 -0.0202  0.1597  0.6982
16193TIP3    H169994   1.083   1.892   3.094 -0.7923 -1.3090 -0.1352
16193TIP3    H269995   1.008   1.970   2.988 -0.6133 -0.1855  0.5623
16194TIP3   OH269996   1.324   1.797   4.148  0.0072 -0.2775  0.3035
16194TIP3    H169997   1.331   1.845   4.231  0.1998  1.4479 -0.6877
16194TIP3    H269998   1.411   1.762   4.133  0.1391 -0.0415  0.5138
16195TIP3   OH269999   2.643   3.916   0.636  0.4528  0.1461  0.5205
16195TIP3    H170000   2.688   3.902   0.552 -1.1795 -0.8152 -0.2108
16195TIP3    H270001   2.714   3.940   0.696  2.0911 -2.1121 -0.4157
16196TIP3   OH270002   2.000   0.413   1.584  0.5625 -0.3587  0.1705
16196TIP3    H170003   1.930   0.381   1.641  1.2072 -0.5100  0.8816
16196TIP3    H270004   2.024   0.337   1.531  0.9375 -0.5909  0.6812
16197TIP3   OH270005   2.970   5.447   0.040  0.1532  0.2894  0.0442
16197TIP3    H170006   3.048   5.493   0.009 -0.2583  0.2568 -1.0802
16197TIP3    H270007   2.970   5.364  -0.009  0.0131 -0.1998  0.8577
16198TIP3   OH270008   5.926   6.465   2.485  0.0790 -0.4387 -0.3291
16198TIP3    H170009   5.884   6.407   2.550 -0.8162  0.6121  0.0503
16198TIP3    H270010   6.019   6.453   2.500 -0.1098  0.1963  1.5518
16199TIP3   OH270011   5.447   0.904   3.294 -0.1718  0.2040  0.0129
16199TIP3    H170012   5.494   0.987   3.308  0.3711 -0.3374  1.4733
16199TIP3    H270013   5.379   0.903   3.361 -0.7957 -0.0987 -0.6167
16200TIP3   OH270014   5.030   2.249  14.777  0.1567  1.7904  1.1026
16200TIP3    H170015   4.945   2.293  14.786 -1.1334  0.1121 -1.9868
16200TIP3    H270016   5.031   2.182  14.844 -0.8311  2.0101  1.3347
16201TIP3   OH270017   4.560   5.111  15.160 -1.2241  0.2409 -0.2278
16201TIP3    H170018   4.582   5.127  15.252  0.9726 -1.7893 -0.3580
16201TIP3    H270019   4.516   5.026  15.161 -1.8034  0.5233 -0.9857
16202TIP3   OH270020   0.659   0.778   0.739  0.6767  0.2409 -0.3226
16202TIP3    H170021   0.736   0.829   0.764  2.1722 -1.9485 -0.3574
16202TIP3    H270022   0.612   0.763   0.821  0.8902  0.6175 -0.1328
16203TIP3   OH270023   5.899   0.482   4.333 -0.3826 -1.1138  0.3067
16203TIP3    H170024   5.928   0.572   4.318  0.0602 -1.1332  1.0918
16203TIP3    H270025   5.869   0.481   4.423 -3.1374 -1.0043 -0.5499
16204TIP3   OH270026   1.939   3.945   2.940  0.2790  0.3807 -0.3232
16204TIP3    H170027   1.952   4.026   2.891 -4.4628  1.2241 -0.4213
16204TIP3    H270028   1.938   3.876   2.873 -0.2707  0.8130 -0.7623
16205TIP3   OH270029   1.716   0.536   0.903  0.3774 -0.4541  0.0894
16205TIP3    H170030   1.665   0.470   0.949 -1.2905  0.5825 -0.2068
16205TIP3    H270031   1.805   0.526   0.936 -0.4873 -0.7388  2.4024
16206TIP3   OH270032   0.909   4.773   2.321  0.2097  0.1095 -0.0465
16206TIP3    H170033   0.854   4.707   2.278  0.7492  0.2319 -0.9478
16206TIP3    H270034   0.863   4.856   2.306 -0.5751 -0.0769  1.2655
16207TIP3   OH270035   3.725   5.070   4.194  0.8779  0.4762  0.7121
16207TIP3    H170036   3.740   5.163   4.178 -0.0039  0.1922 -1.9474
16207TIP3    H270037   3.634   5.056   4.171  1.5327 -1.4275 -0.8655
16208TIP3   OH270038   0.291   6.472   0.947 -0.2857 -0.1254 -0.3671
16208TIP3    H170039   0.256   6.426   1.023  0.1327 -0.5341 -0.4190
16208TIP3    H270040   0.325   6.402   0.890  0.4617  0.2531 -0.3937
16209TIP3   OH270041   6.589   2.419   3.235 -0.1072 -0.3282  0.3691
16209TIP3    H170042   6.524   2.466   3.182  1.0229 -3.0152 -3.7146
16209TIP3    H270043   6.670   2.427   3.184  1.2697 -2.2865  2.1984
16210TIP3   OH270044   0.815   4.465   3.149  0.9475 -0.0931  0.0564
16210TIP3    H170045   0.746   4.529   3.132  2.0666  0.7296 -1.5851
16210TIP3    H270046   0.889   4.518   3.179  1.8007 -0.6102 -1.0599
16211TIP3   OH270047   2.563   7.024  10.093 -0.2535 -0.6367  0.1631
16211TIP3    H170048   2.474   7.001  10.067  0.2277 -0.3354 -1.8088
16211TIP3    H270049   2.587   6.959  10.158 -2.0022 -0.5731  0.8841
16212TIP3   OH270050   2.030   6.758   3.608  0.4536 -0.9147  0.3852
16212TIP3    H170051   1.964   6.778   3.541  0.8210 -0.3034  0.2042
16212TIP3    H270052   1.982   6.709   3.675 -0.5435  0.8570  0.9922
16213TIP3   OH270053   1.204   0.151   2.155 -0.0728 -0.0270 -0.1033
16213TIP3    H170054   1.189   0.229   2.207 -3.5024 -0.8550  0.2424
16213TIP3    H270055   1.275   0.105   2.201 -1.9946 -0.0035  3.0004
16214TIP3   OH270056   5.777   4.304   1.516  0.3301  0.6818 -0.2097
16214TIP3    H170057   5.858   4.342   1.482  0.7955  1.4622  1.7120
16214TIP3    H270058   5.770   4.337   1.605 -1.7334  0.0213 -0.0943
16215TIP3   OH270059   3.539   1.561   5.126 -0.2568  0.2801 -0.2818
16215TIP3    H170060   3.612   1.619   5.104  0.1717 -0.0330  0.3030
16215TIP3    H270061   3.498   1.542   5.042  0.5779  0.1317 -0.6668
16216TIP3   OH270062   2.713   2.601   2.575  0.2750  0.1291  0.2440
16216TIP3    H170063   2.804   2.603   2.547  0.0602 -0.1278 -0.4884
16216TIP3    H270064   2.683   2.692   2.566 -0.0053 -0.0821 -1.1016
16217TIP3   OH270065   0.119   1.288   3.397  0.7910  0.3243 -0.0079
16217TIP3    H170066   0.141   1.237   3.319 -0.5405  0.4290 -0.4571
16217TIP3    H270067   0.030   1.261   3.418  0.6403  1.3477  0.6560
16218TIP3   OH270068   1.932   4.284   0.287  0.2165 -0.4971  0.2692
16218TIP3    H170069   1.939   4.312   0.378 -1.5504  0.1467  0.2278
16218TIP3    H270070   1.864   4.217   0.287 -0.2849 -0.0005 -0.6699
16219TIP3   OH270071   0.060   0.465   4.579 -0.0717  0.2710 -0.1273
16219TIP3    H170072   0.060   0.555   4.611 -0.2422 -0.4027  1.8989
16219TIP3    H270073   0.126   0.420   4.633 -0.3446 -0.9116 -0.7581
16220TIP3   OH270074   1.831   3.199   0.197 -0.2331  0.0028 -0.1891
16220TIP3    H170075   1.835   3.164   0.286  2.3375 -2.0018 -1.0093
16220TIP3    H270076   1.906   3.158   0.152 -1.6199  0.7663 -3.3359
16221TIP3   OH270077   5.747   3.103  13.501 -0.1968 -0.1929 -0.0836
16221TIP3    H170078   5.676   3.136  13.445 -2.8469 -1.3749  2.4870
16221TIP3    H270079   5.786   3.032  13.451 -0.3618  0.8896 -1.7978
16222TIP3   OH270080   3.657   6.597   5.754 -0.1936  0.3649  0.0817
16222TIP3    H170081   3.581   6.540   5.746 -0.3630  0.6459 -0.3153
16222TIP3    H270082   3.695   6.574   5.839 -1.5782  1.2613  0.9622
16223TIP3   OH270083   2.781   5.747   3.031 -0.1449  0.4539 -0.0873
16223TIP3    H170084   2.791   5.688   2.957 -0.2015 -1.1092  1.1106
16223TIP3    H270085   2.866   5.791   3.039 -0.1685  0.6818 -1.1152
16224TIP3   OH270086   3.107   5.423   3.059  0.0412  0.1301  0.1685
16224TIP3    H170087   3.182   5.366   3.042  0.1497  0.4610 -0.4676
16224TIP3    H270088   3.031   5.371   3.033 -0.0159 -0.5173  1.5980
16225TIP3   OH270089   6.704   1.471   4.220  0.5823  0.0939 -0.0331
16225TIP3    H170090   6.659   1.436   4.297  0.3523 -0.2213 -0.3119
16225TIP3    H270091   6.741   1.554   4.250  0.6255 -0.1009  0.4623
16226TIP3   OH270092   7.111   3.343   4.509  0.2978 -0.0857  0.1105
16226TIP3    H170093   7.083   3.409   4.572  2.1049 -1.1174  2.0685
16226TIP3    H270094   7.199   3.369   4.484 -0.4335  0.3714 -2.1507
16227TIP3   OH270095   3.189   0.075   0.608  0.1026  0.3856  0.1625
16227TIP3    H170096   3.177   0.169   0.618 -0.8902  0.2708  0.1555
16227TIP3    H270097   3.110   0.046   0.561  0.2770 -0.4861  0.3954
16228TIP3   OH270098   4.669   5.568   3.819  0.0304 -0.3048 -0.2525
16228TIP3    H170099   4.618   5.646   3.843 -0.4418 -0.3803 -0.9965
16228TIP3    H270100   4.695   5.530   3.903 -1.1964 -0.2923  0.1446
16229TIP3   OH270101   3.771   4.568  14.964  0.7770  0.5089  0.0620
16229TIP3    H170102   3.794   4.489  15.013 -1.6211 -0.0854  0.2863
16229TIP3    H270103   3.800   4.640  15.020  0.1204 -0.1848  1.3220
16230TIP3   OH270104   3.648   0.401   3.757  0.4758 -0.2801 -0.0808
16230TIP3    H170105   3.742   0.404   3.773  0.4387 -1.2649  0.3150
16230TIP3    H270106   3.621   0.315   3.787 -0.3517 -0.4662 -1.3219
16231TIP3   OH270107   2.429   1.136   3.896 -0.2287 -0.0400  0.4597
16231TIP3    H170108   2.424   1.154   3.990  1.0839 -1.2544  0.7789
16231TIP3    H270109   2.470   1.050   3.891 -0.6278 -0.1363 -1.2198
16232TIP3   OH270110   3.234   3.519   2.245  0.3671 -0.3093 -0.5879
16232TIP3    H170111   3.255   3.480   2.329 -0.8020 -0.0573 -0.1573
16232TIP3    H270112   3.280   3.466   2.180 -0.8782 -2.1671  0.0146
16233TIP3   OH270113   3.699   6.988   2.091 -0.3535  0.2764 -0.4012
16233TIP3    H170114   3.736   7.039   2.163 -1.7238  1.5729 -0.5767
16233TIP3    H270115   3.635   6.930   2.133  1.7753 -1.9397 -0.1005
16234TIP3   OH270116   2.203   0.259   5.293 -0.1257 -0.2273 -0.8539
16234TIP3    H170117   2.282   0.207   5.308 -0.1890  0.2118  1.2792
16234TIP3    H270118   2.202   0.321   5.366 -1.9169  0.4246 -1.4118
16235TIP3   OH270119   2.054   3.962   1.966 -0.4496  0.1908 -0.1793
16235TIP3    H170120   1.986   3.949   2.033  1.5970  0.1168  1.9561
16235TIP3    H270121   2.046   4.055   1.943 -0.4199  0.5245  1.0704
16236TIP3   OH270122   1.189   6.775   2.554  0.3194 -0.6994 -0.1465
16236TIP3    H170123   1.096   6.762   2.573  0.4374  1.2324  2.1274
16236TIP3    H270124   1.232   6.696   2.586 -0.2790 -0.4445  1.3279
16237TIP3   OH270125   2.814   4.519   4.954  0.0359  0.1886 -0.3047
16237TIP3    H170126   2.724   4.504   4.984 -0.4168  1.8057 -0.7954
16237TIP3    H270127   2.864   4.535   5.034 -0.0975 -0.7249 -0.0297
16238TIP3   OH270128   1.988   1.088   3.687  0.0791 -0.0897  0.0205
16238TIP3    H170129   1.901   1.047   3.682  0.5053 -0.9267 -0.6651
16238TIP3    H270130   1.977   1.172   3.641 -0.1193 -0.6215 -0.9037
16239TIP3   OH270131   5.716   7.095   1.164 -0.5606 -0.1479 -1.0162
16239TIP3    H170132   5.682   7.128   1.247 -0.1015 -0.2113 -0.8015
16239TIP3    H270133   5.779   7.028   1.190  1.0801  1.2361 -1.3658
16240TIP3   OH270134   6.032   2.679   4.483  0.2742  0.0207 -0.0300
16240TIP3    H170135   6.047   2.584   4.480  2.0489  0.2939 -0.7569
16240TIP3    H270136   5.940   2.690   4.457  0.2165 -1.4663 -0.5176
16241TIP3   OH270137   1.791   6.181   5.260  0.3413  0.0082 -0.3089
16241TIP3    H170138   1.830   6.228   5.334 -1.8131  0.2666  0.7122
16241TIP3    H270139   1.826   6.092   5.267 -0.3479 -0.1577  1.4661
16242TIP3   OH270140   4.274   5.652   4.959 -0.2935 -0.1534  0.1246
16242TIP3    H170141   4.334   5.587   4.996  0.0893  1.4024  2.3408
16242TIP3    H270142   4.317   5.736   4.973 -1.9069  0.7944 -0.4241
16243TIP3   OH270143   2.673   6.403   2.115 -0.2611 -0.2162  0.1815
16243TIP3    H170144   2.714   6.458   2.048 -0.7922 -0.2772 -0.2003
16243TIP3    H270145   2.696   6.444   2.198  0.6396 -0.2996 -0.0290
16244TIP3   OH270146   6.137   0.349   1.050  0.2082  0.0032  0.1064
16244TIP3    H170147   6.230   0.358   1.073  0.2885 -0.5334  0.0018
16244TIP3    H270148   6.128   0.258   1.025 -0.6818 -0.3590  1.6678
16245TIP3   OH270149   1.432   6.906   1.714  0.2736 -0.3447  0.5036
16245TIP3    H170150   1.438   6.986   1.767 -1.7650 -0.6678  1.3062
16245TIP3    H270151   1.480   6.926   1.634  0.8520  1.2393  1.2221
16246TIP3   OH270152   6.345   4.847   3.779 -0.7540  0.1531  0.5924
16246TIP3    H170153   6.414   4.911   3.797 -0.8185  0.0292  1.3068
16246TIP3    H270154   6.264   4.899   3.781 -0.5998  0.4962 -1.3328
16247TIP3   OH270155   6.196   5.321   1.095  0.6095 -0.1690 -0.2099
16247TIP3    H170156   6.166   5.240   1.054  2.0589 -0.2868 -1.0667
16247TIP3    H270157   6.285   5.301   1.125  1.0203  1.1322 -0.5143
16248TIP3   OH270158   1.579   5.316   1.417 -0.1726  0.4491  0.1481
16248TIP3    H170159   1.553   5.258   1.345 -0.7736 -0.1792  0.8763
16248TIP3    H270160   1.675   5.313   1.416 -0.2015 -0.6793  0.2835
16249TIP3   OH270161   0.111   0.482  14.755 -0.6444 -0.6460  0.2494
16249TIP3    H170162   0.111   0.550  14.688 -0.9867 -0.5011  0.3907
16249TIP3    H270163   0.196   0.440  14.748 -0.9838 -1.1576 -0.8053
16250TIP3   OH270164   6.103   5.811   4.054  0.1817 -0.3994  0.3248
16250TIP3    H170165   6.109   5.866   4.132 -2.0008 -0.6570  0.7170
16250TIP3    H270166   6.186   5.762   4.053  0.0353 -0.7723  2.7833
16251TIP3   OH270167   3.627   5.925  15.527  0.3762  0.4705  0.5185
16251TIP3    H170168   3.593   6.014  15.536 -0.6168  0.0788  0.7580
16251TIP3    H270169   3.695   5.932  15.460 -0.7380  1.1411 -0.5694
16252TIP3   OH270170   4.383   6.391   2.575  0.4184  0.6247  0.0093
16252TIP3    H170171   4.418   6.468   2.530  1.1054  0.8185  0.8521
16252TIP3    H270172   4.456   6.329   2.575 -0.3950 -0.3483 -1.3933
16253TIP3   OH270173   2.400   0.091   5.201  0.2220 -0.3324  0.4044
16253TIP3    H170174   2.365   0.115   5.116  2.2914  2.1780  0.2003
16253TIP3    H270175   2.432   0.001   5.190 -0.1042 -0.2539 -1.2667
16254TIP3   OH270176   1.537   1.550  12.950 -0.0732 -0.1580 -0.4298
16254TIP3    H170177   1.462   1.526  13.004  0.3615  1.2589  0.8499
16254TIP3    H270178   1.578   1.467  12.927 -0.8955 -0.8373  0.4976
16255TIP3   OH270179   3.567   2.838   3.528 -0.0440  0.1662  0.4539
16255TIP3    H170180   3.600   2.770   3.469  0.1997  0.0657  0.7013
16255TIP3    H270181   3.574   2.919   3.478 -1.0822 -0.0960 -0.1262
16256TIP3   OH270182   2.713   5.932   4.372  0.0827  0.0345 -0.0275
16256TIP3    H170183   2.706   5.863   4.438 -1.7988  0.2128  0.0011
16256TIP3    H270184   2.795   5.914   4.326  0.7517 -0.8684  1.4916
16257TIP3   OH270185   1.580   1.592   3.013 -0.5153 -0.5206  0.0009
16257TIP3    H170186   1.517   1.581   2.942  0.4409 -0.6957 -0.8301
16257TIP3    H270187   1.658   1.546   2.983  0.6496  1.3097  0.1941
16258TIP3   OH270188   4.153   7.016   5.406 -0.3912  0.2212  0.3876
16258TIP3    H170189   4.181   6.924   5.405 -1.6345 -0.1862  1.3666
16258TIP3    H270190   4.229   7.064   5.439 -0.4176 -0.7125  1.8486
16259TIP3   OH270191   2.318   3.782   1.890 -0.4955 -0.3319  0.2676
16259TIP3    H170192   2.404   3.765   1.929  0.0463 -0.2024 -0.8314
16259TIP3    H270193   2.262   3.808   1.963  0.5257  0.0344  0.9212
16260TIP3   OH270194   2.682   4.981   4.962  0.2129 -0.6826 -0.2367
16260TIP3    H170195   2.737   4.925   4.907  1.0885  0.8797 -0.9967
16260TIP3    H270196   2.744   5.029   5.016 -0.5004 -0.0514  0.0277
16261TIP3   OH270197   2.650   6.571   5.141 -0.3840 -0.3955  0.7243
16261TIP3    H170198   2.559   6.565   5.110 -0.8240  1.9546  1.4628
16261TIP3    H270199   2.700   6.520   5.078 -1.8735  0.4374 -1.1757
16262TIP3   OH270200   1.736   1.826   4.326  0.0941 -0.3169 -0.2569
16262TIP3    H170201   1.812   1.768   4.318  1.1248  0.9965 -0.3339
16262TIP3    H270202   1.740   1.857   4.417 -0.9341 -0.9982  0.0323
16263TIP3   OH270203   4.654   5.196   1.806  0.1382 -0.4104  0.3060
16263TIP3    H170204   4.676   5.103   1.804  0.3444 -0.3537 -0.3640
16263TIP3    H270205   4.685   5.227   1.891  0.6740 -0.8086  0.2579
16264TIP3   OH270206   5.118   2.819  15.510 -0.2186 -0.7349  0.7552
16264TIP3    H170207   5.091   2.904  15.474 -1.1439 -0.8212  1.2530
16264TIP3    H270208   5.203   2.803  15.469  0.3925  0.8554  1.3398
16265TIP3   OH270209   1.552   4.727   3.403  0.6410 -0.4327 -0.3202
16265TIP3    H170210   1.588   4.798   3.350 -0.6573  0.2206 -0.3389
16265TIP3    H270211   1.473   4.764   3.442 -0.0736 -1.8796 -0.3707
16266TIP3   OH270212   2.473   1.753   3.760 -0.1462 -0.1795  0.0194
16266TIP3    H170213   2.538   1.685   3.776 -0.5503 -1.0646 -1.8948
16266TIP3    H270214   2.520   1.821   3.713 -0.4821 -0.6489 -1.0236
16267TIP3   OH270215   2.160   4.110   5.525 -0.3915  0.1465 -0.0775
16267TIP3    H170216   2.103   4.043   5.564  1.1447 -0.6101  0.8893
16267TIP3    H270217   2.234   4.118   5.586  0.5272  1.1625 -1.2965
16268TIP3   OH270218   2.794   3.982   4.203 -0.2611 -0.3355  0.5859
16268TIP3    H170219   2.855   3.947   4.268  0.8225 -0.6361 -0.5842
16268TIP3    H270220   2.796   3.919   4.132  0.5229  1.3085 -0.8725
16269TIP3   OH270221   1.721   1.329   3.592  0.4675 -0.0856  0.0446
16269TIP3    H170222   1.661   1.268   3.550  1.6470 -0.4379 -1.1925
16269TIP3    H270223   1.690   1.337   3.682  0.0864 -2.2141  0.1184
16270TIP3   OH270224   0.549   0.245   0.924  0.0148 -0.2171  0.2475
16270TIP3    H170225   0.536   0.297   0.845 -0.6007  0.7134  0.9672
16270TIP3    H270226   0.461   0.230   0.958  0.2124 -1.3960  0.2671
16271TIP3   OH270227   1.047   0.609   5.523 -0.8755  0.0232 -0.0826
16271TIP3    H170228   1.069   0.554   5.599  1.3366  0.4271 -0.3934
16271TIP3    H270229   1.020   0.547   5.456 -1.2129 -0.4605  0.4898
16272TIP3   OH270230   1.555   4.954   2.439 -0.4148  0.1269 -0.5803
16272TIP3    H170231   1.559   5.049   2.428  1.1471 -0.0060 -1.3516
16272TIP3    H270232   1.572   4.941   2.533  0.4062  0.5661 -0.6571
16273TIP3   OH270233   3.233   6.316   5.139 -0.3302 -0.5304  0.1325
16273TIP3    H170234   3.274   6.374   5.075  2.1082 -0.3633  1.7699
16273TIP3    H270235   3.255   6.228   5.108 -1.8263 -0.5424 -0.9395
16274TIP3   OH270236   3.153   1.957   2.056 -0.0688  0.1627  0.1027
16274TIP3    H170237   3.156   2.012   2.134 -1.2030 -0.1076  0.3432
16274TIP3    H270238   3.125   2.017   1.986 -1.1432 -0.0563  0.3326
16275TIP3   OH270239   5.728   2.329   2.811 -0.0895 -0.5827  0.3807
16275TIP3    H170240   5.781   2.253   2.836  0.8163  0.2285  0.9738
16275TIP3    H270241   5.638   2.298   2.815  0.3316 -2.0131 -0.7382
16276TIP3   OH270242   5.509   2.118   1.843  0.0073 -0.3427  0.0111
16276TIP3    H170243   5.474   2.147   1.759 -0.1351 -0.1920  0.1222
16276TIP3    H270244   5.560   2.040   1.822 -0.0156 -0.2972 -0.2175
16277TIP3   OH270245   5.857   0.544   5.109 -0.5360 -0.1838 -0.3658
16277TIP3    H170246   5.846   0.623   5.056 -0.2281 -0.3916 -0.7359
16277TIP3    H270247   5.775   0.496   5.098 -1.2455  0.7208  0.9092
16278TIP3   OH270248   4.841   4.450   3.937 -0.2761  0.0755  0.1322
16278TIP3    H170249   4.788   4.520   3.974  0.7129 -0.0616  1.8579
16278TIP3    H270250   4.780   4.378   3.921 -0.7645  0.2194  1.3234
16279TIP3   OH270251   3.562   2.404   2.199 -0.6181 -0.4192 -0.4672
16279TIP3    H170252   3.630   2.409   2.266  0.3114  0.8686 -1.5061
16279TIP3    H270253   3.593   2.460   2.128 -1.8125 -1.4077 -1.7981
16280TIP3   OH270254   3.952   2.298   1.051  0.2631 -0.1942  0.1043
16280TIP3    H170255   3.874   2.348   1.026  0.1845  0.3737  1.4832
16280TIP3    H270256   4.026   2.353   1.025  0.1927 -0.0218  0.2734
16281TIP3   OH270257   2.433   1.733   4.605  0.3775  0.4246 -0.6207
16281TIP3    H170258   2.477   1.717   4.689  0.8964  1.1478 -0.7509
16281TIP3    H270259   2.504   1.736   4.541 -0.0082 -0.0111 -1.0720
16282TIP3   OH270260   0.660   2.965   2.324  0.8095 -0.3091  0.5466
16282TIP3    H170261   0.725   2.946   2.392  1.3816  2.2277  0.7620
16282TIP3    H270262   0.645   3.060   2.331 -0.8747 -0.4056 -1.3210
16283TIP3   OH270263   1.960   5.440   5.048 -0.1447 -0.3533 -0.2728
16283TIP3    H170264   1.881   5.389   5.063  0.3829 -1.6530 -1.8181
16283TIP3    H270265   2.029   5.376   5.030  0.5963  0.8511 -1.9575
16284TIP3   OH270266   4.344   1.832   4.251 -0.1858 -0.6575 -0.1412
16284TIP3    H170267   4.437   1.824   4.272 -0.3514 -0.4153  0.7400
16284TIP3    H270268   4.338   1.905   4.190 -0.0833  1.1443  1.9248
16285TIP3   OH270269   4.594   3.977   0.440 -0.0501 -0.5803  0.5722
16285TIP3    H170270   4.670   3.928   0.471 -0.4496 -0.9041  1.0448
16285TIP3    H270271   4.594   3.962   0.345  0.8200 -0.0862  0.4820
16286TIP3   OH270272   1.030   5.233   2.914 -0.2213  0.1175 -0.2540
16286TIP3    H170273   1.055   5.143   2.932  0.9978  0.4093 -0.4911
16286TIP3    H270274   1.012   5.271   3.000  0.1675 -0.0811 -0.0856
16287TIP3   OH270275   3.230   6.140   2.151 -0.3096  0.3246  0.1481
16287TIP3    H170276   3.282   6.197   2.208 -0.7166 -2.3931  3.4005
16287TIP3    H270277   3.140   6.153   2.180 -0.5964 -0.6083 -0.3179
16288TIP3   OH270278   3.904   3.637   2.249  0.0446 -0.1618  0.5253
16288TIP3    H170279   3.991   3.597   2.258  0.0122 -0.1494  0.8866
16288TIP3    H270280   3.922   3.723   2.210  0.1968 -0.1568  0.6055
16289TIP3   OH270281   5.956   0.943   3.244  0.3435  0.8172 -0.9240
16289TIP3    H170282   5.946   1.000   3.320 -0.5073 -0.7205  0.1640
16289TIP3    H270283   5.875   0.891   3.243  2.1778 -2.1389 -0.3366
16290TIP3   OH270284   4.341   4.335   3.494 -0.2667  0.1184 -0.3501
16290TIP3    H170285   4.302   4.257   3.454 -0.8578  0.0099  0.4191
16290TIP3    H270286   4.390   4.377   3.423  2.1421 -2.2943 -0.2125
16291TIP3   OH270287   2.624   6.245   3.705 -0.3352 -0.1072 -0.2048
16291TIP3    H170288   2.659   6.314   3.762  2.0473 -0.6048 -1.0082
16291TIP3    H270289   2.696   6.182   3.698 -2.6721 -3.0287  1.0370
16292TIP3   OH270290   6.064   0.578   2.507 -0.2717 -0.0714 -0.2235
16292TIP3    H170291   6.007   0.517   2.554  0.1552  0.2298  0.7094
16292TIP3    H270292   6.131   0.601   2.571 -1.1632  2.3870 -0.0954
16293TIP3   OH270293   7.158   5.698   3.603 -0.2473 -0.2290  0.5326
16293TIP3    H170294   7.227   5.727   3.662 -1.4721 -1.1288  2.4574
16293TIP3    H270295   7.122   5.779   3.567  2.0303  0.2387 -0.8126
16294TIP3   OH270296   4.976   3.290   1.577 -0.3549 -0.5863  0.9096
16294TIP3    H170297   4.945   3.241   1.501 -3.4223  0.6684  1.2633
16294TIP3    H270298   5.018   3.368   1.539 -2.3711  0.3173  0.4504
16295TIP3   OH270299   6.394   1.196   1.555 -0.2704  0.2075  0.3774
16295TIP3    H170300   6.300   1.177   1.551  0.1608 -1.8326 -0.7808
16295TIP3    H270301   6.418   1.174   1.645 -0.9053  0.8552  0.7184
16296TIP3   OH270302   0.417   6.970   5.074 -0.0865 -0.1023 -0.2940
16296TIP3    H170303   0.473   6.920   5.015 -0.1643 -0.5902  0.0463
16296TIP3    H270304   0.353   6.907   5.107 -0.4057  0.2966 -0.1361
16297TIP3   OH270305   0.633   3.956  14.167 -0.4822  0.0197  0.0164
16297TIP3    H170306   0.679   3.876  14.145 -0.6535 -0.2628  0.6780
16297TIP3    H270307   0.653   3.971  14.260 -2.4260 -0.5758  0.5398
16298TIP3   OH270308   7.101   0.794   3.757 -0.0008 -0.3517 -0.2628
16298TIP3    H170309   7.132   0.861   3.696  0.8221 -2.0652 -1.7998
16298TIP3    H270310   7.153   0.807   3.836  0.3734  0.6207 -0.6646
16299TIP3   OH270311   1.329   0.594   2.384  0.1280  0.2545  0.1383
16299TIP3    H170312   1.336   0.500   2.395  1.2168  0.0349 -2.0716
16299TIP3    H270313   1.317   0.629   2.472 -2.4566 -2.1024  0.7722
16300TIP3   OH270314   4.133   4.119   2.692 -0.1919 -0.1424  0.2321
16300TIP3    H170315   4.119   4.133   2.786  0.0649 -1.0374  0.4076
16300TIP3    H270316   4.045   4.118   2.655 -0.2914  0.2831  0.4548
16301TIP3   OH270317   3.766   5.438  15.031 -0.4081  0.3939 -0.0121
16301TIP3    H170318   3.826   5.365  15.046 -1.7633 -0.4399  1.7295
16301TIP3    H270319   3.729   5.421  14.944  0.5545 -0.0635 -0.3376
16302TIP3   OH270320   6.094   6.212   1.359 -0.0721 -0.1325 -0.0820
16302TIP3    H170321   6.165   6.149   1.376 -1.3773 -1.3264  1.0976
16302TIP3    H270322   6.139   6.293   1.338  1.6607 -1.3704 -1.3271
16303TIP3   OH270323   1.185   2.982   3.054  0.3018  0.0572  0.0962
16303TIP3    H170324   1.169   3.054   3.116  1.2323  0.4964 -0.1648
16303TIP3    H270325   1.268   3.005   3.011  1.4100 -1.9144  1.0840
16304TIP3   OH270326   6.135   0.797   1.698 -0.2657  0.3380 -0.2383
16304TIP3    H170327   6.082   0.835   1.768 -0.2664  1.2965 -0.7664
16304TIP3    H270328   6.152   0.707   1.728 -1.2945  0.3526  0.4196
16305TIP3   OH270329   1.650   4.759   3.871  0.2291  0.7839 -0.4252
16305TIP3    H170330   1.644   4.679   3.819  1.7066  0.2753  0.1843
16305TIP3    H270331   1.613   4.735   3.956  0.5026  0.7989 -0.3018
16306TIP3   OH270332   3.208   3.261   2.901 -0.0836  0.4908 -0.4353
16306TIP3    H170333   3.186   3.232   2.989  0.8685  2.9467  0.6485
16306TIP3    H270334   3.148   3.214   2.844 -1.4410 -0.2987  1.6100
16307TIP3   OH270335   3.467   4.421   4.651 -0.0692  0.3493 -0.2369
16307TIP3    H170336   3.432   4.504   4.619 -2.0691 -0.1278  0.6052
16307TIP3    H270337   3.562   4.429   4.641 -0.4331  1.3111 -3.5908
16308TIP3   OH270338   4.239   2.035   4.693 -0.7105 -0.0517 -0.6098
16308TIP3    H170339   4.219   1.981   4.617 -0.6012  0.6415 -1.1439
16308TIP3    H270340   4.206   2.122   4.669 -0.6061  0.1899  0.1042
16309TIP3   OH270341   6.508   6.843   1.523 -0.2273 -0.4295  0.2416
16309TIP3    H170342   6.527   6.749   1.527  0.1538 -0.5566 -2.9061
16309TIP3    H270343   6.432   6.848   1.464  0.3603  1.2840 -0.3817
16310TIP3   OH270344   4.178   0.175   2.983  0.2350 -0.2763  0.2763
16310TIP3    H170345   4.107   0.113   3.001 -1.3269  1.5912  0.7722
16310TIP3    H270346   4.236   0.167   3.059 -1.1605  0.4721  1.4580
16311TIP3   OH270347   5.995   5.091   4.591  0.2149  0.7224 -0.0922
16311TIP3    H170348   5.988   5.169   4.535 -0.2873 -0.8495 -2.3077
16311TIP3    H270349   6.088   5.082   4.607  0.6057  0.0236 -2.4927
16312TIP3   OH270350   4.954   2.575   1.507  0.3935  0.1701  0.0439
16312TIP3    H170351   4.947   2.667   1.534  0.5014 -0.0756  0.9408
16312TIP3    H270352   5.023   2.539   1.563 -0.6293 -0.8085  0.7212
16313TIP3   OH270353   3.487   6.884   1.598 -0.0104 -0.3752  0.1399
16313TIP3    H170354   3.537   6.868   1.677  0.7668 -0.9594 -0.4689
16313TIP3    H270355   3.526   6.964   1.561 -0.2285 -0.2286  0.2235
16314TIP3   OH270356   5.291   4.657   6.262  0.4014  0.3150 -0.2269
16314TIP3    H170357   5.376   4.700   6.266  0.1061  0.8380  0.5871
16314TIP3    H270358   5.242   4.706   6.197  0.1403  1.0950  0.5436
16315TIP3   OH270359   5.311   4.263   1.988  0.2973  0.5153  0.3525
16315TIP3    H170360   5.401   4.291   1.969  0.1771 -0.8499 -2.4069
16315TIP3    H270361   5.321   4.170   2.012 -0.4250  0.2591 -0.3508
16316TIP3   OH270362   2.898   2.224   3.904  0.3480 -0.2898 -0.0689
16316TIP3    H170363   2.867   2.147   3.856  0.2679 -0.8435  0.8653
16316TIP3    H270364   2.966   2.190   3.962 -0.5676  0.1276  1.2640
16317TIP3   OH270365   0.329   2.991   1.166 -0.1389  0.3557 -0.2215
16317TIP3    H170366   0.412   2.984   1.120 -0.9367  0.0229 -1.6250
16317TIP3    H270367   0.294   2.902   1.167 -1.2107  0.7458 -1.0423
16318TIP3   OH270368   1.822   6.263   1.577 -0.2569 -0.2693  0.6888
16318TIP3    H170369   1.835   6.182   1.528  0.3717 -0.4677  1.1713
16318TIP3    H270370   1.771   6.238   1.654  0.9493 -0.4291  1.4457
16319TIP3   OH270371   0.686   0.294   3.069 -0.4714  0.1167  0.1328
16319TIP3    H170372   0.741   0.330   3.139 -0.4973  0.5930 -0.0922
16319TIP3    H270373   0.747   0.251   3.010 -0.5956 -1.7522  1.3141
16320TIP3   OH270374   1.642   6.857   5.789 -0.7918  0.3095 -0.9577
16320TIP3    H170375   1.714   6.797   5.772 -1.0927 -1.0624  2.3622
16320TIP3    H270376   1.567   6.801   5.807 -1.6056  1.6807  0.0231
16321TIP3   OH270377   4.576   3.765   2.904 -0.1119 -0.3248 -0.2364
16321TIP3    H170378   4.569   3.814   2.986  0.9076  0.3086 -0.5194
16321TIP3    H270379   4.667   3.736   2.901 -0.4510 -1.3894 -0.5590
16322TIP3   OH270380   3.861   4.141   2.723 -0.7135  0.4091  0.1607
16322TIP3    H170381   3.878   4.234   2.737 -2.0702  0.8998 -1.3216
16322TIP3    H270382   3.789   4.121   2.783 -0.2184  0.2233  0.7027
16323TIP3   OH270383   6.956   4.600   3.305 -0.3435 -0.5680  0.3014
16323TIP3    H170384   6.929   4.654   3.379  0.5422  0.6780 -0.2671
16323TIP3    H270385   7.035   4.555   3.336 -0.3667 -0.5765  0.3503
16324TIP3   OH270386   5.127   5.743   2.606  0.0105 -0.6244 -0.3587
16324TIP3    H170387   5.220   5.723   2.598  0.2376  0.0213  0.6753
16324TIP3    H270388   5.124   5.827   2.652 -1.0886 -0.7561 -0.1749
16325TIP3   OH270389   5.974   0.234  14.735 -0.6189 -0.6878 -0.1708
16325TIP3    H170390   6.023   0.245  14.816 -0.9535  0.9083 -0.1730
16325TIP3    H270391   5.957   0.140  14.730  3.3115 -1.4649 -0.6816
16326TIP3   OH270392   2.452   6.527   2.831 -0.8268 -0.2574 -0.4177
16326TIP3    H170393   2.473   6.600   2.772  1.0785  0.0772  0.6622
16326TIP3    H270394   2.388   6.563   2.893  1.1097  0.9066  0.9362
16327TIP3   OH270395   1.721   4.606   2.674 -0.4315  0.1676  0.2717
16327TIP3    H170396   1.801   4.658   2.682  0.0915 -0.9027  2.2773
16327TIP3    H270397   1.750   4.526   2.629 -0.3694 -0.2173  0.9914
16328TIP3   OH270398   4.986   5.724   2.100  0.0209  0.3733 -0.5222
16328TIP3    H170399   5.030   5.770   2.172 -0.2604  0.1655 -0.2175
16328TIP3    H270400   4.939   5.793   2.053  0.0956  0.4909 -0.4250
16329TIP3   OH270401   4.464   5.413   2.891 -0.2898  0.7286 -0.0701
16329TIP3    H170402   4.452   5.424   2.986 -1.4322 -1.1504  0.0323
16329TIP3    H270403   4.375   5.407   2.857  0.1315 -0.4150 -1.0154
16330TIP3   OH270404   5.803   0.892   4.463 -0.2333 -0.8839  0.1790
16330TIP3    H170405   5.747   0.817   4.441  0.8690 -1.7957  0.4482
16330TIP3    H270406   5.742   0.960   4.492 -1.4649 -0.8015 -2.4795
16331TIP3   OH270407   3.434   6.753   3.494  0.5607 -0.3310  0.2030
16331TIP3    H170408   3.419   6.690   3.423  0.0013 -0.0296  0.0584
16331TIP3    H270409   3.515   6.722   3.536  1.4675  0.0946 -1.2215
16332TIP3   OH270410   0.418   1.595  12.845  0.1530 -0.4103  0.0457
16332TIP3    H170411   0.392   1.550  12.925  0.1418 -0.8916 -0.2226
16332TIP3    H270412   0.398   1.533  12.775  0.6111 -0.1874 -0.2880
16333TIP3   OH270413   2.373   5.024   1.934  0.5545 -0.1556  0.0829
16333TIP3    H170414   2.456   5.040   1.889  0.1688 -0.9701 -0.9400
16333TIP3    H270415   2.314   4.995   1.865 -0.2257 -0.8246  1.0222
16334TIP3   OH270416   5.992   6.596   4.040  1.0079  0.4290 -0.6853
16334TIP3    H170417   6.087   6.606   4.049  1.2916 -1.1142 -1.7454
16334TIP3    H270418   5.976   6.503   4.058 -0.2983  0.6722 -0.5438
16335TIP3   OH270419   0.476   6.392   4.087 -0.7859  0.0826  0.0256
16335TIP3    H170420   0.419   6.470   4.085 -2.3614 -1.0622 -1.0300
16335TIP3    H270421   0.418   6.321   4.114  0.5086 -0.8395  0.4164
16336TIP3   OH270422   5.212   6.361  15.504 -0.0558  0.7703 -0.3641
16336TIP3    H170423   5.290   6.312  15.530  0.0227  1.0556 -0.0526
16336TIP3    H270424   5.241   6.453  15.502 -0.4944  0.9244  0.1868
16337TIP3   OH270425   6.694   6.440   2.900 -0.4787  0.3043  0.0818
16337TIP3    H170426   6.691   6.347   2.920 -1.9569  0.3400  0.0654
16337TIP3    H270427   6.775   6.471   2.942 -0.1620 -0.9017  0.3761
16338TIP3   OH270428   0.197   4.637   4.209 -0.2242  0.1651 -0.0917
16338TIP3    H170429   0.120   4.654   4.154  0.7630  2.1049 -0.9279
16338TIP3    H270430   0.161   4.602   4.291 -1.8436 -0.8479 -1.2072
16339TIP3   OH270431   4.686   0.684  12.273  0.4831 -0.3074 -0.3506
16339TIP3    H170432   4.599   0.652  12.297 -0.1167  0.2407 -1.7919
16339TIP3    H270433   4.671   0.747  12.203  1.9983  0.2147 -0.2336
16340TIP3   OH270434   6.386   6.797   3.745 -0.4303 -0.1590  0.1319
16340TIP3    H170435   6.468   6.840   3.723 -0.1312 -0.8294 -0.0998
16340TIP3    H270436   6.389   6.715   3.696 -1.0883 -0.3364  0.3843
16341TIP3   OH270437   1.435   4.433   4.506  1.3905  0.1779 -0.8049
16341TIP3    H170438   1.365   4.438   4.572  0.8318 -0.3560 -1.3446
16341TIP3    H270439   1.422   4.349   4.464  1.3572  0.7789 -2.0225
16342TIP3   OH270440   2.188   4.438   1.155  0.1569  0.1326  0.2203
16342TIP3    H170441   2.239   4.401   1.228  1.1872  1.2691  0.0838
16342TIP3    H270442   2.241   4.420   1.077 -0.6065 -0.4459 -0.1689
16343TIP3   OH270443   3.794   5.947   3.679 -0.3591 -0.7966  0.2004
16343TIP3    H170444   3.752   5.895   3.610  1.5565 -0.5127 -1.2519
16343TIP3    H270445   3.858   6.001   3.632  1.2640 -0.8589  2.2517
16344TIP3   OH270446   0.444   5.304   2.972 -0.0499 -0.1577  0.3738
16344TIP3    H170447   0.459   5.399   2.973 -0.3062 -0.1130 -0.0078
16344TIP3    H270448   0.450   5.279   2.880 -0.9777 -0.3453  0.3557
16345TIP3   OH270449   4.162   4.622   0.692  0.3922  0.3419 -0.0341
16345TIP3    H170450   4.182   4.585   0.778  0.4150 -0.6439 -0.4660
16345TIP3    H270451   4.068   4.642   0.695  0.3313  0.0247  0.1082
16346TIP3   OH270452   1.124   0.335   3.665 -0.2812 -0.2089 -0.3272
16346TIP3    H170453   1.075   0.404   3.710 -2.4736 -1.7848 -0.2392
16346TIP3    H270454   1.169   0.288   3.735 -0.1716  0.0484 -0.2233
16347TIP3   OH270455   2.734   4.538   2.953  0.1430  0.2743 -0.3709
16347TIP3    H170456   2.779   4.477   2.894 -1.2544  0.7525 -1.9519
16347TIP3    H270457   2.747   4.500   3.040  0.9764 -1.2257 -1.1267
16348TIP3   OH270458   3.314   5.534   3.441  0.4066 -0.1551 -0.6700
16348TIP3    H170459   3.383   5.599   3.454  1.0075 -1.0020  0.4574
16348TIP3    H270460   3.299   5.498   3.529 -1.3009 -0.1464 -0.9458
16349TIP3   OH270461   5.866   6.863   3.610 -0.0698 -0.5697 -0.2220
16349TIP3    H170462   5.806   6.806   3.656  1.1234  0.1272  2.2913
16349TIP3    H270463   5.924   6.897   3.678  0.0864  2.5867 -1.8259
16350TIP3   OH270464   2.312   3.666   0.994 -0.4129 -0.2362 -0.1414
16350TIP3    H170465   2.354   3.692   1.075  0.5166  0.1968 -0.7528
16350TIP3    H270466   2.218   3.668   1.013 -0.1651 -1.1852  1.2293
16351TIP3   OH270467   4.812   0.180   3.803  0.3253  0.3059  0.0170
16351TIP3    H170468   4.804   0.085   3.803  0.5607  0.2847  0.4602
16351TIP3    H270469   4.764   0.209   3.880 -0.7902  0.6408 -0.7956
16352TIP3   OH270470   5.018   5.568   3.216 -0.2944 -0.1536  0.4629
16352TIP3    H170471   5.083   5.584   3.148  0.4495  0.7393  1.3729
16352TIP3    H270472   4.950   5.634   3.200 -0.6785 -0.6702 -0.0874
16353TIP3   OH270473   0.479   2.503   0.094  0.3086 -0.5087 -0.4255
16353TIP3    H170474   0.492   2.408   0.102 -1.6411 -0.7783 -0.1968
16353TIP3    H270475   0.390   2.512   0.060  1.2014  1.1952 -2.4274
16354TIP3   OH270476   6.582   2.232   0.576  0.0488  0.5449 -0.2062
16354TIP3    H170477   6.497   2.274   0.572 -0.5417 -0.3880  1.7236
16354TIP3    H270478   6.643   2.298   0.542 -1.0578  2.3293  1.1565
16355TIP3   OH270479   2.523   5.875   2.236  0.0285  0.2587 -0.3643
16355TIP3    H170480   2.549   5.962   2.207  0.4685  0.0311 -0.6640
16355TIP3    H270481   2.485   5.889   2.322 -0.6280  0.8481 -0.7440
16356TIP3   OH270482   6.831   2.211   1.036  0.3356  0.4593 -0.0662
16356TIP3    H170483   6.911   2.220   0.985  0.4067  3.1912  0.4745
16356TIP3    H270484   6.761   2.214   0.971  0.6090 -1.3239 -0.4757
16357TIP3   OH270485   3.536   3.661   3.913  0.2233 -0.3458 -0.5689
16357TIP3    H170486   3.518   3.617   3.830  3.9610 -1.2720 -0.9737
16357TIP3    H270487   3.526   3.754   3.893 -0.3072 -0.6306 -1.6627
16358TIP3   OH270488   0.547   0.494   2.924 -0.2661 -0.2290 -0.6815
16358TIP3    H170489   0.610   0.435   2.964  1.8807  1.5536 -1.3008
16358TIP3    H270490   0.467   0.442   2.914 -0.0761 -1.4627  3.4794
16359TIP3   OH270491   6.292   7.096   3.129 -0.1556 -0.1458  0.1522
16359TIP3    H170492   6.361   7.035   3.154 -1.0144 -1.1522  0.0863
16359TIP3    H270493   6.210   7.047   3.140 -0.7962  0.6646 -0.8411
16360TIP3   OH270494   3.406   5.794   1.096  0.0942 -0.2831  0.3501
16360TIP3    H170495   3.380   5.753   1.014 -0.6541 -1.6211  1.2401
16360TIP3    H270496   3.498   5.819   1.083  0.6583 -2.5263 -0.0948
16361TIP3   OH270497   1.798   3.846   4.696  0.5130 -0.8597 -0.2907
16361TIP3    H170498   1.743   3.910   4.742  1.2960 -1.1415  1.0709
16361TIP3    H270499   1.758   3.838   4.610  0.5011  1.6228 -0.5733
16362TIP3   OH270500   5.716   4.055   5.742  0.0506 -0.1272 -0.3997
16362TIP3    H170501   5.643   3.994   5.752  0.3519 -0.4128  0.0580
16362TIP3    H270502   5.767   4.045   5.822  0.8272 -0.2433 -0.9016
16363TIP3   OH270503   6.106   5.454   3.905 -0.0623  0.3601  0.2759
16363TIP3    H170504   6.118   5.387   3.838  0.3679  2.3156 -1.6367
16363TIP3    H270505   6.179   5.442   3.966  1.6924  0.9654 -1.6830
16364TIP3   OH270506   2.568   0.566   5.167 -0.4647  0.3774 -0.3285
16364TIP3    H170507   2.514   0.589   5.091 -1.2977  0.1538  0.1838
16364TIP3    H270508   2.514   0.590   5.243 -0.1869 -0.6287  0.1986
16365TIP3   OH270509   5.269   4.960  13.188  0.1510 -0.7931 -0.4407
16365TIP3    H170510   5.183   4.939  13.224 -0.3775 -0.7372 -1.6664
16365TIP3    H270511   5.276   4.906  13.109  1.2608 -0.8369 -0.3144
16366TIP3   OH270512   4.181   5.346   3.449 -0.1926  0.2583 -0.2300
16366TIP3    H170513   4.263   5.298   3.455 -1.0104 -0.9285  2.6177
16366TIP3    H270514   4.204   5.428   3.407  2.8685  0.7861  2.2762
16367TIP3   OH270515   5.689   2.103   3.203 -0.0835  0.0531  0.1322
16367TIP3    H170516   5.685   2.115   3.108 -1.9189  0.5579  0.2605
16367TIP3    H270517   5.627   2.033   3.222  0.9787 -0.7034  0.8647
16368TIP3   OH270518   2.556   1.085  15.481 -0.0079 -0.5821 -0.2994
16368TIP3    H170519   2.644   1.064  15.513  0.0217 -0.7705 -0.5047
16368TIP3    H270520   2.518   1.000  15.459 -0.7629 -0.6317  1.1222
16369TIP3   OH270521   2.957   6.937   0.958  0.4480  0.3090  0.3173
16369TIP3    H170522   3.036   6.982   0.989  0.8339 -2.1108  3.0821
16369TIP3    H270523   2.889   7.005   0.958  1.9075  1.8182  0.4399
16370TIP3   OH270524   4.220   6.667   1.676 -0.1802 -0.2671  0.2195
16370TIP3    H170525   4.166   6.599   1.637  2.3461 -2.1414 -0.0906
16370TIP3    H270526   4.258   6.627   1.754  1.8151  0.5252 -0.2951
16371TIP3   OH270527   5.216   5.218   1.795 -0.2975 -0.0729  0.2521
16371TIP3    H170528   5.260   5.194   1.713  0.5631 -0.9773  0.9708
16371TIP3    H270529   5.160   5.292   1.771 -0.0778 -0.3450 -1.1609
16372TIP3   OH270530   3.386   6.503   5.701 -0.4464 -0.0461 -0.2088
16372TIP3    H170531   3.335   6.575   5.664  1.0221  0.6003 -1.0521
16372TIP3    H270532   3.331   6.467   5.771 -1.4844  1.4574 -0.2340
16373TIP3   OH270533   5.362   0.080   1.675  0.2447 -0.2521 -0.1218
16373TIP3    H170534   5.418   0.124   1.738  0.0429  1.7755 -1.3184
16373TIP3    H270535   5.273   0.103   1.701  0.0849 -0.9003 -0.0819
16374TIP3   OH270536   6.595   6.643   3.049  0.4120  0.0667 -0.0256
16374TIP3    H170537   6.667   6.703   3.030  0.8974 -0.4361  0.2085
16374TIP3    H270538   6.606   6.571   2.987  0.1185 -0.0142  0.0130
16375TIP3   OH270539   2.822   5.771   2.205  0.0372 -0.2581 -0.2911
16375TIP3    H170540   2.731   5.747   2.189  0.0529  0.1504 -1.0047
16375TIP3    H270541   2.869   5.743   2.127  0.3567  0.4467 -0.3539
16376TIP3   OH270542   6.217   6.346   0.030  0.5512 -0.3503 -0.3255
16376TIP3    H170543   6.250   6.334   0.119 -0.1442 -0.6663 -0.1097
16376TIP3    H270544   6.146   6.409   0.039  0.1927 -0.7156 -0.5919
16377TIP3   OH270545   3.815   1.527   3.482 -0.1426  0.0248  0.5269
16377TIP3    H170546   3.768   1.445   3.466  0.7804 -0.3482 -0.3060
16377TIP3    H270547   3.891   1.523   3.424  0.0252  1.3762  0.6350
16378TIP3   OH270548   5.748   6.643   4.707 -0.9395  0.3039  0.5021
16378TIP3    H170549   5.708   6.729   4.720 -2.6565 -0.7237  2.3617
16378TIP3    H270550   5.816   6.658   4.641 -1.7724  2.9018  0.1574
16379TIP3   OH270551   4.539   1.258   0.469 -0.4142  0.0679 -0.4755
16379TIP3    H170552   4.566   1.222   0.385  0.6049 -1.3732  0.4551
16379TIP3    H270553   4.446   1.234   0.477  0.0772 -1.8133 -0.1677
16380TIP3   OH270554   5.446   5.135  11.002 -0.5772  0.8249  0.5317
16380TIP3    H170555   5.526   5.083  10.991  0.2701  2.3760 -0.8350
16380TIP3    H270556   5.474   5.226  10.991 -2.3153  1.4761  1.2722
16381TIP3   OH270557   2.121   3.360   2.359 -0.0623 -0.0230 -0.1154
16381TIP3    H170558   2.176   3.299   2.310  0.2611  0.8856 -0.8965
16381TIP3    H270559   2.110   3.435   2.301 -0.7042  0.5382  0.7138
16382TIP3   OH270560   2.837   3.959   5.234  0.0620  0.4763  0.0995
16382TIP3    H170561   2.930   3.937   5.235 -0.9056 -4.2831 -2.4304
16382TIP3    H270562   2.822   3.999   5.149 -0.2476  1.1822  0.4792
16383TIP3   OH270563   0.871   2.194   2.700  0.5124 -0.3417 -0.1635
16383TIP3    H170564   0.858   2.099   2.703  1.9905 -0.5326  0.2015
16383TIP3    H270565   0.952   2.209   2.747  0.6906  1.0365 -0.8935
16384TIP3   OH270566   3.294   4.619   3.789 -0.6052 -0.4918 -0.1622
16384TIP3    H170567   3.350   4.695   3.805 -0.4626 -0.7242  0.4346
16384TIP3    H270568   3.220   4.631   3.848 -0.2663 -1.1486  0.3949
16385TIP3   OH270569   1.751   4.345   1.217  0.6766 -0.1473 -0.1415
16385TIP3    H170570   1.709   4.351   1.131 -1.1219 -2.4652  0.5317
16385TIP3    H270571   1.804   4.425   1.223  0.0288  0.5606 -2.9562
16386TIP3   OH270572   4.783   4.993   4.301 -0.3304 -0.0965 -0.0865
16386TIP3    H170573   4.862   4.971   4.251 -0.1412 -2.9710  1.3463
16386TIP3    H270574   4.815   5.032   4.382 -0.5868  2.9351 -1.3674
16387TIP3   OH270575   2.393   6.836   1.270  0.0188  0.5316 -0.2798
16387TIP3    H170576   2.479   6.795   1.263 -1.1165 -1.7524 -1.7676
16387TIP3    H270577   2.392   6.876   1.357  2.4798  0.4080 -0.1565
16388TIP3   OH270578   1.247   2.467   1.693 -0.0108 -0.0092  0.0832
16388TIP3    H170579   1.318   2.411   1.661  0.5985  1.0732 -0.4875
16388TIP3    H270580   1.176   2.407   1.713  1.3472 -1.1976  1.4374
16389TIP3   OH270581   5.432   0.392   4.850 -0.0185 -0.2031 -0.0588
16389TIP3    H170582   5.347   0.354   4.872  0.8662 -2.0865  0.2338
16389TIP3    H270583   5.476   0.324   4.798  0.7977  1.2697 -1.3374
16390TIP3   OH270584   5.336   1.710   4.184  0.0082  0.3242  0.0144
16390TIP3    H170585   5.344   1.640   4.119  0.7884 -0.9757  1.4731
16390TIP3    H270586   5.402   1.774   4.159 -0.4874  0.3960 -1.1392
16391TIP3   OH270587   4.354   3.017   2.118  0.4213 -0.2317 -0.7103
16391TIP3    H170588   4.323   2.965   2.044  3.6368 -1.7824 -1.0126
16391TIP3    H270589   4.357   2.956   2.192 -0.8791  0.8436  0.2754
16392TIP3   OH270590   0.265   6.519   3.416  0.5817 -0.3624  0.0339
16392TIP3    H170591   0.318   6.585   3.371  0.1018 -0.7140 -1.0644
16392TIP3    H270592   0.311   6.436   3.400  1.5799 -0.2355  2.0189
16393TIP3   OH270593   7.038   0.752   2.926 -0.4723 -0.1064  0.1371
16393TIP3    H170594   6.977   0.791   2.864  1.5819 -0.8135 -2.3923
16393TIP3    H270595   7.035   0.658   2.908  1.4460 -0.1425 -0.1517
16394TIP3   OH270596   3.841   6.946   4.924 -0.4261  0.2667  0.5377
16394TIP3    H170597   3.860   6.916   4.835 -4.8413 -0.1308 -0.4054
16394TIP3    H270598   3.836   7.041   4.917  0.1636  0.2996  0.5672
16395TIP3   OH270599   1.170   6.209   3.916  0.0506 -0.2094  0.4772
16395TIP3    H170600   1.114   6.265   3.864  0.5510 -0.1978 -0.0570
16395TIP3    H270601   1.110   6.154   3.966 -0.4312 -1.4127 -1.3911
16396TIP3   OH270602   2.967   5.860   4.285  0.0227  0.2211  0.0889
16396TIP3    H170603   3.001   5.782   4.329  0.8785  0.7475  0.3688
16396TIP3    H270604   3.029   5.930   4.306  0.7383  0.3860 -2.3749
16397TIP3   OH270605   5.720   6.073   4.095  0.5300 -0.0444 -0.4624
16397TIP3    H170606   5.692   6.108   4.179 -0.5796  1.2666 -1.3563
16397TIP3    H270607   5.808   6.039   4.111  0.4673  0.5245  1.1323
16398TIP3   OH270608   2.460   6.518   1.521  0.7389 -0.3750 -0.8274
16398TIP3    H170609   2.404   6.474   1.457 -0.5622 -0.5026  0.3679
16398TIP3    H270610   2.524   6.451   1.546  0.0342 -0.9555 -0.5445
16399TIP3   OH270611   2.639   0.201   1.680 -0.2564  0.3307 -0.0848
16399TIP3    H170612   2.701   0.191   1.752 -0.7857 -0.5194  0.2621
16399TIP3    H270613   2.691   0.186   1.601 -0.3015 -1.8349  0.2685
16400TIP3   OH270614   3.455   0.459   6.078 -0.4217  0.0735  0.0799
16400TIP3    H170615   3.493   0.373   6.063 -2.2295 -0.7247 -0.1265
16400TIP3    H270616   3.406   0.478   5.998  1.4902  2.1553 -0.6459
16401TIP3   OH270617   5.567   4.793   2.917  0.1014  0.1810 -0.1210
16401TIP3    H170618   5.529   4.736   2.984 -0.1488  1.0283  0.4672
16401TIP3    H270619   5.535   4.758   2.834 -0.6293 -0.1011  0.2812
16402TIP3   OH270620   2.885   5.589   3.282  0.1900  0.4962  0.1927
16402TIP3    H170621   2.977   5.615   3.288 -0.4417  2.7668  0.2104
16402TIP3    H270622   2.842   5.659   3.233 -1.7252 -0.0405  1.0428
16403TIP3   OH270623   4.459   3.552   1.811  0.0555  0.4097 -0.0189
16403TIP3    H170624   4.490   3.594   1.891 -0.0142 -0.6884  0.6056
16403TIP3    H270625   4.507   3.469   1.808 -0.6370  0.0205 -0.6130
16404TIP3   OH270626   3.482   6.631   3.998 -0.5932  0.0565 -0.1031
16404TIP3    H170627   3.438   6.703   3.953  0.4502  1.4326  1.0114
16404TIP3    H270628   3.449   6.552   3.956 -2.9539  1.1151 -0.2880
16405TIP3   OH270629   6.369   2.436  15.240 -0.5154  0.2482  0.0557
16405TIP3    H170630   6.362   2.440  15.335  2.3958 -3.0941  0.4908
16405TIP3    H270631   6.408   2.519  15.215  0.2415  0.4776  1.9431
16406TIP3   OH270632   0.226   4.771  14.493 -0.0765  0.3121 -0.6945
16406TIP3    H170633   0.292   4.753  14.425  0.3481 -1.9066  0.2428
16406TIP3    H270634   0.164   4.698  14.486  0.0332 -0.0214  1.3329
16407TIP3   OH270635   4.810   0.869   1.875  1.1429  0.0976  0.0918
16407TIP3    H170636   4.875   0.804   1.849  0.7907 -1.6130  3.3306
16407TIP3    H270637   4.862   0.942   1.911  1.4007  0.3757 -0.8254
16408TIP3   OH270638   1.287   6.249   4.828  0.7616  0.3728 -0.3760
16408TIP3    H170639   1.370   6.292   4.846  0.5220  0.6088  0.2047
16408TIP3    H270640   1.291   6.167   4.878  1.0883 -0.1323 -1.2242
16409TIP3   OH270641   4.026   5.026   2.593  0.0591  0.5439 -0.2600
16409TIP3    H170642   4.018   5.085   2.518 -0.1076  1.3240  0.3561
16409TIP3    H270643   4.053   5.083   2.665  0.7643 -0.2860  0.1459
16410TIP3   OH270644   5.918   4.598   5.669 -0.5624  0.0594  0.1161
16410TIP3    H170645   5.970   4.627   5.743 -0.7433  0.0737  0.2370
16410TIP3    H270646   5.866   4.525   5.703  0.0567 -0.5524 -0.2444
16411TIP3   OH270647   5.837   0.317   4.881 -0.5673 -0.0641  0.1507
16411TIP3    H170648   5.921   0.298   4.923  1.4052  1.8720 -2.6288
16411TIP3    H270649   5.824   0.244   4.821 -0.1216  0.2970 -0.4014
16412TIP3   OH270650   5.788   4.954   2.955 -0.1587  0.3710 -0.1412
16412TIP3    H170651   5.779   4.975   3.048  0.5601 -0.4896  0.1322
16412TIP3    H270652   5.727   4.881   2.940  0.5443 -0.2394 -0.0789
16413TIP3   OH270653   6.598   4.917   3.099 -0.4777  0.3530 -0.5268
16413TIP3    H170654   6.555   4.857   3.159 -0.0982  2.0327  1.5013
16413TIP3    H270655   6.691   4.911   3.121 -0.2632  0.5258 -1.3623
16414TIP3   OH270656   6.117   3.542   5.532 -0.9569  0.3678  0.9532
16414TIP3    H170657   6.145   3.632   5.552 -1.0703  0.5678  0.2292
16414TIP3    H270658   6.033   3.533   5.578 -1.7150  1.1745 -0.2383
16415TIP3   OH270659   3.251   2.394   4.651  0.7763  0.0425  0.6908
16415TIP3    H170660   3.180   2.392   4.715  0.2191 -1.5394  0.0329
16415TIP3    H270661   3.311   2.461   4.685 -0.2488  0.2975  2.0616
16416TIP3   OH270662   2.392   5.042   2.572  0.4208 -0.8566  0.5313
16416TIP3    H170663   2.468   5.044   2.514  0.0345  1.0496  0.0506
16416TIP3    H270664   2.317   5.038   2.514 -0.0565  3.0371  0.7363
16417TIP3   OH270665   2.774   6.522   3.506  0.1693  0.5692 -0.5836
16417TIP3    H170666   2.745   6.593   3.563 -0.3484 -0.2094  0.1240
16417TIP3    H270667   2.700   6.463   3.501  1.3988 -1.1626  0.7971
16418TIP3   OH270668   7.085   7.086   3.589 -0.1519 -0.1521 -0.2428
16418TIP3    H170669   6.994   7.105   3.569 -0.1356 -0.9060 -1.0482
16418TIP3    H270670   7.133   7.162   3.558 -0.2331 -0.8743 -2.2095
16419TIP3   OH270671   6.697   5.781   4.782 -0.0430 -0.0666 -0.3131
16419TIP3    H170672   6.771   5.733   4.820 -0.8102 -0.0594  1.2055
16419TIP3    H270673   6.722   5.873   4.788 -0.5270 -0.0118  0.9811
16420TIP3   OH270674   2.129   1.303   5.079 -0.2825  0.4838 -0.3741
16420TIP3    H170675   2.175   1.339   5.155 -0.7750 -1.1408  0.7178
16420TIP3    H270676   2.043   1.345   5.080 -0.1840  0.6804 -0.1958
16421TIP3   OH270677   3.644   3.988   3.178  0.0996 -0.1051  0.1738
16421TIP3    H170678   3.565   3.940   3.150  0.4978  0.1968 -1.5328
16421TIP3    H270679   3.665   3.951   3.263 -0.9840 -1.3034 -0.0535
16422TIP3   OH270680   1.523   4.962   4.824 -0.0477  0.1239  0.0901
16422TIP3    H170681   1.507   5.046   4.782  0.9541  0.6930  0.8195
16422TIP3    H270682   1.450   4.951   4.885  0.1236  0.7257  0.4008
16423TIP3   OH270683   3.904   1.091   2.035  1.0179 -0.2654  0.1495
16423TIP3    H170684   3.881   1.010   2.081  1.7987  0.2094  1.4123
16423TIP3    H270685   3.939   1.148   2.104  1.5701  0.7110 -0.9272
16424TIP3   OH270686   2.531   1.695   4.874  0.0794  0.1638 -0.5419
16424TIP3    H170687   2.529   1.735   4.960  1.5550  0.0028 -0.4311
16424TIP3    H270688   2.469   1.621   4.881  0.8682 -0.3944  0.6476
16425TIP3   OH270689   3.675   0.941   4.279  0.0194 -0.0122  0.2989
16425TIP3    H170690   3.630   0.925   4.362  0.7881  1.1596  0.9455
16425TIP3    H270691   3.610   0.916   4.212 -0.4618 -1.3499  1.2278
16426TIP3   OH270692   5.325   0.686   3.147 -0.5182 -0.3191 -0.1323
16426TIP3    H170693   5.347   0.704   3.055 -0.0348  1.0925  0.2519
16426TIP3    H270694   5.355   0.763   3.194  1.5176 -2.0824  1.5647
16427TIP3   OH270695   2.777   1.504   5.008  0.3490 -0.0012 -0.0376
16427TIP3    H170696   2.731   1.490   5.091 -0.0301 -1.2818 -0.4601
16427TIP3    H270697   2.798   1.598   5.009  0.6673 -0.0590  1.6597
16428TIP3   OH270698   6.089   3.962   0.711  0.6826  0.5932 -0.1816
16428TIP3    H170699   6.151   3.917   0.769 -0.9844 -1.1387  0.3336
16428TIP3    H270700   6.020   3.992   0.770  1.1680  2.7731 -0.7059
16429TIP3   OH270701   2.520   0.262   4.162 -0.2846 -0.5419 -0.4383
16429TIP3    H170702   2.602   0.270   4.113  0.0052 -1.2169 -0.0656
16429TIP3    H270703   2.475   0.187   4.123  0.6258 -2.0322  1.2763
16430TIP3   OH270704   5.043   6.738  15.036  0.0917 -0.0145 -0.2633
16430TIP3    H170705   4.976   6.670  15.033 -1.2964  1.2884 -0.0489
16430TIP3    H270706   5.047   6.771  14.946 -0.6935  0.9453  0.0398
16431TIP3   OH270707   4.987   3.570  12.707  0.7371 -0.5417  0.0156
16431TIP3    H170708   4.941   3.610  12.780  0.0023  0.1320 -0.8061
16431TIP3    H270709   5.009   3.482  12.737  0.1659 -0.3727  0.9274
16432TIP3   OH270710   7.049   0.932   0.634 -0.1469 -0.3727 -0.4417
16432TIP3    H170711   7.039   0.975   0.719 -0.7861  0.6185 -1.0151
16432TIP3    H270712   6.981   0.971   0.579  0.0613 -1.2338 -1.3243
16433TIP3   OH270713   4.509   6.211   4.225  0.0304 -0.0424 -0.1052
16433TIP3    H170714   4.470   6.247   4.305  2.1742  1.0026  0.5078
16433TIP3    H270715   4.589   6.166   4.255 -0.0003 -1.0494 -1.4688
16434TIP3   OH270716   4.379   6.105   5.512 -0.6600 -0.5637 -0.8699
16434TIP3    H170717   4.355   6.176   5.572 -1.4638 -0.3739 -1.4047
16434TIP3    H270718   4.370   6.025   5.565 -2.3132 -0.4782 -0.9935
16435TIP3   OH270719   5.372   2.961   4.606  0.2483 -0.0864  0.3126
16435TIP3    H170720   5.453   2.944   4.559 -0.5022 -1.0750 -0.6514
16435TIP3    H270721   5.378   2.909   4.686  0.7423  0.1709  0.4402
16436TIP3   OH270722   6.691   5.248   0.952  0.7767  0.7050  0.3872
16436TIP3    H170723   6.701   5.276   1.042 -1.7232  1.7427  0.3595
16436TIP3    H270724   6.713   5.325   0.900  0.1795  0.7101  0.1464
16437TIP3   OH270725   3.126   5.539   1.799 -0.1962  0.2031  0.0371
16437TIP3    H170726   3.221   5.549   1.801 -0.1465  1.6671 -4.4114
16437TIP3    H270727   3.112   5.459   1.747 -1.4033  0.5384 -0.1663
16438TIP3   OH270728   0.355   5.342   2.298  0.0553 -0.8784 -0.1846
16438TIP3    H170729   0.390   5.402   2.364  0.7140  0.8586 -2.0409
16438TIP3    H270730   0.263   5.333   2.320 -0.1923  1.2734 -0.1554
16439TIP3   OH270731   6.590   6.325   1.936 -0.1639 -0.2934 -0.3192
16439TIP3    H170732   6.587   6.234   1.966  1.4196 -0.3154 -0.2082
16439TIP3    H270733   6.504   6.339   1.896 -0.6435 -1.6505  0.1985
16440TIP3   OH270734   1.543   0.987   0.647  0.0892 -0.0663  0.7427
16440TIP3    H170735   1.617   1.047   0.657 -0.8815  1.3445 -0.3679
16440TIP3    H270736   1.583   0.905   0.618  1.0294  1.5422 -2.8184
16441TIP3   OH270737   2.042   3.946  14.389 -0.2464  0.3300  0.0921
16441TIP3    H170738   2.056   3.866  14.440  0.6499 -0.0061 -0.6537
16441TIP3    H270739   1.949   3.965  14.399 -0.0034  0.5269  2.2048
16442TIP3   OH270740   4.714   1.803   1.984  0.5441  0.0339 -0.0429
16442TIP3    H170741   4.733   1.866   2.053  0.7308  0.4954 -0.5112
16442TIP3    H270742   4.735   1.718   2.022  1.1191  0.3288  0.2975
16443TIP3   OH270743   1.414   1.899   3.698  0.4416 -0.4255  0.4119
16443TIP3    H170744   1.441   1.812   3.667 -1.2424 -0.4742 -1.0053
16443TIP3    H270745   1.493   1.953   3.689  0.7498 -1.1301 -1.3884
16444TIP3   OH270746   2.681   4.261   3.578  0.2386  0.3071 -0.2073
16444TIP3    H170747   2.693   4.321   3.505  0.6696  0.9418  0.3762
16444TIP3    H270748   2.598   4.287   3.617 -0.4638 -0.6512 -1.0424
16445TIP3   OH270749   5.761   4.081   3.811  0.3930 -0.0180  0.6346
16445TIP3    H170750   5.737   4.020   3.880 -0.7749 -1.8574 -1.3075
16445TIP3    H270751   5.766   4.026   3.732 -1.8786  2.5723 -1.3905
16446TIP3   OH270752   5.562   4.410   1.970  0.1985  0.4005  0.0611
16446TIP3    H170753   5.648   4.424   2.010 -0.2776 -0.4087  1.3700
16446TIP3    H270754   5.568   4.457   1.886  1.1608  2.1742  1.0788
16447TIP3   OH270755   2.322   0.843  14.491  0.6852  0.4561 -0.0472
16447TIP3    H170756   2.351   0.895  14.566  1.1268  1.1220 -0.6731
16447TIP3    H270757   2.381   0.869  14.420 -1.0337  1.3752 -1.1809
16448TIP3   OH270758   4.955   5.711   3.988  0.0139 -0.2409 -0.0727
16448TIP3    H170759   4.949   5.760   4.070 -0.4144  0.9468 -0.8029
16448TIP3    H270760   4.895   5.637   3.999 -3.1918  2.1674 -0.8561
16449TIP3   OH270761   3.101   6.247   1.078 -0.0870  0.2452 -0.0166
16449TIP3    H170762   3.095   6.157   1.045  0.3943 -0.2238  1.1420
16449TIP3    H270763   3.192   6.256   1.106 -0.8792  0.0490  2.7484
16450TIP3   OH270764   3.823   6.379   4.402  0.5450  0.8185  0.1801
16450TIP3    H170765   3.865   6.437   4.466  0.8432  0.2773  0.4828
16450TIP3    H270766   3.837   6.423   4.318 -1.8135  2.6712  0.7044
16451TIP3   OH270767   6.631   6.872   4.701 -0.0860 -0.1673 -0.0190
16451TIP3    H170768   6.578   6.950   4.688 -0.0545  0.1427  1.6123
16451TIP3    H270769   6.718   6.897   4.671 -0.4024 -0.0345 -0.8328
16452TIP3   OH270770   1.081   6.356   3.668  0.4091  0.7848 -0.1628
16452TIP3    H170771   1.005   6.305   3.695  2.2733 -1.3741  1.1385
16452TIP3    H270772   1.062   6.381   3.577 -0.1441 -2.9812 -1.1416
16453TIP3   OH270773   4.941   5.413   0.702 -0.3935 -0.1230 -0.3926
16453TIP3    H170774   5.023   5.366   0.717  0.0553  1.1910  1.4688
16453TIP3    H270775   4.879   5.345   0.678  1.1808 -1.1663 -1.6292
16454TIP3   OH270776   0.740   4.979   5.305  0.1280 -0.0115 -0.1658
16454TIP3    H170777   0.800   5.026   5.248  0.6886 -0.6976 -0.1571
16454TIP3    H270778   0.731   4.893   5.264  0.7951 -0.6207  0.9404
16455TIP3   OH270779   3.891   0.670   0.126  0.1774  0.3268 -0.5035
16455TIP3    H170780   3.817   0.720   0.091  0.3659  0.3904 -0.8155
16455TIP3    H270781   3.857   0.581   0.138  0.3557  0.0715 -1.7263
16456TIP3   OH270782   5.164   0.407   2.317  0.0035  0.0014 -0.1556
16456TIP3    H170783   5.186   0.342   2.250 -1.5073 -0.7221  0.0301
16456TIP3    H270784   5.123   0.479   2.268  0.4091  0.2086 -0.1946
16457TIP3   OH270785   4.225   5.730   1.461 -0.1331  0.4105 -0.5434
16457TIP3    H170786   4.189   5.703   1.546  1.9949 -2.7724 -0.5461
16457TIP3    H270787   4.272   5.811   1.480  0.0629 -0.0971  1.3003
16458TIP3   OH270788   0.569   2.225   1.626  0.1256 -0.0981 -0.4198
16458TIP3    H170789   0.497   2.165   1.642 -0.0754  0.2565  0.0129
16458TIP3    H270790   0.531   2.312   1.634  0.8068  0.1043  0.8745
16459TIP3   OH270791   4.814   0.730   3.835  0.0997 -0.1421 -0.5008
16459TIP3    H170792   4.739   0.787   3.852 -0.2823 -0.6999 -0.3329
16459TIP3    H270793   4.890   0.784   3.858 -0.2555  0.3339 -0.4274
16460TIP3   OH270794   6.643   6.160   4.630  0.0574  0.3186 -0.3526
16460TIP3    H170795   6.685   6.180   4.714  1.6993 -0.2003 -1.0321
16460TIP3    H270796   6.646   6.241   4.581  2.2778 -0.2671 -1.2333
16461TIP3   OH270797   1.080   3.973   3.066  0.5875  0.0829 -0.3970
16461TIP3    H170798   1.067   3.903   3.130  2.6807 -0.0895 -0.1272
16461TIP3    H270799   0.993   3.990   3.032 -0.5445 -0.0443  2.2608
16462TIP3   OH270800   4.060   3.865   5.004  0.3648  0.2761  0.1312
16462TIP3    H170801   4.143   3.826   4.977  0.8337  0.5845  1.1269
16462TIP3    H270802   4.022   3.802   5.065 -0.7780 -0.4986 -1.3295
16463TIP3   OH270803   0.989   1.022  14.573  0.1165  0.3693 -0.2739
16463TIP3    H170804   0.994   1.113  14.545 -0.1226  0.9357  1.4887
16463TIP3    H270805   1.080   0.991  14.568  1.1268  2.2917  4.2214
16464TIP3   OH270806   1.963   1.503   2.448 -0.0834  0.0612  0.4018
16464TIP3    H170807   1.962   1.408   2.434 -0.1278 -0.0866  1.3480
16464TIP3    H270808   2.043   1.520   2.496  1.5320  0.9425 -2.4865
16465TIP3   OH270809   6.813   6.246   4.343 -0.1580  0.3616  0.4779
16465TIP3    H170810   6.900   6.252   4.384  0.1853 -0.2694 -0.1446
16465TIP3    H270811   6.755   6.287   4.406  0.4805  0.0780  1.2751
16466TIP3   OH270812   0.418   2.373   2.060  0.1032 -0.7838 -0.4998
16466TIP3    H170813   0.485   2.340   2.121 -0.8247 -0.9362  0.4628
16466TIP3    H270814   0.439   2.331   1.977  2.1794  0.4606 -0.6166
16467TIP3   OH270815   2.905   1.013   1.440  0.3281  0.6726 -0.1667
16467TIP3    H170816   2.887   0.981   1.352 -0.8659 -1.2117  0.7498
16467TIP3    H270817   2.986   1.063   1.430 -0.0281  0.8794 -2.4096
16468TIP3   OH270818   0.810   2.708   4.051  0.0790 -0.1992 -0.4172
16468TIP3    H170819   0.751   2.709   4.127 -2.1788 -2.7341 -2.0332
16468TIP3    H270820   0.894   2.679   4.086 -0.9306 -1.3352  1.1423
16469TIP3   OH270821   3.029   2.195   0.991 -0.0035  0.0586 -0.2151
16469TIP3    H170822   3.026   2.280   0.947 -2.2089  0.1848  0.1373
16469TIP3    H270823   2.943   2.157   0.976  0.2985 -1.2747  1.3072
16470TIP3   OH270824   6.558   1.195   5.073  0.2081  0.1381  0.0948
16470TIP3    H170825   6.571   1.252   4.998  1.2157  0.4692  0.5041
16470TIP3    H270826   6.644   1.154   5.087 -0.2059 -0.6001  0.5085
16471TIP3   OH270827   5.611   6.105   5.147  0.3637  0.5996  0.6406
16471TIP3    H170828   5.610   6.054   5.227 -0.5211  0.8150  0.7698
16471TIP3    H270829   5.698   6.146   5.145  0.0033  1.4433  2.0224
16472TIP3   OH270830   4.617   3.936   1.542 -0.6552  0.4016 -0.4090
16472TIP3    H170831   4.598   4.013   1.594 -2.0559 -0.6623  0.6911
16472TIP3    H270832   4.547   3.932   1.477 -0.4143  0.2319 -0.6632
16473TIP3   OH270833   5.765   5.275   0.859  0.4744 -0.1490  0.4290
16473TIP3    H170834   5.729   5.261   0.946  0.6722 -2.0236  0.2381
16473TIP3    H270835   5.830   5.206   0.848  4.1107  3.0562  0.7083
16474TIP3   OH270836   0.254   7.095  15.122 -0.0772  0.3441  0.1200
16474TIP3    H170837   0.215   7.124  15.040  0.9419  0.5168 -0.3023
16474TIP3    H270838   0.346   7.079  15.101 -0.0842 -0.8124  0.9313
16475TIP3   OH270839   5.421   6.241   3.281  0.2084 -0.1353  0.1135
16475TIP3    H170840   5.363   6.304   3.239  1.1061 -0.1975 -1.2677
16475TIP3    H270841   5.489   6.295   3.322  0.3219 -0.1353 -0.0680
16476TIP3   OH270842   3.968   2.808   3.114 -0.0365 -0.3165 -0.3493
16476TIP3    H170843   3.927   2.845   3.035  0.1559  1.1205  0.2177
16476TIP3    H270844   4.061   2.803   3.093 -0.4074 -3.3632 -1.5497
16477TIP3   OH270845   1.746   5.763   0.659  0.5554 -0.2151  0.1427
16477TIP3    H170846   1.776   5.822   0.589  0.9858 -0.5909  0.0118
16477TIP3    H270847   1.750   5.676   0.620 -2.1017 -0.1477 -0.3687
16478TIP3   OH270848   4.797   1.881   3.199  0.6902  0.4018  0.7471
16478TIP3    H170849   4.732   1.914   3.137  1.1293  1.2283  0.7210
16478TIP3    H270850   4.800   1.787   3.182  2.2130  0.8592 -1.8468
16479TIP3   OH270851   2.480   1.360   3.742 -0.5438  0.2018 -0.2068
16479TIP3    H170852   2.469   1.286   3.802 -0.6560  0.0065 -0.4679
16479TIP3    H270853   2.513   1.321   3.662 -0.1599  0.4967 -0.1919
16480TIP3   OH270854   1.522   3.993   5.306 -0.7905  0.2741  0.3852
16480TIP3    H170855   1.467   3.920   5.332  1.7759 -2.0502 -0.4993
16480TIP3    H270856   1.577   4.011   5.383  2.5489 -2.5827 -1.2126
16481TIP3   OH270857   5.536   1.143   1.519 -0.2425 -1.1225  0.7728
16481TIP3    H170858   5.567   1.103   1.600 -0.6694 -0.3910  1.3024
16481TIP3    H270859   5.522   1.235   1.541  1.7794 -0.4156 -0.7307
16482TIP3   OH270860   0.412   0.283   1.358  0.2338  0.5271  0.0653
16482TIP3    H170861   0.474   0.333   1.305 -0.4719  1.5857  0.2207
16482TIP3    H270862   0.355   0.349   1.397 -1.5690 -0.4734 -0.8020
16483TIP3   OH270863   5.478   5.812   3.088  0.2938  0.3175  0.2188
16483TIP3    H170864   5.519   5.754   3.024  0.3934 -1.2224  1.6565
16483TIP3    H270865   5.490   5.768   3.172  0.3514  2.4210  1.3403
16484TIP3   OH270866   2.292   6.146   1.857 -0.1767  0.3098 -0.0164
16484TIP3    H170867   2.353   6.074   1.869 -0.6004 -0.3440 -1.5925
16484TIP3    H270868   2.339   6.223   1.888  0.4542 -0.5657  1.2468
16485TIP3   OH270869   4.206   5.480  15.022  0.3898 -0.3599  0.2136
16485TIP3    H170870   4.211   5.440  15.109  0.1528  3.6041  2.1711
16485TIP3    H270871   4.298   5.493  14.997  0.4521 -0.2584  0.4918
16486TIP3   OH270872   5.080   5.466   2.500  0.1757 -0.0365 -0.0229
16486TIP3    H170873   5.064   5.559   2.483  2.7768  0.9935  2.7301
16486TIP3    H270874   5.113   5.432   2.417  0.7254  1.9000 -0.6266
16487TIP3   OH270875   6.286   6.514   0.759  0.0022 -0.0534  0.1234
16487TIP3    H170876   6.283   6.421   0.736 -1.4178  0.3802 -1.5328
16487TIP3    H270877   6.325   6.515   0.846 -1.1356 -2.3053  0.7134
16488TIP3   OH270878   3.622   4.490   4.059 -0.3609  0.2618 -0.5827
16488TIP3    H170879   3.531   4.484   4.089 -1.2100  0.6747 -3.0182
16488TIP3    H270880   3.627   4.429   3.986  1.4819 -0.1319 -0.1491
16489TIP3   OH270881   0.898   1.648   2.110 -0.4178 -0.1041 -0.3668
16489TIP3    H170882   0.973   1.641   2.051 -0.4219 -0.5317 -0.3272
16489TIP3    H270883   0.927   1.605   2.190 -0.1555  1.1279  0.2075
16490TIP3   OH270884   1.393   6.880   3.328  0.2753 -0.5986 -0.2501
16490TIP3    H170885   1.390   6.806   3.389  1.9071 -0.2886  0.2284
16490TIP3    H270886   1.447   6.946   3.373  0.8326 -0.0581 -1.6911
16491TIP3   OH270887   5.110   6.362   4.305  0.4924 -0.0117  0.1531
16491TIP3    H170888   5.069   6.429   4.360  2.3699  1.1217  0.2297
16491TIP3    H270889   5.204   6.373   4.321  0.9128 -1.4859 -1.2154
16492TIP3   OH270890   0.313   5.804   5.404 -0.1352 -0.0354 -0.2211
16492TIP3    H170891   0.406   5.815   5.427 -0.3895  0.9000  0.3671
16492TIP3    H270892   0.268   5.797   5.487 -0.7423  0.7856 -0.4753
16493TIP3   OH270893   4.903   5.401   1.948 -0.5032  0.6810 -0.3696
16493TIP3    H170894   4.970   5.449   1.899  1.2116 -0.3206  0.9480
16493TIP3    H270895   4.911   5.311   1.916 -1.1927  0.5492 -0.1630
16494TIP3   OH270896   2.104   4.025   5.246  0.7541  0.2536  0.2048
16494TIP3    H170897   2.108   4.047   5.339 -1.5786  0.9513  0.1582
16494TIP3    H270898   2.157   3.946   5.238 -1.4587 -1.5692  2.6561
16495TIP3   OH270899   6.665   5.803   5.300 -0.2360 -0.3950 -0.2329
16495TIP3    H170900   6.718   5.862   5.354  1.7984  0.5751 -3.1638
16495TIP3    H270901   6.689   5.715   5.329  2.0733  0.0647 -0.6847
16496TIP3   OH270902   0.031   1.891   2.672 -0.0071 -0.4508 -0.1907
16496TIP3    H170903  -0.032   1.962   2.658 -1.9783 -2.0333  0.4641
16496TIP3    H270904   0.041   1.886   2.767 -0.4698 -1.5670 -0.2004
16497TIP3   OH270905   1.127   2.413   2.644 -0.4027 -0.1547  0.1163
16497TIP3    H170906   1.194   2.419   2.711  0.6714 -1.7320 -0.7831
16497TIP3    H270907   1.174   2.385   2.565 -1.7620  0.8799 -1.0904
16498TIP3   OH270908   0.514   6.561  14.267 -0.0861  0.3480 -0.5581
16498TIP3    H170909   0.593   6.607  14.297 -0.6664  0.5692  0.6648
16498TIP3    H270910   0.544   6.506  14.195  1.2255  0.2889  0.0194
16499TIP3   OH270911   4.588   4.536   0.087  0.6634  0.9654 -0.5058
16499TIP3    H170912   4.674   4.576   0.101  1.6601 -0.7879 -1.4687
16499TIP3    H270913   4.575   4.539  -0.008  0.9078 -1.2676 -0.6332
16500TIP3   OH270914   0.467   0.384   3.231 -0.4900 -0.4511  0.3952
16500TIP3    H170915   0.507   0.466   3.261  0.5180 -0.8745  0.2441
16500TIP3    H270916   0.521   0.356   3.158 -1.2345 -0.9074  0.0161
16501TIP3   OH270917   6.299   2.223   3.042  0.0332 -0.1097  0.4898
16501TIP3    H170918   6.298   2.308   3.085 -0.6565  0.7075 -1.0967
16501TIP3    H270919   6.389   2.211   3.012 -0.3709  1.1675 -1.3578
16502TIP3   OH270920   4.896   2.016   3.762 -0.1698 -0.1799  0.5999
16502TIP3    H170921   4.843   1.970   3.828 -0.5362 -3.0198 -1.5966
16502TIP3    H270922   4.955   2.071   3.813 -0.7766 -1.9447  3.3014
16503TIP3   OH270923   1.787   5.359   1.902  0.1908 -0.0908 -0.2241
16503TIP3    H170924   1.813   5.278   1.858  3.0991  1.3498 -1.3048
16503TIP3    H270925   1.766   5.332   1.991  1.8012 -1.9729 -0.3744
16504TIP3   OH270926   2.087   1.460   1.848  0.0423  0.0994  0.1197
16504TIP3    H170927   2.161   1.436   1.903  0.2346 -1.3269 -0.7590
16504TIP3    H270928   2.017   1.400   1.874 -0.1683  0.0794 -0.4954
16505TIP3   OH270929   0.074   1.915   1.394  0.4322 -0.3596  0.2266
16505TIP3    H170930   0.127   1.990   1.422  0.3125  0.8947 -2.6824
16505TIP3    H270931   0.136   1.856   1.351 -0.0257 -0.2876 -0.5473
16506TIP3   OH270932   5.492   5.088   1.846 -0.3961  0.3231 -0.0560
16506TIP3    H170933   5.465   5.097   1.754  1.7398  1.8914 -0.5795
16506TIP3    H270934   5.580   5.052   1.842 -0.0949  0.8646  1.3533
16507TIP3   OH270935   1.861   3.947   2.131 -0.3059 -0.1926 -0.2641
16507TIP3    H170936   1.848   3.886   2.203 -1.2272 -1.2318 -1.2937
16507TIP3    H270937   1.800   4.019   2.149 -0.2281 -0.2450  0.2160
16508TIP3   OH270938   2.065   0.632   2.464  0.7044 -0.7166  0.1898
16508TIP3    H170939   1.999   0.568   2.490  0.1330 -0.1697  0.1008
16508TIP3    H270940   2.035   0.664   2.379  0.0574  0.9275  1.0198
16509TIP3   OH270941   6.885   1.119  14.185  0.0096  0.2187 -0.9138
16509TIP3    H170942   6.891   1.026  14.164 -1.1449  0.0706 -0.6444
16509TIP3    H270943   6.925   1.164  14.111  0.5877 -0.4931 -1.0321
16510TIP3   OH270944   6.354   0.767   1.021 -0.5406 -0.0145 -1.0594
16510TIP3    H170945   6.287   0.774   1.089  1.0246  0.5956  0.4494
16510TIP3    H270946   6.370   0.857   0.992  1.1643  0.0911  0.1377
16511TIP3   OH270947   1.442   6.308   3.447 -0.5600 -0.0972 -0.2856
16511TIP3    H170948   1.410   6.242   3.385 -0.7958 -1.4537  1.2583
16511TIP3    H270949   1.418   6.274   3.533  1.8885  0.6130  0.7059
16512TIP3   OH270950   2.592   5.899   5.209 -0.8876 -0.2174 -0.3748
16512TIP3    H170951   2.535   5.965   5.169 -1.8358 -0.3781  0.6998
16512TIP3    H270952   2.638   5.945   5.279  0.6012  0.0030 -1.4666
16513TIP3   OH270953   4.731   4.729   3.851  0.3244 -0.3118 -0.1181
16513TIP3    H170954   4.642   4.696   3.836  0.3297  0.5066 -2.0724
16513TIP3    H270955   4.746   4.714   3.945 -1.2128 -2.0414 -0.1009
16514TIP3   OH270956   5.220   6.583   3.991 -0.4291  0.4430  0.2183
16514TIP3    H170957   5.185   6.495   4.002 -0.8202  0.5317 -0.3328
16514TIP3    H270958   5.312   6.575   4.018 -0.1087 -0.4264 -1.0790
16515TIP3   OH270959   4.720   1.919   3.957  0.5118 -0.6585  0.3526
16515TIP3    H170960   4.661   1.976   4.005  1.3902 -0.1436  0.8186
16515TIP3    H270961   4.773   1.876   4.024  2.5918  0.9890 -0.1696
16516TIP3   OH270962   3.625   4.476   4.344 -0.2457  0.1718 -0.1706
16516TIP3    H170963   3.689   4.548   4.337  1.2361 -1.1315 -0.3203
16516TIP3    H270964   3.576   4.481   4.262  0.1873  0.7002 -0.4051
16517TIP3   OH270965   3.653   6.716  12.694  0.0965  0.1250  0.1518
16517TIP3    H170966   3.642   6.724  12.599  0.3385  1.0036  0.1909
16517TIP3    H270967   3.570   6.747  12.730  0.3542  0.6840  0.2579
16518TIP3   OH270968   5.266   5.364   3.998 -0.1730 -0.2555  0.5813
16518TIP3    H170969   5.362   5.360   3.992 -0.2312 -0.2456 -0.3914
16518TIP3    H270970   5.237   5.278   3.968 -0.4720 -0.2351  0.8169
16519TIP3   OH270971   3.792   6.699   1.050 -0.6039  0.9748  0.3194
16519TIP3    H170972   3.798   6.688   1.145 -2.6227  1.2580  0.5002
16519TIP3    H270973   3.715   6.754   1.037 -2.0824 -1.4598 -1.6265
16520TIP3   OH270974   7.142   3.185   3.523 -0.3494  0.3397 -0.1483
16520TIP3    H170975   7.229   3.168   3.560 -0.3965 -0.3048 -0.3343
16520TIP3    H270976   7.159   3.211   3.433 -0.3073  0.8879  0.0126
16521TIP3   OH270977   7.130   5.659   1.096 -0.5110 -0.6844  0.4012
16521TIP3    H170978   7.036   5.642   1.096 -0.8732  1.1694  0.3765
16521TIP3    H270979   7.155   5.659   1.003 -1.4860  3.7309  0.0388
16522TIP3   OH270980   4.365   4.896  15.469  0.5297  0.0726 -0.4651
16522TIP3    H170981   4.414   4.978  15.470 -0.5550  0.7229  1.0362
16522TIP3    H270982   4.402   4.845  15.542  0.2236 -0.1801 -0.4842
16523TIP3   OH270983   4.406   5.045   1.515 -0.1206  0.1073 -0.2386
16523TIP3    H170984   4.476   5.083   1.462  0.4109 -0.4481  0.0519
16523TIP3    H270985   4.449   4.977   1.566 -0.8956 -0.2922 -0.1088
16524TIP3   OH270986   0.310   1.562   1.796  0.4500 -0.0324  0.2314
16524TIP3    H170987   0.342   1.622   1.864  0.3516 -0.8796  1.0335
16524TIP3    H270988   0.243   1.612   1.750  1.5020  1.0475 -0.1661
16525TIP3   OH270989   2.416   4.784   4.888  0.4678  0.4254 -0.1509
16525TIP3    H170990   2.350   4.809   4.823 -0.3057 -1.5089 -0.1254
16525TIP3    H270991   2.469   4.718   4.843 -1.2034 -2.3071  1.7424
16526TIP3   OH270992   1.913   5.495   3.814 -0.0444  0.4144  0.1199
16526TIP3    H170993   1.936   5.462   3.901  0.0576  0.3350  0.0625
16526TIP3    H270994   1.875   5.420   3.769  0.5378  0.2679 -0.1424
16527TIP3   OH270995   5.397   1.361   1.116  0.6830  0.5924  0.3267
16527TIP3    H170996   5.451   1.294   1.156  1.2957 -0.0731 -1.5703
16527TIP3    H270997   5.456   1.435   1.102  0.4398  0.8721  0.7600
16528TIP3   OH270998   6.098   1.617  15.099 -0.3207 -0.0117  0.2267
16528TIP3    H170999   6.148   1.542  15.130  0.6321  0.5518  0.0707
16528TIP3    H271000   6.068   1.660  15.179  0.7561  0.5150  0.3619
16529TIP3   OH271001   3.395   5.683   2.774 -0.3263  0.3739 -0.3983
16529TIP3    H171002   3.443   5.730   2.706 -0.2748  0.3351 -0.3886
16529TIP3    H271003   3.377   5.597   2.735 -0.5113  0.4376 -0.4553
16530TIP3   OH271004   0.486   6.591   2.158  0.4419 -0.0586  0.0708
16530TIP3    H171005   0.477   6.650   2.233  1.6573  0.0398  0.1478
16530TIP3    H271006   0.413   6.615   2.101 -1.8899 -1.6749  2.2391
16531TIP3   OH271007   4.707   7.136   1.051  0.4249  0.4490  0.1833
16531TIP3    H171008   4.748   7.067   0.999  0.1538  0.3176  0.1421
16531TIP3    H271009   4.632   7.164   0.998  0.0488  0.1969  0.5791
16532TIP3   OH271010   4.864   5.598   1.278  0.5843 -0.0848  0.1456
16532TIP3    H171011   4.956   5.605   1.251  0.8393 -0.4903  0.8832
16532TIP3    H271012   4.815   5.639   1.207  1.3208 -0.0736 -0.3646
16533TIP3   OH271013   6.157   6.024   4.658  0.0785 -0.2453  0.0808
16533TIP3    H171014   6.096   5.968   4.706  0.0838  0.5223  0.9954
16533TIP3    H271015   6.157   6.106   4.706  1.2801  0.0090 -0.3427
16534TIP3   OH271016   2.338   6.938   5.064  0.9652 -0.0058  0.3769
16534TIP3    H171017   2.311   7.014   5.012 -1.8837  0.2874  2.2002
16534TIP3    H271018   2.257   6.899   5.095  2.4522 -2.8766  0.8576
16535TIP3   OH271019   1.415   3.591   2.124 -0.3305 -0.0148 -0.0772
16535TIP3    H171020   1.441   3.602   2.216 -1.0727 -0.0839  0.1507
16535TIP3    H271021   1.323   3.618   2.123 -0.2835  0.1298 -0.8353
16536TIP3   OH271022   0.590   0.019   1.983 -0.5088 -0.2998  0.5369
16536TIP3    H171023   0.519   0.050   1.928  1.5934 -0.7873 -2.5903
16536TIP3    H271024   0.557  -0.064   2.019 -0.4234 -2.2415 -3.5102
16537TIP3   OH271025   6.180   5.447   3.470  0.1481 -0.0081 -0.4773
16537TIP3    H171026   6.112   5.498   3.514 -1.1578 -1.3224 -0.9036
16537TIP3    H271027   6.223   5.508   3.411 -0.3693  0.9579  0.1466
16538TIP3   OH271028   5.972   1.848   1.999  0.0875  0.1875 -0.3687
16538TIP3    H171029   5.902   1.805   2.049 -0.1718 -1.0940 -1.8166
16538TIP3    H271030   5.938   1.854   1.910  0.6082  2.3442 -0.4385
16539TIP3   OH271031   0.271   2.796   1.408 -0.6554 -0.6869 -0.5257
16539TIP3    H171032   0.308   2.713   1.376 -0.3899 -0.1406 -1.6689
16539TIP3    H271033   0.181   2.796   1.375 -1.2184 -1.3002  0.9439
16540TIP3   OH271034   0.996   2.655   0.719  0.3315 -0.3674 -0.1018
16540TIP3    H171035   1.052   2.578   0.727 -1.1137 -1.4326 -0.0422
16540TIP3    H271036   0.952   2.644   0.635 -2.4840 -1.4056  1.4462
16541TIP3   OH271037   2.748   6.785   2.248 -0.0529  0.6106  0.4660
16541TIP3    H171038   2.716   6.722   2.312  1.4811 -0.2395  0.4166
16541TIP3    H271039   2.677   6.849   2.240 -0.4440  0.4827  2.6724
16542TIP3   OH271040   6.141   4.928   0.847  0.1075  0.8899  0.3397
16542TIP3    H171041   6.113   4.844   0.882  0.8089 -0.3982 -2.0901
16542TIP3    H271042   6.187   4.970   0.919  1.2754 -1.5609  1.0590
16543TIP3   OH271043   6.393   5.642   5.862 -0.2668 -0.0570  0.2155
16543TIP3    H171044   6.466   5.700   5.881 -1.0935  0.9211  0.4609
16543TIP3    H271045   6.433   5.563   5.826  0.7496  1.5540 -2.2889
16544TIP3   OH271046   5.417   7.109  14.262  0.0822 -0.0176  0.0913
16544TIP3    H171047   5.433   7.203  14.266 -0.4874  0.0694  0.3986
16544TIP3    H271048   5.383   7.087  14.348 -0.3285 -0.4036 -0.1675
16545TIP3   OH271049   5.197   5.210   1.191 -0.2407 -0.1338 -0.5244
16545TIP3    H171050   5.180   5.122   1.225 -1.9220  0.7627  1.0311
16545TIP3    H271051   5.126   5.226   1.129 -0.8037  0.6813  0.3109
16546TIP3   OH271052   6.608   0.039  14.678  0.1838 -0.2177  0.3081
16546TIP3    H171053   6.520   0.016  14.709  0.6578 -0.8447  1.2319
16546TIP3    H271054   6.666  -0.009  14.736  1.1370 -0.1155 -0.5574
16547TIP3   OH271055   3.566   3.960   4.790 -0.5008  0.5315  0.4491
16547TIP3    H171056   3.515   3.892   4.835  0.0688 -0.9377 -1.0824
16547TIP3    H271057   3.655   3.947   4.822 -0.0760 -0.5786 -1.1385
16548TIP3   OH271058   4.168   6.785   1.131  0.0527  0.0177  0.2341
16548TIP3    H171059   4.256   6.774   1.096  1.2539  1.3520  2.7031
16548TIP3    H271060   4.143   6.873   1.105  0.8381  0.9082  2.3954
16549TIP3   OH271061   4.351   4.662   2.733 -0.3376 -0.0430  0.3577
16549TIP3    H171062   4.345   4.594   2.800 -1.8382 -1.3290 -1.0382
16549TIP3    H271063   4.444   4.667   2.711 -0.0250 -0.5869  1.5503
16550TIP3   OH271064   4.362   5.537  14.073  0.5104  0.1243  0.7310
16550TIP3    H171065   4.415   5.461  14.050  3.3918  1.1726  3.4780
16550TIP3    H271066   4.322   5.515  14.156 -1.0009  0.5214  0.1324
16551TIP3   OH271067   6.126   4.349  14.994  0.2222  0.2665 -0.2859
16551TIP3    H171068   6.103   4.325  14.904  1.8640 -1.7968 -0.1930
16551TIP3    H271069   6.063   4.301  15.048 -0.8772  1.6433 -0.3032
16552TIP3   OH271070   3.279   6.448   0.021  0.0907 -0.3376  0.1548
16552TIP3    H171071   3.198   6.466   0.068  1.1999  0.0398  1.9582
16552TIP3    H271072   3.251   6.424  -0.067 -2.0374 -1.6234  1.1683
16553TIP3   OH271073   1.179   4.969   5.454  0.0883  0.4901 -0.7285
16553TIP3    H171074   1.136   5.045   5.493  1.6474  0.9049  0.2412
16553TIP3    H271075   1.253   5.006   5.406  1.0700 -0.4457  0.0565
16554TIP3   OH271076   1.364   5.407   4.735 -0.0384  0.1908 -0.2810
16554TIP3    H171077   1.457   5.419   4.717 -0.0888  0.4164 -0.3954
16554TIP3    H271078   1.320   5.441   4.657 -0.1421 -1.9578 -1.1927
16555TIP3   OH271079   5.589   1.957   2.256 -0.0360 -0.4660 -0.1705
16555TIP3    H171080   5.544   2.041   2.262  0.4393 -0.3546  2.0095
16555TIP3    H271081   5.522   1.897   2.222 -0.1035  0.9449 -2.7206
16556TIP3   OH271082   4.886   4.628   2.749 -0.5184  0.5223  0.3986
16556TIP3    H171083   4.869   4.566   2.820  1.2613  1.7192  1.8961
16556TIP3    H271084   4.951   4.585   2.695  0.3756  0.8637  1.1857
16557TIP3   OH271085   1.311   0.131   1.860 -0.2440  0.0335  0.2936
16557TIP3    H171086   1.305   0.184   1.780  1.1888 -0.4148 -0.1130
16557TIP3    H271087   1.300   0.193   1.931 -0.1535  0.6384 -0.2189
16558TIP3   OH271088   2.908   4.773   2.317  0.6453 -0.0693  0.4790
16558TIP3    H171089   2.979   4.723   2.356  0.6552  0.2535  0.8835
16558TIP3    H271090   2.852   4.707   2.276  0.5279 -0.4360  1.2204
16559TIP3   OH271091   6.936   6.821   3.571 -0.0205 -0.7184 -0.5459
16559TIP3    H171092   6.976   6.906   3.588 -0.1970 -0.9170  0.8765
16559TIP3    H271093   6.986   6.786   3.498  1.5180 -0.3610  0.3180
16560TIP3   OH271094   4.031   3.865   2.147 -0.2877 -0.1099  0.1589
16560TIP3    H171095   3.999   3.902   2.065 -0.6453  1.2484  0.8964
16560TIP3    H271096   4.095   3.799   2.121 -1.1374 -0.3941 -1.2391
16561TIP3   OH271097   6.663   1.657   2.574  0.0219 -0.3738  0.3638
16561TIP3    H171098   6.600   1.606   2.524 -0.6084  1.0676 -0.3462
16561TIP3    H271099   6.680   1.734   2.520  1.6899 -0.2894  0.9740
16562TIP3   OH271100   6.104   1.490  13.795  0.0111 -0.2327  0.4982
16562TIP3    H171101   6.081   1.483  13.702 -1.0589  0.2838  0.7256
16562TIP3    H271102   6.108   1.584  13.812  1.2818 -0.3140  0.7198
16563TIP3   OH271103   6.113   0.578  15.273 -0.3927 -0.7578 -0.1642
16563TIP3    H171104   6.055   0.566  15.349 -0.6795 -0.5730 -0.3521
16563TIP3    H271105   6.199   0.551  15.304 -0.3509  0.1151  0.4782
16564TIP3   OH271106   3.638   5.945  15.033  0.0581 -0.7335  0.5384
16564TIP3    H171107   3.658   6.028  14.990 -1.0899 -0.1161  1.1878
16564TIP3    H271108   3.724   5.908  15.053  0.5856 -0.1738 -0.6264
16565TIP3   OH271109   1.674   5.660  14.772 -0.1028  0.1305  0.4277
16565TIP3    H171110   1.610   5.616  14.827  0.1545  1.5029  1.8536
16565TIP3    H271111   1.630   5.739  14.742  1.6115  2.2493  3.2515
16566TIP3   OH271112   0.402   6.250   2.868 -0.1793  0.6944 -0.0653
16566TIP3    H171113   0.351   6.208   2.798 -0.3094 -1.5763  1.3507
16566TIP3    H271114   0.459   6.311   2.822  1.1253 -2.1497 -2.3591
16567TIP3   OH271115   5.416   0.034   5.268 -0.2637  0.0030 -0.2993
16567TIP3    H171116   5.395  -0.043   5.216 -0.1787 -0.1192 -0.1506
16567TIP3    H271117   5.437   0.000   5.355  1.1963  0.0562 -0.6111
16568TIP3   OH271118   3.664   2.877   0.797 -0.1143 -0.1889  0.0779
16568TIP3    H171119   3.667   2.966   0.761 -5.3752  0.3472  0.5185
16568TIP3    H271120   3.685   2.888   0.889  1.9772  0.1475 -0.4183
16569TIP3   OH271121   5.096   7.038   5.175 -0.2949  0.2830  0.7986
16569TIP3    H171122   5.064   7.105   5.235 -2.1796 -1.5701  1.9369
16569TIP3    H271123   5.019   7.012   5.124  0.4350 -0.8822  0.2546
16570TIP3   OH271124   5.889   0.515  14.871  0.2551  0.5094 -0.2180
16570TIP3    H171125   5.936   0.519  14.788 -0.0724 -1.9461 -0.5447
16570TIP3    H271126   5.820   0.451  14.857  1.4314 -1.4434  2.5552
16571TIP3   OH271127   2.306   4.720   0.650 -0.8488 -0.1673 -0.0672
16571TIP3    H171128   2.325   4.811   0.671  0.7086 -0.2722 -0.9824
16571TIP3    H271129   2.334   4.671   0.728  0.7421 -0.1152 -0.6005
16572TIP3   OH271130   1.831   1.392   1.025 -0.6262  0.1610 -0.0431
16572TIP3    H171131   1.858   1.481   1.003  1.7416 -0.7597 -1.0615
16572TIP3    H271132   1.855   1.383   1.118 -1.9876  0.9521  0.4055
16573TIP3   OH271133   0.330   6.103   5.279 -0.9416 -0.5434  0.1802
16573TIP3    H171134   0.280   6.137   5.205  0.0808 -0.2745 -0.3926
16573TIP3    H271135   0.375   6.180   5.315  0.7205 -1.1250 -0.6062
16574TIP3   OH271136   0.191   5.747   3.796 -0.1451  0.1002 -0.2219
16574TIP3    H171137   0.257   5.815   3.783 -1.1849  0.8923 -1.5542
16574TIP3    H271138   0.242   5.666   3.806  1.1370  1.1709  2.2655
16575TIP3   OH271139   2.921   5.778   5.732 -0.1605 -0.2918 -0.2331
16575TIP3    H171140   2.848   5.749   5.785 -0.2065  2.0712  1.0968
16575TIP3    H271141   2.883   5.795   5.646 -0.9310 -0.2177  0.1173
16576TIP3   OH271142   3.557   5.808   1.897  0.0811  0.4639  0.1694
16576TIP3    H171143   3.513   5.828   1.814 -0.5679 -2.7751 -0.3326
16576TIP3    H271144   3.648   5.792   1.872  0.3438  1.5154  0.4102
16577TIP3   OH271145   2.568   5.333   5.593  0.2853  0.0869  0.0305
16577TIP3    H171146   2.616   5.404   5.635  0.7827  0.7463 -1.5917
16577TIP3    H271147   2.478   5.343   5.624  0.2653  1.6780 -0.4801
16578TIP3   OH271148   5.116   4.733   2.434 -0.2290 -0.2961 -0.3358
16578TIP3    H171149   5.207   4.757   2.414 -1.2839  1.2160 -3.7198
16578TIP3    H271150   5.123   4.674   2.510  3.6561 -1.1009 -1.1796
16579TIP3   OH271151   0.770   6.785   3.014 -0.1397 -0.6911 -0.6158
16579TIP3    H171152   0.707   6.849   2.979  1.0274 -0.6851 -2.7677
16579TIP3    H271153   0.856   6.824   2.997  0.4972 -1.3193  1.0883
16580TIP3   OH271154   0.513   6.306   5.065  0.1156 -0.2740  0.4023
16580TIP3    H171155   0.523   6.362   5.142  0.5558 -0.9833  0.8668
16580TIP3    H271156   0.540   6.361   4.992 -0.6130  0.5082  0.7134
16581TIP3   OH271157   0.955   1.011   2.493 -0.1246 -0.1234  0.0433
16581TIP3    H171158   1.016   1.084   2.503 -0.4157 -0.0378  1.2783
16581TIP3    H271159   0.950   0.996   2.398  1.2520  0.3307 -0.1093
16582TIP3   OH271160   5.701   2.581   3.653 -0.0701 -0.0068 -0.2369
16582TIP3    H171161   5.607   2.575   3.635 -0.7177  2.1277  2.1423
16582TIP3    H271162   5.733   2.650   3.596 -0.4272  0.8481  0.5796
16583TIP3   OH271163   1.724   0.268   3.520 -0.1690  0.4174 -0.5073
16583TIP3    H171164   1.815   0.287   3.545  0.4456 -0.1391 -2.2605
16583TIP3    H271165   1.684   0.354   3.507  0.1415  0.6629  0.1475
16584TIP3   OH271166   0.797   0.996   1.531  0.1044 -0.2322 -0.2868
16584TIP3    H171167   0.838   0.936   1.593  0.7361 -1.1314 -1.5365
16584TIP3    H271168   0.857   0.998   1.457  1.1365  3.6418  0.5894
16585TIP3   OH271169   0.912   0.013   0.894  0.0190  0.0053 -0.1960
16585TIP3    H171170   0.982   0.009   0.828  0.7345  4.2304  0.2031
16585TIP3    H271171   0.951  -0.025   0.973  0.7273 -0.6964 -0.8708
16586TIP3   OH271172   6.644   5.125   5.701  0.4875 -0.1480  0.1045
16586TIP3    H171173   6.729   5.159   5.673  0.1193 -0.5980 -1.5736
16586TIP3    H271174   6.651   5.119   5.797  1.6177  1.7458  0.1596
16587TIP3   OH271175   0.244   4.509   0.338  0.7660  0.7437 -0.5508
16587TIP3    H171176   0.257   4.577   0.272 -2.9197  1.2612 -0.8244
16587TIP3    H271177   0.253   4.426   0.290  1.9056  1.0455 -0.8830
16588TIP3   OH271178   6.939   4.356   3.551  0.0097 -0.0048  0.0851
16588TIP3    H171179   6.866   4.352   3.612 -0.8920  3.1970 -0.7189
16588TIP3    H271180   7.009   4.400   3.599  0.4395 -0.4274 -0.1367
16589TIP3   OH271181   5.291   4.039   5.472 -0.2403 -0.4677  0.6071
16589TIP3    H171182   5.314   3.949   5.448 -0.0435 -0.2928  0.1398
16589TIP3    H271183   5.206   4.054   5.433 -0.4736 -0.5978  1.0583
16590TIP3   OH271184   0.758   0.832   2.919 -0.5475  0.0268 -0.4137
16590TIP3    H171185   0.753   0.906   2.980  0.8261  0.3024 -0.6165
16590TIP3    H271186   0.851   0.823   2.900 -0.7229 -1.6711 -0.5170
16591TIP3   OH271187   2.821   6.224   1.882 -0.2336  0.2028  0.1885
16591TIP3    H171188   2.836   6.160   1.813 -0.4369  0.5641 -0.1938
16591TIP3    H271189   2.742   6.194   1.926 -0.9550  0.7881 -0.6898
16592TIP3   OH271190   2.898   1.424   1.555 -0.0840  0.4787  0.5257
16592TIP3    H171191   2.905   1.413   1.650 -1.0309  1.1268  0.6786
16592TIP3    H271192   2.903   1.519   1.541  0.5605  0.3527 -0.1178
16593TIP3   OH271193   0.326   2.082   2.194 -0.1907 -0.3241  0.2008
16593TIP3    H171194   0.281   2.162   2.221 -0.0735  0.0615 -0.7394
16593TIP3    H271195   0.361   2.102   2.108 -0.5726 -1.5482 -0.2512
16594TIP3   OH271196   0.970   2.147   3.859 -0.4372  0.4306  0.2402
16594TIP3    H171197   0.979   2.052   3.853 -1.1765  0.3839 -0.1416
16594TIP3    H271198   0.879   2.164   3.835 -0.6396  1.1352  1.4616
16595TIP3   OH271199   0.796   2.195   5.048  0.4890  0.0659  0.3037
16595TIP3    H171200   0.857   2.231   5.112 -0.4114  0.0609  1.1769
16595TIP3    H271201   0.738   2.138   5.099 -0.6808  0.6082 -0.3806
16596TIP3   OH271202   4.835   4.685   2.003 -0.3507  0.0472  0.0386
16596TIP3    H171203   4.849   4.746   2.076 -0.1774 -1.2418  1.0897
16596TIP3    H271204   4.847   4.739   1.925  1.1791  1.0692  0.9523
16597TIP3   OH271205   2.681   0.003   2.161  0.0758  0.0104  0.9233
16597TIP3    H171206   2.630  -0.075   2.183  1.3170 -1.0058  0.2930
16597TIP3    H271207   2.617   0.075   2.160 -1.6100 -1.4505 -1.3202
16598TIP3   OH271208   5.632   0.165   1.996  0.4335 -0.1219  0.4019
16598TIP3    H171209   5.584   0.084   2.009 -0.8397  0.8159  1.7256
16598TIP3    H271210   5.579   0.215   1.933  1.4964 -0.5214 -0.8415
16599TIP3   OH271211   2.955   7.123   4.054  0.2877  0.0720 -0.2411
16599TIP3    H171212   2.984   7.209   4.026  0.1197  0.1604 -0.1454
16599TIP3    H271213   2.999   7.062   3.995 -0.1736  0.2676 -0.7872
16600TIP3   OH271214   2.539   5.207  15.438 -0.0533 -0.4557 -0.4098
16600TIP3    H171215   2.447   5.182  15.447  0.7718 -3.8431 -1.0017
16600TIP3    H271216   2.581   5.175  15.517  0.7187  0.6976 -0.3380
16601TIP3   OH271217   4.020   6.413   1.767  0.2877 -0.3327 -0.6341
16601TIP3    H171218   4.037   6.364   1.848  1.6826  1.5852  0.2686
16601TIP3    H271219   4.076   6.371   1.702  0.9286 -0.4260 -0.0346
16602TIP3   OH271220   4.625   6.520   3.756 -0.0238  0.2543  0.0559
16602TIP3    H171221   4.607   6.475   3.839  1.7024  1.4066  1.0905
16602TIP3    H271222   4.685   6.462   3.709  0.8574  0.6754  0.6501
16603TIP3   OH271223   3.826   6.926   4.655  0.1859  0.2460  0.5416
16603TIP3    H171224   3.785   6.842   4.634 -0.8297  0.8405  0.0862
16603TIP3    H271225   3.755   6.977   4.694 -0.2923  2.2673 -2.7553
16604TIP3   OH271226   5.218   1.403   0.900  0.2625  0.0106 -0.7069
16604TIP3    H171227   5.267   1.369   0.975  0.7471  1.7879 -0.1997
16604TIP3    H271228   5.207   1.497   0.918  1.1685  0.6597 -3.2757
16605TIP3   OH271229   1.542   6.097   0.988  0.1308  0.1776 -0.5806
16605TIP3    H171230   1.563   6.031   0.922  1.2430  0.6748 -0.7353
16605TIP3    H271231   1.493   6.164   0.941  0.6327  0.3676 -0.8368
16606TIP3   OH271232   1.186   3.703  15.395  0.3792 -0.1846  0.1051
16606TIP3    H171233   1.136   3.770  15.349  0.1248 -0.2079  0.3441
16606TIP3    H271234   1.137   3.688  15.476  1.2407  0.4250  0.7411
16607TIP3   OH271235   4.181   4.173   1.110  0.2568 -0.1038 -0.1262
16607TIP3    H171236   4.271   4.192   1.083  0.6173 -1.4090  0.1165
16607TIP3    H271237   4.189   4.102   1.173 -1.0321 -0.9974 -0.9449
16608TIP3   OH271238   5.922   6.365   3.328  0.4143 -0.1597 -0.2858
16608TIP3    H171239   5.910   6.407   3.413  2.6402 -0.0019 -0.0097
16608TIP3    H271240   5.868   6.287   3.332  1.4330 -0.8109  1.7765
16609TIP3   OH271241   3.931   0.720   5.366 -0.0691 -0.1829 -0.1930
16609TIP3    H171242   4.024   0.714   5.345  0.1488  0.6008  0.5315
16609TIP3    H271243   3.919   0.660   5.440  0.2166  1.0225  0.8483
16610TIP3   OH271244   5.417   5.788   3.857  0.4145 -0.1300  0.4610
16610TIP3    H171245   5.349   5.763   3.920  0.5924  0.1197  0.7525
16610TIP3    H271246   5.425   5.883   3.867 -1.0691  0.2296 -1.4271
16611TIP3   OH271247   1.397   4.760   5.443 -0.3264  0.8003 -0.1623
16611TIP3    H171248   1.362   4.709   5.370  2.2692 -0.2577 -0.7002
16611TIP3    H271249   1.434   4.838   5.402  1.3413  0.0947 -0.0073
16612TIP3   OH271250   0.666   4.772   4.318  0.5684 -0.4629 -0.0664
16612TIP3    H171251   0.572   4.761   4.335  0.7683 -0.3710  1.1309
16612TIP3    H271252   0.700   4.683   4.316  0.5990 -0.4575  0.3022
16613TIP3   OH271253   6.572   6.494  13.675 -0.4639 -0.1758 -0.3344
16613TIP3    H171254   6.620   6.416  13.703  3.4247  1.4912 -1.9284
16613TIP3    H271255   6.543   6.535  13.756 -2.4486 -3.0911  0.5448
16614TIP3   OH271256   6.163   6.321  14.439  0.2752  0.2053 -0.2832
16614TIP3    H171257   6.200   6.317  14.350 -0.4490  0.1366 -0.5823
16614TIP3    H271258   6.069   6.325  14.425  0.2279  2.3908  0.4078
16615TIP3   OH271259   3.919   0.528  13.130 -0.4100 -0.0939  0.2236
16615TIP3    H171260   3.875   0.546  13.047 -1.0503 -0.3245  0.5101
16615TIP3    H271261   3.895   0.602  13.186 -0.3948 -0.1959  0.3639
16616TIP3   OH271262   4.164   1.514   5.050 -0.0356  0.1525 -0.6734
16616TIP3    H171263   4.127   1.428   5.070 -0.4499  0.1907 -1.2393
16616TIP3    H271264   4.204   1.543   5.131  0.9199 -0.9804 -0.7194
16617TIP3   OH271265   2.103   7.160   4.435 -0.4439 -0.3532 -0.2200
16617TIP3    H171266   2.144   7.231   4.385 -0.1776 -1.0918 -1.0562
16617TIP3    H271267   2.016   7.193   4.457  0.3828  1.0095  1.0959
16618TIP3   OH271268   6.712   6.588   0.687  1.2519 -0.1785  0.5920
16618TIP3    H171269   6.791   6.610   0.639  0.0136  1.4828 -0.7753
16618TIP3    H271270   6.738   6.592   0.780  2.2630  2.5549  0.2552
16619TIP3   OH271271   6.728   5.370   3.360 -0.5114  0.1142 -0.7507
16619TIP3    H171272   6.781   5.398   3.435 -0.8655  1.0254 -0.8332
16619TIP3    H271273   6.771   5.410   3.285 -0.9913  0.3885 -0.8771
16620TIP3   OH271274   5.516   6.190   4.303  0.2922 -0.5200  0.4457
16620TIP3    H171275   5.478   6.106   4.278 -1.6920  0.6408 -0.5252
16620TIP3    H271276   5.485   6.205   4.393 -0.7479 -0.0590  0.0207
16621TIP3   OH271277   4.249   5.326   0.361  0.2716  0.3193  0.4969
16621TIP3    H171278   4.196   5.338   0.282  0.4481  1.6671  0.5602
16621TIP3    H271279   4.339   5.331   0.329  0.3839 -1.9215  0.3945
16622TIP3   OH271280   6.776   4.741   3.735 -0.3917 -0.0771 -0.7546
16622TIP3    H171281   6.743   4.823   3.698 -0.4789  0.3100  0.1817
16622TIP3    H271282   6.772   4.754   3.830  1.9540 -0.2128 -0.6027
16623TIP3   OH271283   6.850   3.551   2.143  0.1598 -0.6203  0.1777
16623TIP3    H171284   6.801   3.503   2.077 -0.4285  1.2802 -0.7895
16623TIP3    H271285   6.783   3.589   2.200  0.4487  1.9754 -1.1448
16624TIP3   OH271286   0.023   4.462   4.402 -0.1202 -0.7248  0.0655
16624TIP3    H171287  -0.019   4.440   4.486 -1.6135  1.1767 -0.1413
16624TIP3    H271288   0.116   4.452   4.419 -0.5597 -3.5252  1.0123
16625TIP3   OH271289   2.793   3.186   2.735  0.2812  0.1128 -0.4554
16625TIP3    H171290   2.875   3.217   2.695 -0.7316  1.8274 -1.2580
16625TIP3    H271291   2.760   3.261   2.784 -0.1902 -0.9602  0.9137
16626TIP3   OH271292   1.080   0.683   0.360 -0.3043  0.1038  0.2259
16626TIP3    H171293   1.167   0.681   0.401 -0.1299  1.5227 -0.0628
16626TIP3    H271294   1.033   0.752   0.407 -0.4404  1.0475 -1.2773
16627TIP3   OH271295   6.294   1.607   3.684 -0.1661  0.6731 -0.5419
16627TIP3    H171296   6.352   1.682   3.670 -0.0010  1.0269  1.9197
16627TIP3    H271297   6.231   1.637   3.749  0.9757 -1.8374  1.8163
16628TIP3   OH271298   2.824   0.584   2.463 -0.5586 -0.5853  0.6011
16628TIP3    H171299   2.805   0.656   2.403 -0.2557 -1.2515 -0.3158
16628TIP3    H271300   2.860   0.626   2.541  1.0812  0.1563 -0.5380
16629TIP3   OH271301   6.233   2.104   5.383 -1.0453 -0.0460  0.4364
16629TIP3    H171302   6.252   2.179   5.440  1.7757 -1.1968  1.0964
16629TIP3    H271303   6.189   2.142   5.307  0.8565  2.3818  0.5004
16630TIP3   OH271304   4.150   0.806   3.904  0.2090  0.3436 -0.3245
16630TIP3    H171305   4.123   0.764   3.985 -0.0577 -1.2322 -1.2141
16630TIP3    H271306   4.072   0.807   3.849  0.1500  2.2271 -0.2319
16631TIP3   OH271307   5.892   2.141   2.942  0.5424 -0.0452 -0.0986
16631TIP3    H171308   5.976   2.160   2.900  0.9412 -0.0157  0.6999
16631TIP3    H271309   5.913   2.077   3.009  0.1286  0.8341  0.8829
16632TIP3   OH271310   1.653   3.115   4.203  0.0589 -0.2315  0.0641
16632TIP3    H171311   1.599   3.045   4.165 -1.0268  1.2153 -1.1365
16632TIP3    H271312   1.597   3.193   4.199  0.7973  0.4788  2.5046
16633TIP3   OH271313   1.862   4.414   3.844 -0.0090 -0.1658 -0.1778
16633TIP3    H171314   1.783   4.370   3.813  0.6228 -0.4276 -1.4687
16633TIP3    H271315   1.835   4.461   3.922 -1.4620 -0.1707 -0.6714
16634TIP3   OH271316   6.453   7.060   3.538  0.1908 -0.2880  0.8550
16634TIP3    H171317   6.512   7.044   3.612 -0.4795 -0.1510  1.4334
16634TIP3    H271318   6.385   6.993   3.548  0.0755 -0.2382  0.3864
16635TIP3   OH271319   1.876   6.276   4.645 -0.2493 -0.1113 -0.0317
16635TIP3    H171320   1.806   6.229   4.599 -1.0756  0.6224  0.4597
16635TIP3    H271321   1.831   6.326   4.713  0.6166  1.3576 -0.5064
16636TIP3   OH271322   3.479   1.132   3.254  0.1858  0.4436 -0.0804
16636TIP3    H171323   3.453   1.040   3.262  1.8381  0.1085  1.7111
16636TIP3    H271324   3.396   1.180   3.248 -0.6676 -1.3118 -3.3490
16637TIP3   OH271325   0.689   2.902   1.746 -0.7041 -0.0436 -0.2300
16637TIP3    H171326   0.676   2.808   1.761 -2.0157  0.0521 -0.6945
16637TIP3    H271327   0.646   2.919   1.662 -0.2502  0.9293 -0.2743
16638TIP3   OH271328   1.405   7.005  14.334 -0.1075  0.1813 -0.2172
16638TIP3    H171329   1.411   7.045  14.421 -0.0750  0.2725 -0.2614
16638TIP3    H271330   1.455   7.064  14.278 -0.4548  0.3325 -0.3707
16639TIP3   OH271331   1.326   0.376   3.351  0.1733  0.2973 -0.3875
16639TIP3    H171332   1.339   0.351   3.260 -2.0924 -2.2122 -0.0838
16639TIP3    H271333   1.402   0.340   3.397  0.6330  0.3754 -1.0842
16640TIP3   OH271334   4.547   0.496   5.048  0.6046  0.1016 -0.0115
16640TIP3    H171335   4.528   0.571   5.103  2.9624  0.7365 -0.0043
16640TIP3    H271336   4.584   0.533   4.968 -0.1405 -0.9467 -0.8538
16641TIP3   OH271337   5.595   3.375   4.998 -0.2643  0.0793  0.2420
16641TIP3    H171338   5.597   3.340   4.909 -0.1846  0.0687  0.2476
16641TIP3    H271339   5.622   3.466   4.988  1.9951 -0.5365  0.5518
16642TIP3   OH271340   0.715   6.643   5.097  0.3702 -0.0142 -0.2357
16642TIP3    H171341   0.636   6.650   5.151  0.1529 -2.8651 -0.1041
16642TIP3    H271342   0.783   6.685   5.149 -1.0166  2.5901 -0.3976
16643TIP3   OH271343   1.049   0.854   3.650  0.0276 -0.6259 -0.1883
16643TIP3    H171344   1.036   0.947   3.635  2.9183 -0.2507 -0.7587
16643TIP3    H271345   1.057   0.845   3.745 -1.4575 -0.4851 -0.0468
16644TIP3   OH271346   4.293   3.334   3.626  0.0702 -0.2516 -0.3809
16644TIP3    H171347   4.326   3.248   3.598  0.0656 -0.1810 -0.6055
16644TIP3    H271348   4.214   3.347   3.573 -0.5211 -0.5815  0.4115
16645TIP3   OH271349   5.420   0.933   1.399 -0.8900 -0.5042 -0.1290
16645TIP3    H171350   5.454   1.010   1.444 -2.5281  0.4977 -0.5555
16645TIP3    H271351   5.464   0.933   1.313  1.9447 -2.2025  1.2518
16646TIP3   OH271352   1.037   1.666   3.108  0.1765 -0.2055  0.0843
16646TIP3    H171353   1.053   1.654   3.014  1.7463 -1.0175  0.4404
16646TIP3    H271354   1.020   1.578   3.141 -2.9499  0.3494  0.1433
16647TIP3   OH271355   6.424   3.431   2.159 -0.3441  0.2203  0.1006
16647TIP3    H171356   6.378   3.464   2.236  0.7811  0.8986  0.4837
16647TIP3    H271357   6.434   3.507   2.102  0.6939  0.1628  0.2074
16648TIP3   OH271358   0.566   6.874   4.851  0.2312  0.0903 -0.2695
16648TIP3    H171359   0.661   6.872   4.840  0.2782  1.8227 -0.3625
16648TIP3    H271360   0.532   6.875   4.761  0.2380  2.1980 -0.2837
16649TIP3   OH271361   0.565   2.400   5.116  0.1270 -0.5767 -0.0102
16649TIP3    H171362   0.636   2.444   5.164 -0.1819 -0.7721  0.6237
16649TIP3    H271363   0.606   2.322   5.080  0.1526 -0.8717  0.6512
16650TIP3   OH271364   5.464   0.787   3.845 -0.1397 -0.0488  0.4083
16650TIP3    H171365   5.373   0.799   3.818 -0.5730 -1.9015  0.9421
16650TIP3    H271366   5.503   0.874   3.840 -1.6839  0.5922 -0.7638
16651TIP3   OH271367   4.125   6.924   1.803  0.8652  0.3135 -0.5593
16651TIP3    H171368   4.146   6.952   1.714  0.5732 -0.8426 -1.0054
16651TIP3    H271369   4.149   6.831   1.804 -0.1999  0.0492  0.2266
16652TIP3   OH271370   6.395   2.511   5.277 -0.4758 -0.1125  0.4750
16652TIP3    H171371   6.444   2.483   5.355 -0.2171 -1.0385 -0.0104
16652TIP3    H271372   6.360   2.430   5.241  1.6618 -0.0385 -1.8791
16653TIP3   OH271373   7.040   1.533   4.104  0.0585  0.2895  0.1787
16653TIP3    H171374   7.010   1.593   4.172 -0.9719  2.3251 -2.0201
16653TIP3    H271375   7.133   1.552   4.094 -0.0712  0.9053  0.1260
16654TIP3   OH271376   2.650   1.691   4.432 -0.5144 -0.5495  0.2691
16654TIP3    H171377   2.671   1.599   4.446 -0.9205 -0.7229 -0.2400
16654TIP3    H271378   2.623   1.696   4.340 -2.6384 -0.3419  0.8575
16655TIP3   OH271379   3.509   0.891   4.513 -0.0801  0.4151 -0.4000
16655TIP3    H171380   3.503   0.856   4.602 -2.3632  1.0458 -0.2642
16655TIP3    H271381   3.485   0.983   4.523 -1.0414  0.3158 -1.7616
16656TIP3   OH271382   6.811   3.501   1.410 -0.5467  0.5113  0.2040
16656TIP3    H171383   6.830   3.412   1.439 -0.0288  0.7091  0.4722
16656TIP3    H271384   6.896   3.543   1.406 -0.7143  0.7891 -0.6081
16657TIP3   OH271385   1.890   1.146   3.940 -0.2060  0.6630  0.4559
16657TIP3    H171386   1.862   1.055   3.951  1.6439  0.1180  0.8976
16657TIP3    H271387   1.932   1.148   3.853  0.9873  0.7397  1.0177
16658TIP3   OH271388   1.858   2.467   2.476 -0.2315 -0.2590 -0.2918
16658TIP3    H171389   1.881   2.559   2.471  1.8389 -0.8332 -2.9810
16658TIP3    H271390   1.821   2.447   2.390  0.0667 -2.0825 -0.0273
16659TIP3   OH271391   6.185   1.398  12.764  0.2900  0.6189 -0.1006
16659TIP3    H171392   6.132   1.420  12.841 -0.9533 -2.1487 -0.1017
16659TIP3    H271393   6.121   1.377  12.696  1.3969  1.6917 -1.4987
16660TIP3   OH271394   2.079   1.291   3.089  0.2010  0.1075 -0.0898
16660TIP3    H171395   2.157   1.240   3.112 -0.0913  0.3875  1.5402
16660TIP3    H271396   2.014   1.225   3.067  0.1547 -0.2019  0.9558
16661TIP3   OH271397   0.509   6.896   2.072 -0.0089  0.3767  0.2309
16661TIP3    H171398   0.431   6.876   2.019  0.2090 -3.2365  1.1733
16661TIP3    H271399   0.481   6.882   2.162  1.2864  0.7603  0.7072
16662TIP3   OH271400   4.074   1.787   3.939 -0.2562 -0.0846  0.2231
16662TIP3    H171401   4.101   1.695   3.941  2.6453  0.7110  1.1200
16662TIP3    H271402   4.056   1.806   3.847  0.7843 -1.1283 -0.2074
16663TIP3   OH271403   5.759   3.628   3.473  0.0828  0.1310 -0.2287
16663TIP3    H171404   5.762   3.583   3.557  0.3464 -2.1242 -1.3927
16663TIP3    H271405   5.671   3.608   3.439  0.1820  0.5530 -0.7353
16664TIP3   OH271406   0.388   0.532   5.335 -0.2201 -0.6868 -0.5368
16664TIP3    H171407   0.393   0.502   5.244 -0.1940 -1.5792 -0.2478
16664TIP3    H271408   0.412   0.624   5.331 -1.1862 -0.4612 -1.5675
16665TIP3   OH271409   0.603   5.993   4.879  0.5509 -0.0433 -0.1339
16665TIP3    H171410   0.689   6.027   4.854  0.2382  0.7093 -0.1844
16665TIP3    H271411   0.607   5.987   4.975  0.7733 -0.3155 -0.1593
16666TIP3   OH271412   2.368   5.430   4.004 -0.3435 -0.3499 -0.2433
16666TIP3    H171413   2.429   5.414   4.077 -0.2331 -0.7511 -0.4264
16666TIP3    H271414   2.371   5.525   3.993 -0.2715 -0.2964  0.2005
16667TIP3   OH271415   0.761   6.167   5.769 -0.0032  0.1126  0.0827
16667TIP3    H171416   0.741   6.193   5.679  0.1109  1.1003  0.3324
16667TIP3    H271417   0.776   6.073   5.764 -1.1269 -0.0286 -0.7309
16668TIP3   OH271418   6.740   1.859   4.798  0.1222  0.5765  0.7371
16668TIP3    H171419   6.725   1.912   4.720  0.1911 -0.2201  0.1731
16668TIP3    H271420   6.791   1.784   4.766 -1.7860 -0.9341  1.0915
16669TIP3   OH271421   1.278   4.434   3.901 -0.9745 -0.1942  0.2344
16669TIP3    H171422   1.189   4.467   3.912 -0.5529  0.1382  3.0409
16669TIP3    H271423   1.274   4.377   3.825 -3.4120  0.4024 -0.1082
16670TIP3   OH271424   6.810   1.827   5.384 -0.7302  0.2681 -0.0605
16670TIP3    H171425   6.865   1.843   5.461 -0.5702  3.4353 -0.7924
16670TIP3    H271426   6.727   1.795   5.420 -0.4250  1.0475  1.3718
16671TIP3   OH271427   1.702   2.222   5.066  0.0825 -0.3846 -0.3117
16671TIP3    H171428   1.723   2.257   5.152  0.6612  0.8748 -0.9542
16671TIP3    H271429   1.608   2.203   5.070  0.2723 -1.1087  0.8563
16672TIP3   OH271430   7.028   2.153   4.748  0.5692 -0.6668  0.3352
16672TIP3    H171431   7.052   2.061   4.761  1.4815 -0.5132 -0.2370
16672TIP3    H271432   6.995   2.181   4.834  1.0589 -1.2991  0.7351
16673TIP3   OH271433   0.905   0.415   5.247 -0.0128 -0.0998  0.9240
16673TIP3    H171434   0.936   0.501   5.219 -0.7638  0.2282  1.0978
16673TIP3    H271435   0.977   0.356   5.227 -0.4531  0.1531 -1.5294
16674TIP3   OH271436   5.841   2.856   4.231 -0.9216 -0.2266 -0.2843
16674TIP3    H171437   5.771   2.912   4.198  0.9095  2.5558  0.4272
16674TIP3    H271438   5.904   2.916   4.271  0.5754 -2.8772  1.5414
16675TIP3   OH271439   6.059   4.745  13.260  0.2144  0.2202  0.6263
16675TIP3    H171440   6.144   4.756  13.218  0.5285  0.5779  1.3357
16675TIP3    H271441   6.017   4.674  13.212  1.3507 -0.6817  0.9312
16676TIP3   OH271442   6.765   5.238   1.615 -0.8770  0.5009  0.1808
16676TIP3    H171443   6.751   5.155   1.571 -1.9296  1.9040 -2.1923
16676TIP3    H271444   6.694   5.244   1.679 -1.2548 -0.0558 -0.1888
16677TIP3   OH271445   0.798   3.513   3.506  0.1095 -0.8842  0.0969
16677TIP3    H171446   0.773   3.451   3.574  0.9326 -1.6825 -0.3212
16677TIP3    H271447   0.769   3.598   3.540 -0.6980 -1.4441  0.8318
16678TIP3   OH271448   4.097   4.092   2.983 -0.3488  0.1333 -0.5128
16678TIP3    H171449   4.122   4.002   3.004  1.7217  0.5767 -0.9550
16678TIP3    H271450   4.017   4.108   3.033 -0.6665 -1.9077 -0.3430
16679TIP3   OH271451   4.865   1.908   4.411  1.0687  0.4583  0.4506
16679TIP3    H171452   4.925   1.968   4.368 -0.4531  1.1118 -0.8138
16679TIP3    H271453   4.783   1.958   4.419 -0.9789 -2.2159 -2.8037
16680TIP3   OH271454   2.210   2.369   2.034 -0.4322  0.1122 -0.2236
16680TIP3    H171455   2.172   2.282   2.026  1.2331 -0.4483 -2.4335
16680TIP3    H271456   2.296   2.354   2.075  0.5525  0.5114 -2.1098
16681TIP3   OH271457   6.407   6.711   4.340  0.1330 -0.1140 -0.1426
16681TIP3    H171458   6.322   6.674   4.316  0.1564  0.7411 -1.6491
16681TIP3    H271459   6.468   6.672   4.279  0.6275  0.1831  0.1598
16682TIP3   OH271460   2.658   0.189   5.289 -0.2528 -0.2394  0.0517
16682TIP3    H171461   2.686   0.179   5.198 -1.2903 -0.7070 -0.2264
16682TIP3    H271462   2.563   0.195   5.284 -0.3024 -0.0637  1.0928
16683TIP3   OH271463   6.381   4.516   1.881 -0.0086 -0.4713 -0.1121
16683TIP3    H171464   6.430   4.438   1.909 -0.4740 -0.8426 -0.3145
16683TIP3    H271465   6.401   4.582   1.947  1.0403 -0.5088 -0.3782
16684TIP3   OH271466   3.236   6.464   0.553  0.3680 -0.0291  0.1885
16684TIP3    H171467   3.259   6.377   0.520 -2.6869 -0.5087 -0.9102
16684TIP3    H271468   3.165   6.448   0.615  0.1822  1.6233  0.4238
16685TIP3   OH271469   0.821   2.562   1.568 -0.4014 -0.1313  0.6677
16685TIP3    H171470   0.807   2.642   1.518  0.5676  0.9049  2.0058
16685TIP3    H271471   0.838   2.494   1.503 -0.0678  0.9980 -0.4235
16686TIP3   OH271472   2.897   1.741   5.082 -0.5867  0.5972 -0.6104
16686TIP3    H171473   2.836   1.811   5.105 -0.1795  0.7880 -0.0812
16686TIP3    H271474   2.981   1.770   5.117 -0.2420  0.2243 -1.1169
16687TIP3   OH271475   4.677   0.462   3.642 -0.5234 -0.3689  0.6639
16687TIP3    H171476   4.731   0.383   3.640 -0.7793 -0.5219 -0.8929
16687TIP3    H271477   4.729   0.525   3.692  1.7026 -0.0947 -1.8843
16688TIP3   OH271478   0.646   1.028   6.137 -0.4536  0.2893  0.1961
16688TIP3    H171479   0.692   1.023   6.053  1.1445 -2.4531  1.1738
16688TIP3    H271480   0.553   1.034   6.113 -0.0193 -0.4668 -1.7622
16689TIP3   OH271481   0.481   6.594   4.441 -0.4949 -0.0397  0.6298
16689TIP3    H171482   0.560   6.540   4.441  0.0674  0.7815  0.8540
16689TIP3    H271483   0.476   6.630   4.353 -0.4181  0.2013  0.7234
16690TIP3   OH271484   2.412   1.414   4.184  0.8460  0.7469  0.5054
16690TIP3    H171485   2.356   1.339   4.165  2.6208 -0.3381 -0.7366
16690TIP3    H271486   2.354   1.481   4.218 -0.7670 -1.2577  1.8000
16691TIP3   OH271487   4.447   5.295   3.386  0.1517  1.3498 -0.0013
16691TIP3    H171488   4.520   5.236   3.369 -1.1605 -0.5824  0.8790
16691TIP3    H271489   4.446   5.354   3.311  0.5070 -0.7810 -1.7303
16692TIP3   OH271490   2.127   3.340   3.163 -0.3795  0.3739  0.3321
16692TIP3    H171491   2.098   3.428   3.189  0.4560  0.7320  0.0687
16692TIP3    H271492   2.086   3.326   3.078 -0.2150  0.6617  0.2052
16693TIP3   OH271493   6.372   3.239   2.459  0.5167 -0.7673 -0.4128
16693TIP3    H171494   6.362   3.147   2.485  0.6017 -0.2634  1.4738
16693TIP3    H271495   6.284   3.275   2.462  0.7089 -0.3476  0.6363
16694TIP3   OH271496   7.017   0.297   4.699  0.3506 -0.0924  0.1004
16694TIP3    H171497   7.068   0.245   4.762  1.3409  0.1789 -0.4609
16694TIP3    H271498   7.079   0.316   4.629 -0.5766  0.1305 -0.6631
16695TIP3   OH271499   1.208   5.540   4.542  0.6934  0.0912 -0.8298
16695TIP3    H171500   1.229   5.520   4.451  1.4024 -2.0124 -0.2365
16695TIP3    H271501   1.133   5.484   4.562  0.4357  0.6659 -0.1713
16696TIP3   OH271502   6.609   6.449   5.189 -0.3685  0.2120 -0.5421
16696TIP3    H171503   6.550   6.476   5.119 -2.2930  2.8807  2.0157
16696TIP3    H271504   6.683   6.510   5.184  0.6640 -1.0926 -1.6900
16697TIP3   OH271505   2.281   6.327   5.128  0.2114 -0.1761  0.7614
16697TIP3    H171506   2.335   6.293   5.057 -3.7044 -1.0905 -1.9444
16697TIP3    H271507   2.327   6.406   5.157  3.1175 -1.0579 -1.1725
16698TIP3   OH271508   3.087   6.699   4.529 -0.3617 -0.2256  0.7756
16698TIP3    H171509   3.152   6.632   4.554  0.1495  0.1006  0.3257
16698TIP3    H271510   3.066   6.679   4.438 -3.0989 -2.1326  1.7564
16699TIP3   OH271511   5.132   6.972   3.763 -0.1274 -0.6032 -0.5909
16699TIP3    H171512   5.175   6.903   3.814  3.1381  1.7603  0.0183
16699TIP3    H271513   5.191   6.989   3.691 -2.2516 -0.3120 -2.3169
16700TIP3   OH271514   3.709   1.634   1.787  0.0697 -0.4633 -0.3259
16700TIP3    H171515   3.695   1.651   1.881  0.7065 -0.9819 -0.1369
16700TIP3    H271516   3.797   1.597   1.782  0.5806  0.8616 -1.2897
16701TIP3   OH271517   0.500   4.596   4.062 -0.6305  0.2652 -0.4749
16701TIP3    H171518   0.450   4.666   4.105 -1.9956 -0.1390 -1.3695
16701TIP3    H271519   0.530   4.635   3.980  1.3034  0.7842  0.4458
16702TIP3   OH271520   6.956   6.146   2.028 -0.4283 -0.0741  0.1013
16702TIP3    H171521   6.961   6.197   1.947  0.4116 -1.4902 -0.7606
16702TIP3    H271522   6.969   6.211   2.098  0.2645  0.9555 -0.9556
16703TIP3   OH271523   4.964   0.123   0.931  0.6946 -0.5398 -0.2728
16703TIP3    H171524   4.938   0.152   0.843  0.4738  0.6319  0.1706
16703TIP3    H271525   4.926   0.036   0.939 -0.9447  0.1321 -0.6002
16704TIP3   OH271526   6.338   3.372   3.371 -0.4501  0.5168  0.3339
16704TIP3    H171527   6.365   3.373   3.279  1.5818  0.9046  0.9053
16704TIP3    H271528   6.287   3.292   3.380  1.3408 -0.7666 -0.6120
16705TIP3   OH271529   3.848   0.481   3.306 -0.1244  0.0332 -0.1818
16705TIP3    H171530   3.866   0.563   3.260  2.1252  0.5063  1.4617
16705TIP3    H271531   3.911   0.419   3.270 -0.0443 -0.2712  0.4759
16706TIP3   OH271532   1.464   1.117   4.071  0.0761 -0.8315  0.1755
16706TIP3    H171533   1.436   1.119   4.162  2.0997 -1.9206  0.8547
16706TIP3    H271534   1.426   1.037   4.036 -0.5630 -0.4982  0.0885
16707TIP3   OH271535   4.128   4.175   5.035  0.1555 -0.6965 -0.2850
16707TIP3    H171536   4.054   4.219   4.994  0.5971  0.7228  0.4168
16707TIP3    H271537   4.106   4.082   5.031 -3.0811 -0.1252  2.6622
16708TIP3   OH271538   0.040   3.927   2.828  0.0902 -0.2541  0.1496
16708TIP3    H171539   0.115   3.893   2.779  0.5784 -1.7813  1.8994
16708TIP3    H271540  -0.032   3.868   2.805 -0.3699  0.6535 -0.7987
16709TIP3   OH271541   4.929   1.795   4.159 -0.0082  0.2736  0.2188
16709TIP3    H171542   4.970   1.709   4.157  0.6786  0.6035  0.0077
16709TIP3    H271543   4.888   1.800   4.246 -0.6270 -0.5248 -0.0221
16710TIP3   OH271544   6.944   5.376  15.476 -0.4762 -0.1423 -0.4317
16710TIP3    H171545   6.936   5.294  15.428 -0.5792  0.5562 -1.6294
16710TIP3    H271546   6.904   5.358  15.561 -2.0869 -0.8235 -1.3050
16711TIP3   OH271547   6.777   1.056   5.151 -0.1767 -0.5816  0.4979
16711TIP3    H171548   6.844   1.005   5.106 -0.7281 -0.7957 -0.0691
16711TIP3    H271549   6.823   1.093   5.227  0.9802  0.5341 -0.7222
16712TIP3   OH271550   6.662   5.148   2.937 -0.2759 -0.6046  0.4170
16712TIP3    H171551   6.654   5.067   2.988  0.7383 -0.1553  1.3165
16712TIP3    H271552   6.736   5.194   2.977  0.1645  0.0383 -1.1025
16713TIP3   OH271553   4.209   6.799   4.983 -0.4831  0.0967 -0.0805
16713TIP3    H171554   4.121   6.763   4.975 -0.6831  0.6305 -0.3120
16713TIP3    H271555   4.196   6.882   5.029 -0.1219  0.2691 -0.2917
16714TIP3   OH271556   4.385   2.619   5.283  0.2705  0.2664 -0.1740
16714TIP3    H171557   4.304   2.667   5.266 -0.8656 -1.3580  0.4538
16714TIP3    H271558   4.416   2.593   5.196  0.8164  1.9618 -0.5032
16715TIP3   OH271559   2.981   0.140  15.158 -0.1502 -0.6280  0.4524
16715TIP3    H171560   3.064   0.122  15.203 -0.5983 -1.0595  1.0951
16715TIP3    H271561   2.944   0.215  15.205 -0.1414 -0.4469  0.1746
16716TIP3   OH271562   6.958   4.725   1.362 -0.3545 -0.1389 -0.2628
16716TIP3    H171563   6.900   4.681   1.300 -0.2812  0.5349 -0.8181
16716TIP3    H271564   7.046   4.712   1.325 -0.4452  1.5317 -1.0990
16717TIP3   OH271565   2.011   3.936   4.031  0.0493 -0.3974 -0.6684
16717TIP3    H171566   2.032   3.989   3.954 -0.7303 -2.5504 -2.4099
16717TIP3    H271567   2.058   3.853   4.016  1.3423 -0.1947  2.0491
16718TIP3   OH271568   1.621   1.828   5.916  0.1778  0.6786  0.5048
16718TIP3    H171569   1.548   1.878   5.952 -0.3482  0.0366  0.3345
16718TIP3    H271570   1.583   1.778   5.844  1.0730  1.3998 -0.4830
16719TIP3   OH271571   4.291   0.466   5.688  0.0750 -0.1188  0.2257
16719TIP3    H171572   4.257   0.381   5.661 -0.1621 -0.2055  0.7991
16719TIP3    H271573   4.340   0.498   5.611 -1.2106 -0.0362 -0.5650
16720TIP3   OH271574   5.599   1.568   5.387 -0.2269  0.3456  0.2916
16720TIP3    H171575   5.549   1.503   5.435 -0.7842 -0.5203 -1.4127
16720TIP3    H271576   5.557   1.651   5.407 -2.3181 -0.3572 -1.0280
16721TIP3   OH271577   6.466   3.780   4.709  0.0266  0.3211  0.1752
16721TIP3    H171578   6.431   3.764   4.797 -0.4776  1.9202  0.2773
16721TIP3    H271579   6.402   3.839   4.669  0.6643  0.2163 -0.9959
16722TIP3   OH271580   2.141   6.285   5.688 -0.4702 -0.4157 -0.0797
16722TIP3    H171581   2.177   6.197   5.700  0.2288 -0.3441 -1.4059
16722TIP3    H271582   2.186   6.317   5.609 -0.7998  1.0787  0.3341
16723TIP3   OH271583   1.849   2.529   5.159 -0.3282 -0.4288  0.2025
16723TIP3    H171584   1.799   2.551   5.237  0.2841 -1.4601  0.8948
16723TIP3    H271585   1.802   2.573   5.087 -1.6776 -0.6162  0.9519
16724TIP3   OH271586   5.885   4.371   4.293  0.3153 -0.5154  0.3611
16724TIP3    H171587   5.900   4.370   4.199  1.3912 -2.3787  0.5404
16724TIP3    H271588   5.961   4.326   4.330 -0.8445 -1.1617  2.0039
16725TIP3   OH271589   3.195   3.481   0.450 -0.1689  0.0953 -0.1896
16725TIP3    H171590   3.196   3.520   0.363 -1.6459 -0.7889 -0.6203
16725TIP3    H271591   3.190   3.387   0.434 -2.8216  0.0095  0.8089
16726TIP3   OH271592   6.443   1.581   5.661  0.6854 -0.0378 -0.4905
16726TIP3    H171593   6.534   1.565   5.684  1.2756  2.0364 -1.2851
16726TIP3    H271594   6.399   1.593   5.746  0.8923 -2.1715 -0.0515
16727TIP3   OH271595   2.222   2.769   5.335 -0.3818  0.6985  0.1727
16727TIP3    H171596   2.158   2.701   5.359  1.2782 -0.7603  0.5410
16727TIP3    H271597   2.174   2.851   5.345 -2.3197 -0.3972  0.0803
16728TIP3   OH271598   3.702   6.299   4.878 -0.2069 -0.3431 -0.0729
16728TIP3    H171599   3.750   6.276   4.798 -1.1470 -0.9134 -0.4805
16728TIP3    H271600   3.727   6.390   4.896 -1.3847  0.3930 -2.0486
16729TIP3   OH271601   0.031   1.948   3.983 -0.1895  0.6534 -0.3999
16729TIP3    H171602   0.122   1.940   4.013 -0.7930 -0.8133  1.1691
16729TIP3    H271603   0.004   2.035   4.012  0.3465  0.6163  0.2418
16730TIP3   OH271604   2.397   6.091  14.347 -0.9123  0.7955  0.6789
16730TIP3    H171605   2.411   6.179  14.381  0.1390  1.1842 -0.6642
16730TIP3    H271606   2.485   6.054  14.341 -1.1670  0.3442 -0.4961
16731TIP3   OH271607   2.256   1.553   4.428 -0.5266  0.5876 -0.5184
16731TIP3    H171608   2.200   1.476   4.414  1.9958 -1.2281 -0.9144
16731TIP3    H271609   2.300   1.536   4.511 -0.4205  1.9185 -0.2923
16732TIP3   OH271610   1.980   0.919   1.076 -0.4111  0.1838  0.3929
16732TIP3    H171611   2.059   0.947   1.030  0.5198 -0.1922  1.7453
16732TIP3    H271612   1.961   0.990   1.137 -0.7861  0.0185  0.4695
16733TIP3   OH271613   0.605   2.698   4.226 -0.0630 -0.4669  0.5303
16733TIP3    H171614   0.560   2.616   4.204 -1.2062  0.8803 -2.4266
16733TIP3    H271615   0.558   2.732   4.302 -0.6108 -1.7153  0.7666
16734TIP3   OH271616   6.942   3.954   3.757  0.0518 -0.1737 -0.3509
16734TIP3    H171617   6.874   3.909   3.708 -0.5475  0.6085 -0.2370
16734TIP3    H271618   6.900   4.032   3.792  0.8746  0.0684  0.1282
16735TIP3   OH271619   1.164   3.652   2.121 -0.6497 -0.3757  0.3601
16735TIP3    H171620   1.071   3.648   2.098 -0.3585 -1.5709 -0.6092
16735TIP3    H271621   1.185   3.745   2.116 -2.1243  0.0784  1.9339
16736TIP3   OH271622   1.661   1.839   0.625 -0.5684 -0.5650  0.1341
16736TIP3    H171623   1.638   1.884   0.706  0.1986 -0.9922  0.5958
16736TIP3    H271624   1.601   1.764   0.622  0.1553 -1.1953  0.9020
16737TIP3   OH271625   5.463   5.445   4.265  0.3695  0.6840 -0.2696
16737TIP3    H171626   5.511   5.382   4.212  1.3636  1.4519 -0.2995
16737TIP3    H271627   5.395   5.393   4.308  1.4234 -0.4799  0.0215
16738TIP3   OH271628   4.323   5.734   0.207 -0.0391  0.6107 -0.5287
16738TIP3    H171629   4.342   5.819   0.246  0.7962 -0.2323  0.9331
16738TIP3    H271630   4.254   5.696   0.261  2.9416 -1.6831  1.8456
16739TIP3   OH271631   3.372   4.987   3.118 -0.2287 -0.1809  0.8859
16739TIP3    H171632   3.305   5.004   3.185  1.8569 -0.4525  3.1293
16739TIP3    H271633   3.455   4.994   3.166  1.2378 -2.7453 -1.1711
16740TIP3   OH271634   5.910   2.732   4.954 -0.1589 -0.2190 -0.3311
16740TIP3    H171635   5.986   2.756   5.006  1.0181 -2.0933 -1.1367
16740TIP3    H271636   5.836   2.738   5.015  1.0308 -1.1684  1.2442
16741TIP3   OH271637   0.262   0.578   3.518  0.3975  0.4507 -0.2317
16741TIP3    H171638   0.255   0.644   3.587  0.6298 -1.5657  1.7599
16741TIP3    H271639   0.340   0.603   3.469 -0.4543  2.6047 -0.5530
16742TIP3   OH271640   0.827   2.032   4.182 -0.2369 -0.3734 -0.5234
16742TIP3    H171641   0.901   2.007   4.127  0.5272  0.4420  0.1218
16742TIP3    H271642   0.833   2.127   4.188 -1.2279 -0.3211 -0.3037
16743TIP3   OH271643   0.829   0.523   5.926 -0.5137 -0.3464  0.4228
16743TIP3    H171644   0.812   0.586   5.996 -1.6518 -0.0557 -0.1012
16743TIP3    H271645   0.912   0.481   5.950  0.6715  1.9109  0.3709
16744TIP3   OH271646   1.371   3.647   5.026 -0.2531  0.3535  0.1032
16744TIP3    H171647   1.435   3.716   5.042 -0.8842  1.2077 -1.0108
16744TIP3    H271648   1.352   3.611   5.112  1.6259  0.1850  0.4619
16745TIP3   OH271649   0.029   3.561   4.643 -0.3489  0.3937 -0.0541
16745TIP3    H171650   0.022   3.627   4.575  0.8042  0.3463 -0.2304
16745TIP3    H271651  -0.030   3.591   4.712  1.8060  2.7940  0.8220
16746TIP3   OH271652   1.078   1.886   4.540  0.2420 -0.1419  0.1865
16746TIP3    H171653   1.132   1.811   4.516  0.3027 -0.9093  2.6807
16746TIP3    H271654   0.988   1.857   4.528  0.2503 -0.8384  1.7915
16747TIP3   OH271655   1.586   6.448   0.602  0.1535  0.7317  0.1385
16747TIP3    H171656   1.585   6.414   0.691  0.9118  0.0200 -0.1144
16747TIP3    H271657   1.498   6.483   0.588 -0.4420 -0.5435  0.6365
16748TIP3   OH271658   5.204   2.142   1.382  0.5816 -0.6018 -0.4704
16748TIP3    H171659   5.292   2.179   1.384  0.2644  0.0710  1.9818
16748TIP3    H271660   5.211   2.066   1.324  2.0874  1.0742 -2.5836
16749TIP3   OH271661   6.572   3.022   2.366 -0.4977 -0.0190 -0.3761
16749TIP3    H171662   6.541   3.078   2.294 -0.9662  1.4797  0.9679
16749TIP3    H271663   6.647   2.975   2.329 -1.4627 -0.1686 -2.2120
16750TIP3   OH271664   0.295   1.722   4.505 -0.0818  0.1553  0.3928
16750TIP3    H171665   0.341   1.799   4.473  0.2927 -0.7162 -1.2818
16750TIP3    H271666   0.315   1.718   4.598  0.0417  1.9627  0.4500
16751TIP3   OH271667   4.921   6.125   2.143  0.0715 -0.0830  0.2245
16751TIP3    H171668   5.010   6.157   2.159 -0.4515  1.2840  0.5270
16751TIP3    H271669   4.931   6.057   2.076  1.1333  1.6038 -1.3850
16752TIP3   OH271670   6.524   6.575   0.066  0.2992  0.0470 -0.2754
16752TIP3    H171671   6.612   6.545   0.092 -0.3744 -0.3525  1.6060
16752TIP3    H271672   6.523   6.565  -0.029  1.2138 -2.9283 -0.0160
16753TIP3   OH271673   3.973   6.830   2.572  0.1217  0.0567 -0.1141
16753TIP3    H171674   4.060   6.848   2.536  0.8974 -2.9062  0.0843
16753TIP3    H271675   3.988   6.756   2.631 -2.6308 -0.7763 -0.4182
16754TIP3   OH271676   5.331   1.391   1.838  0.2592  0.3386  0.0523
16754TIP3    H171677   5.287   1.382   1.753  0.4426 -0.7212  0.0688
16754TIP3    H271678   5.410   1.442   1.819  0.0522  0.5218 -0.3213
16755TIP3   OH271679   3.612   0.675   6.130 -0.0490  0.0502  0.3950
16755TIP3    H171680   3.675   0.613   6.167  1.7639  0.2862 -2.1276
16755TIP3    H271681   3.558   0.622   6.071  0.6847  0.6329 -0.8093
16756TIP3   OH271682   7.098   6.051   4.954  0.9221 -0.0471 -0.0775
16756TIP3    H171683   7.127   6.077   5.041  2.2800  0.1049 -0.5730
16756TIP3    H271684   7.160   6.091   4.894  0.2202 -0.4608 -1.1055
16757TIP3   OH271685   0.463   1.369   0.754 -0.1723 -0.1483 -0.4224
16757TIP3    H171686   0.448   1.463   0.761  0.0648 -0.0225 -1.5039
16757TIP3    H271687   0.523   1.348   0.826  2.7305  1.1722 -2.3834
16758TIP3   OH271688   0.965   4.666   4.092 -0.2402 -0.5755 -0.1653
16758TIP3    H171689   0.935   4.582   4.057 -1.6116  0.2334 -0.9639
16758TIP3    H271690   0.951   4.728   4.021 -1.9622  0.8535  1.3787
16759TIP3   OH271691   1.862   1.197   0.361 -0.5594  0.4402  0.0857
16759TIP3    H171692   1.786   1.233   0.315 -0.0480  0.3452 -0.8362
16759TIP3    H271693   1.838   1.202   0.454 -1.8185  0.1319 -0.2062
16760TIP3   OH271694   1.357   0.902   3.931  0.0849  0.1352 -0.1569
16760TIP3    H171695   1.283   0.960   3.912 -1.0017 -0.5033  1.9695
16760TIP3    H271696   1.322   0.814   3.917  0.4030 -0.1746  0.9179
16761TIP3   OH271697   0.654   4.103   5.121  0.1043 -0.0306  0.1134
16761TIP3    H171698   0.745   4.082   5.137 -0.1862 -2.7309 -1.4762
16761TIP3    H271699   0.606   4.058   5.191 -0.1192  0.2024  0.1118
16762TIP3   OH271700   2.791   2.940   3.881 -0.3107 -0.9738  0.2528
16762TIP3    H171701   2.791   2.864   3.823 -0.1591 -2.5361  2.2270
16762TIP3    H271702   2.713   2.928   3.936 -0.8301  0.8234 -0.0452
16763TIP3   OH271703   2.703   4.215   4.375  0.2096  0.1479  0.0237
16763TIP3    H171704   2.699   4.270   4.297 -2.3755  0.4647  0.3167
16763TIP3    H271705   2.705   4.125   4.341 -1.1444  0.2772 -0.4234
16764TIP3   OH271706   6.783   4.821   5.709  0.0919  0.2074  0.2847
16764TIP3    H171707   6.853   4.885   5.719  1.4443 -1.1303 -0.4570
16764TIP3    H271708   6.722   4.861   5.647  1.1350  0.6043 -0.4995
16765TIP3   OH271709   0.274   2.599  15.324  0.0007 -0.2613  0.5590
16765TIP3    H171710   0.293   2.564  15.237 -0.0898  0.0521  0.4114
16765TIP3    H271711   0.359   2.620  15.361  0.0608 -0.7441  0.6906
16766TIP3   OH271712   6.259   3.066   5.380  0.0236 -0.6163  0.4458
16766TIP3    H171713   6.203   3.086   5.305 -1.7606 -1.4467  1.5286
16766TIP3    H271714   6.285   3.152   5.413  1.5300 -0.2361 -1.5916
16767TIP3   OH271715   1.780   6.786   4.881 -0.1393  0.1814  0.3668
16767TIP3    H171716   1.730   6.738   4.815 -0.1848  0.9722 -0.1849
16767TIP3    H271717   1.729   6.778   4.961 -0.3538 -0.3407  0.1810
16768TIP3   OH271718   0.715   2.974   4.508  0.0495 -0.2638 -0.8508
16768TIP3    H171719   0.779   2.951   4.440 -0.4639 -0.8976 -1.1145
16768TIP3    H271720   0.741   2.921   4.583  0.3768  0.1475 -0.6671
16769TIP3   OH271721   6.021   3.951   1.358 -0.0964  0.2971  0.0810
16769TIP3    H171722   6.087   3.993   1.303 -0.1362 -0.1989 -0.3510
16769TIP3    H271723   5.958   4.020   1.377 -0.0313  0.4963 -0.4171
16770TIP3   OH271724   3.700   3.612   4.728 -0.1404 -0.2378  0.5411
16770TIP3    H171725   3.734   3.691   4.685 -3.3078 -0.4224 -2.4837
16770TIP3    H271726   3.620   3.641   4.772 -0.7805 -1.5522  0.2618
16771TIP3   OH271727   1.098   0.790   3.376  0.0733  0.2308 -0.2761
16771TIP3    H171728   1.063   0.803   3.464  0.2160  1.6443 -0.4191
16771TIP3    H271729   1.087   0.696   3.360 -1.3687  0.2202  0.6378
16772TIP3   OH271730   5.604   1.603   4.300 -0.5201 -0.1653 -0.7763
16772TIP3    H171731   5.541   1.651   4.353  0.5971 -1.5625  1.9289
16772TIP3    H271732   5.669   1.669   4.274 -2.0435  0.8882 -1.9721
16773TIP3   OH271733   1.031   0.226   5.989 -0.5793 -0.2824  0.2854
16773TIP3    H171734   1.054   0.317   6.006 -1.4942 -0.1235  0.6760
16773TIP3    H271735   1.085   0.201   5.914 -0.7830  0.7693 -0.2068
16774TIP3   OH271736   6.526   1.506   5.095 -0.0917 -0.2508  0.5180
16774TIP3    H171737   6.449   1.506   5.038  0.7363 -0.4146 -0.5961
16774TIP3    H271738   6.583   1.574   5.059 -0.7226  1.5154  2.7327
16775TIP3   OH271739   1.058   7.074   4.871 -0.8122  0.5476  0.6309
16775TIP3    H171740   1.017   7.093   4.955 -0.9555  2.2362  0.1854
16775TIP3    H271741   1.127   7.011   4.892 -0.8325  0.9688  2.0155
16776TIP3   OH271742   1.580   6.841   1.110 -0.8023  0.4332 -0.7987
16776TIP3    H171743   1.490   6.871   1.125 -0.9886 -0.6868  0.3588
16776TIP3    H271744   1.575   6.746   1.116  0.7259  0.4386  0.7368
16777TIP3   OH271745   6.335   0.800  14.117  0.1612 -0.1301  0.1580
16777TIP3    H171746   6.324   0.828  14.208  1.8597  0.2252  0.2694
16777TIP3    H271747   6.292   0.715  14.113  0.8950 -0.5831  1.5433
16778TIP3   OH271748   0.589   1.932   5.002 -0.1042 -0.2645  0.8566
16778TIP3    H171749   0.661   1.889   4.955  2.1405  0.7752  3.2119
16778TIP3    H271750   0.595   1.897   5.091 -2.0534  0.4458  1.2840
16779TIP3   OH271751   4.500   2.910   2.397 -0.1192 -0.2089 -0.9154
16779TIP3    H171752   4.523   2.866   2.315  0.5691 -1.5556 -0.0206
16779TIP3    H271753   4.418   2.869   2.423  0.2766 -0.6241 -0.3243
16780TIP3   OH271754   0.245   2.515   4.932  0.0952 -0.0790  0.6832
16780TIP3    H171755   0.323   2.546   4.978  0.4963 -2.4331  1.6677
16780TIP3    H271756   0.259   2.421   4.920 -0.7975  0.1453 -2.7336
16781TIP3   OH271757   2.078   5.623   4.254 -0.2327  0.4347  0.4615
16781TIP3    H171758   2.064   5.689   4.186 -0.0696 -0.9207 -0.9318
16781TIP3    H271759   1.995   5.619   4.301 -1.0084  0.0471 -0.8975
16782TIP3   OH271760   0.745   1.802   5.923 -0.3065  1.3434  0.3018
16782TIP3    H171761   0.799   1.807   5.844  0.0511 -0.4785  0.4111
16782TIP3    H271762   0.803   1.833   5.993 -0.2700  1.9051  0.0272
16783TIP3   OH271763   6.733   2.276  14.952 -0.5445 -0.1381 -0.3085
16783TIP3    H171764   6.703   2.358  14.991 -0.0962 -0.0670 -0.1107
16783TIP3    H271765   6.827   2.274  14.969 -0.3205 -0.0549 -1.4770
16784TIP3   OH271766   0.648   1.240   5.560  0.1034 -0.2949  0.0138
16784TIP3    H171767   0.742   1.243   5.580  0.0083  1.7779  0.2984
16784TIP3    H271768   0.610   1.191   5.633  0.5738  1.7629  1.7002
16785TIP3   OH271769   7.099   1.921   4.846  0.4706  0.7519  0.6193
16785TIP3    H171770   7.169   1.943   4.907 -1.0295  0.0527  2.6570
16785TIP3    H271771   7.062   1.839   4.880 -0.5622  0.4794 -1.0949
16786TIP3   OH271772   2.942   2.443   4.423 -0.3327  0.2229 -0.2925
16786TIP3    H171773   2.908   2.385   4.492  1.2912  0.0557  0.3821
16786TIP3    H271774   2.863   2.479   4.382 -1.3551 -1.5204  0.0736
16787TIP3   OH271775   0.696   5.307   2.075  0.4003 -0.3048  0.0239
16787TIP3    H171776   0.730   5.334   2.160  0.0669 -0.9341  0.3592
16787TIP3    H271777   0.607   5.344   2.072  0.5164 -0.0391 -0.1721
16788TIP3   OH271778   0.639   1.667   3.387  0.1564 -0.1066  0.3232
16788TIP3    H171779   0.699   1.688   3.316  0.2857 -1.4326  0.0190
16788TIP3    H271780   0.559   1.714   3.365 -0.7973 -2.7629 -2.2865
16789TIP3   OH271781   0.287   2.719   1.110 -0.6197  0.1445 -0.4980
16789TIP3    H171782   0.228   2.664   1.163 -0.1118  0.3216  0.2568
16789TIP3    H271783   0.369   2.670   1.108  0.5345  1.8574  2.0096
16790TIP3   OH271784   1.155   3.440   5.580 -0.0282  0.4317 -0.4207
16790TIP3    H171785   1.233   3.398   5.616 -0.3445 -1.0978 -1.5008
16790TIP3    H271786   1.088   3.430   5.648  0.7777  2.0607  0.6579
16791TIP3   OH271787   0.162   4.386  15.290  0.1374  0.6800  0.5341
16791TIP3    H171788   0.105   4.450  15.248  0.0850  0.1866 -0.1454
16791TIP3    H271789   0.246   4.431  15.299 -0.5674  1.7021  2.3022
16792TIP3   OH271790   3.721   0.627   3.515 -0.3916 -0.0786 -0.2729
16792TIP3    H171791   3.698   0.582   3.596 -1.4164 -0.0838 -0.5662
16792TIP3    H271792   3.754   0.558   3.457 -1.4685 -0.3730 -0.5387
16793TIP3   OH271793   2.109   6.865   1.696  0.1923  0.6863 -0.3683
16793TIP3    H171794   2.051   6.823   1.633  2.2598  1.5303 -2.9179
16793TIP3    H271795   2.185   6.806   1.703  0.6765  1.3538  0.1311
16794TIP3   OH271796   4.616   0.310   5.546 -0.1829  0.4856  0.4363
16794TIP3    H171797   4.653   0.227   5.577  0.5129  0.6479  0.0461
16794TIP3    H271798   4.579   0.350   5.625 -0.9078 -0.3826  0.5546
16795TIP3   OH271799   1.721   6.250   3.949 -0.2589 -0.1772  0.1974
16795TIP3    H171800   1.641   6.221   3.905 -0.1335 -0.3253  0.0665
16795TIP3    H271801   1.770   6.169   3.965  0.0264 -0.0518 -0.0404
16796TIP3   OH271802   6.201   1.402   0.897 -0.6748  0.3960 -0.3341
16796TIP3    H171803   6.171   1.488   0.867 -0.0790  1.0319  0.8601
16796TIP3    H271804   6.246   1.365   0.821  1.0742  2.1083 -0.1783
16797TIP3   OH271805   6.605   4.294   2.803 -0.4821 -0.4736 -0.0667
16797TIP3    H171806   6.569   4.296   2.891  0.3723  1.0718  0.2630
16797TIP3    H271807   6.578   4.209   2.768  0.2411 -1.6658  2.1267
16798TIP3   OH271808   4.525   1.825   5.669  0.3453  0.0589 -0.2268
16798TIP3    H171809   4.433   1.851   5.661  1.0299  2.4195 -0.7790
16798TIP3    H271810   4.527   1.766   5.745 -1.5580  0.2200 -0.0366
16799TIP3   OH271811   4.740   1.030   3.225 -0.4255  0.2697  0.0461
16799TIP3    H171812   4.753   0.995   3.313 -3.0067  0.3316  0.4858
16799TIP3    H271813   4.825   1.021   3.183  0.4840 -1.0370  2.0954
16800TIP3   OH271814   5.799   5.561   5.251 -0.4461  0.7955 -0.2162
16800TIP3    H171815   5.778   5.617   5.325 -1.0541  0.7966 -0.3819
16800TIP3    H271816   5.885   5.525   5.270  0.8577  3.3768 -1.0490
16801TIP3   OH271817   5.577   0.281   5.655  0.5150 -0.2000 -0.5918
16801TIP3    H171818   5.599   0.286   5.749 -1.5639 -0.6025 -0.0598
16801TIP3    H271819   5.603   0.194   5.629 -2.0510 -1.3627  0.5021
16802TIP3   OH271820   3.346   0.781   5.186 -0.0334  0.4085  0.0909
16802TIP3    H171821   3.309   0.843   5.123  0.0544  1.7864  1.3608
16802TIP3    H271822   3.322   0.695   5.152 -1.3282  1.1772 -0.9985
16803TIP3   OH271823   1.388   5.864   2.661 -0.2395  0.3869  0.0282
16803TIP3    H171824   1.443   5.878   2.584  1.0159 -1.1625  0.6144
16803TIP3    H271825   1.419   5.781   2.698 -1.7845  0.3847  1.3893
16804TIP3   OH271826   5.898   6.328   2.244  0.0793  0.6712  0.6996
16804TIP3    H171827   5.992   6.327   2.226  0.2102 -1.6322  1.2920
16804TIP3    H271828   5.887   6.399   2.307  1.0636  2.4044 -1.0100
16805TIP3   OH271829   4.791   6.922   4.754  0.1867 -0.3446 -0.1284
16805TIP3    H171830   4.809   6.996   4.697 -1.3971 -1.7751 -2.5757
16805TIP3    H271831   4.774   6.849   4.694  0.9724 -2.5232  2.1949
16806TIP3   OH271832   7.089   3.900   4.345 -0.0211  0.0518  0.2428
16806TIP3    H171833   7.084   3.919   4.439 -0.0859 -1.2515  0.5158
16806TIP3    H271834   7.054   3.811   4.337 -1.0641  0.5781 -1.1698
16807TIP3   OH271835   5.538   4.136   3.344 -0.6340  0.0934  0.0357
16807TIP3    H171836   5.616   4.188   3.326  0.9443 -2.1219  0.3626
16807TIP3    H271837   5.513   4.159   3.433 -0.3483  0.7858 -0.0616
16808TIP3   OH271838   0.938   5.009   4.756  0.5492 -0.2810 -0.0758
16808TIP3    H171839   0.941   4.973   4.667  2.0489  0.2325 -0.2429
16808TIP3    H271840   1.002   4.958   4.804 -0.6268 -0.9060  0.8637
16809TIP3   OH271841   1.692   0.893   4.180  0.1107 -0.1755  0.9922
16809TIP3    H171842   1.605   0.933   4.179  1.1943  2.2968  1.5166
16809TIP3    H271843   1.691   0.834   4.254 -1.6465 -1.3896  0.0164
16810TIP3   OH271844   1.016   4.890   4.218 -0.4530  1.1191  0.3483
16810TIP3    H171845   0.994   4.810   4.171 -0.5863 -0.1242  2.4526
16810TIP3    H271846   1.103   4.875   4.253 -0.7999  1.5492  1.4385
16811TIP3   OH271847   3.671   5.351   2.754  0.1483 -0.3298 -0.5865
16811TIP3    H171848   3.580   5.373   2.733  0.6498  2.7116  0.2694
16811TIP3    H271849   3.667   5.305   2.837 -0.5372  0.7590 -0.0092
16812TIP3   OH271850   0.021   3.473   3.994  0.1182  0.1877  0.2583
16812TIP3    H171851  -0.013   3.549   3.946  0.4301  0.0861 -0.1311
16812TIP3    H271852   0.099   3.506   4.038 -0.4004  0.3842  1.0334
16813TIP3   OH271853   5.696   0.088   3.318  0.3571  0.2799 -0.2954
16813TIP3    H171854   5.699   0.027   3.392 -1.7259  2.4624  1.6858
16813TIP3    H271855   5.787   0.100   3.292  1.1137 -0.6417  1.8508
16814TIP3   OH271856   2.646   0.020   4.612 -0.0261  0.5678 -0.4820
16814TIP3    H171857   2.590  -0.011   4.683 -0.1512  2.0605  0.0870
16814TIP3    H271858   2.588   0.031   4.538  0.2383 -1.7560 -1.0740
16815TIP3   OH271859   2.184   0.945   4.058 -0.3173  0.1983  0.3703
16815TIP3    H171860   2.219   1.011   3.999  0.7571 -0.9062 -0.2566
16815TIP3    H271861   2.093   0.933   4.030 -1.4563  3.5155  2.3931
16816TIP3   OH271862   0.380   1.525  14.282  0.0112  0.0674  0.0215
16816TIP3    H171863   0.415   1.449  14.329  3.1895  0.8353 -0.9932
16816TIP3    H271864   0.442   1.596  14.302  0.1730  0.9769 -3.4770
16817TIP3   OH271865   4.307   5.418   2.033 -0.1314 -0.8503  0.0774
16817TIP3    H171866   4.240   5.351   2.015 -0.8348 -0.5032  1.3281
16817TIP3    H271867   4.262   5.483   2.087  1.1662 -0.5115  0.7720
16818TIP3   OH271868   5.448   4.372   4.551 -0.0360 -0.1407 -0.6183
16818TIP3    H171869   5.539   4.342   4.549  0.1161  0.3470 -2.1759
16818TIP3    H271870   5.402   4.306   4.602  1.4375  0.3332  1.4065
16819TIP3   OH271871   3.528   1.451   3.704  0.7163 -0.1923  0.6580
16819TIP3    H171872   3.571   1.532   3.677  0.6103  0.0039  1.0737
16819TIP3    H271873   3.594   1.405   3.757 -0.1361  0.8854  2.7166
16820TIP3   OH271874   4.115   4.295   3.246 -0.2766  0.4185 -0.3036
16820TIP3    H171875   4.052   4.228   3.220 -0.0678 -0.7858  2.1638
16820TIP3    H271876   4.068   4.347   3.312  0.0528  1.8198 -1.1588
16821TIP3   OH271877   2.957   3.165   3.803 -0.4097 -0.2443  0.4633
16821TIP3    H171878   2.890   3.102   3.831 -0.3658 -0.7458 -0.5314
16821TIP3    H271879   3.028   3.111   3.770 -0.0485  0.3168  0.3139
16822TIP3   OH271880   5.466   1.254   5.284  0.4405 -0.3683 -0.1740
16822TIP3    H171881   5.555   1.263   5.250  0.4765 -1.8945 -0.5225
16822TIP3    H271882   5.467   1.299   5.368  0.8080  1.9742 -1.3935
16823TIP3   OH271883   3.420   5.697   3.655 -0.2688 -0.4021 -0.1350
16823TIP3    H171884   3.399   5.614   3.696 -0.1669 -0.9559 -1.1967
16823TIP3    H271885   3.420   5.760   3.727  0.0709 -1.3896  0.7339
16824TIP3   OH271886   0.448   6.322   3.111  0.1358  0.0644  0.0017
16824TIP3    H171887   0.375   6.281   3.158  0.3285  0.2800  0.4968
16824TIP3    H271888   0.448   6.281   3.025 -2.4373  2.1687 -1.0528
16825TIP3   OH271889   6.747   6.052   2.242  0.2917  0.1090 -0.2880
16825TIP3    H171890   6.834   6.049   2.281  0.1789 -1.3943 -0.1407
16825TIP3    H271891   6.723   6.145   2.245  2.2724  0.6746 -1.2104
16826TIP3   OH271892   6.895   4.709   1.898 -0.8995  0.1221  0.3447
16826TIP3    H171893   6.983   4.692   1.931 -0.0762  1.2567 -1.1734
16826TIP3    H271894   6.880   4.802   1.916 -2.0764 -0.2260  1.2304
16827TIP3   OH271895   1.592   6.714   2.198 -0.1808 -0.6677  0.3405
16827TIP3    H171896   1.541   6.744   2.273 -0.4430 -0.0099 -0.0954
16827TIP3    H271897   1.643   6.641   2.231  0.8784  0.5992  1.5488
16828TIP3   OH271898   1.085   1.930   4.074  0.1572 -1.0596  0.8534
16828TIP3    H171899   1.158   1.868   4.065  0.8085 -0.2624  0.5376
16828TIP3    H271900   1.124   2.008   4.113 -0.7447 -0.9882  1.6433
16829TIP3   OH271901   0.711   1.566   5.042  0.2334  0.2647 -0.4827
16829TIP3    H171902   0.786   1.510   5.021 -0.0202 -0.9867  1.8061
16829TIP3    H271903   0.688   1.543   5.132 -3.1106  0.4092 -1.2345
16830TIP3   OH271904   6.271   0.697   3.454 -1.5439 -0.0177 -0.0674
16830TIP3    H171905   6.185   0.670   3.421 -1.5102  0.7468 -0.7794
16830TIP3    H271906   6.265   0.792   3.464 -0.6832  0.0849 -0.4238
16831TIP3   OH271907   0.112   2.962   5.392  0.1985 -0.8495  0.3293
16831TIP3    H171908   0.107   2.890   5.329 -1.1561 -1.1660  0.7670
16831TIP3    H271909   0.037   3.017   5.371  0.1038 -0.6196  1.2630
16832TIP3   OH271910   4.421   2.133   4.926 -0.1207 -0.2177 -0.3467
16832TIP3    H171911   4.356   2.081   4.973 -0.0230 -1.0026 -1.0737
16832TIP3    H271912   4.489   2.151   4.990 -0.4049 -0.5515  0.0454
16833TIP3   OH271913   7.037   2.044   3.642 -0.5632 -0.5023 -0.8888
16833TIP3    H171914   7.020   2.114   3.706  0.7859 -0.5144 -0.5156
16833TIP3    H271915   6.966   1.982   3.655 -1.4140  0.4726 -0.7714
16834TIP3   OH271916   1.144   5.065   3.958  0.4685  0.3588  0.5074
16834TIP3    H171917   1.108   5.153   3.948  1.3523  0.5276 -1.3946
16834TIP3    H271918   1.070   5.007   3.940 -0.1141  0.7060  1.7583
16835TIP3   OH271919   5.606   0.458   5.070 -0.3495 -0.0223  0.1783
16835TIP3    H171920   5.543   0.418   5.130  0.5444 -0.4222  0.8385
16835TIP3    H271921   5.558   0.466   4.988 -2.0375  1.7462  1.2736
16836TIP3   OH271922   0.765   2.834   3.550 -0.2569  0.3091 -0.7585
16836TIP3    H171923   0.795   2.795   3.633 -3.1006 -1.8515 -0.6653
16836TIP3    H271924   0.729   2.919   3.574  2.4222  1.3804 -0.3768
16837TIP3   OH271925   3.869   2.358   5.170  0.4348 -0.4147  0.3976
16837TIP3    H171926   3.800   2.348   5.236 -2.9446  1.4549 -2.6614
16837TIP3    H271927   3.921   2.433   5.200 -0.7547  0.1052  1.1838
16838TIP3   OH271928   2.468   5.251   2.777  0.2200 -0.4317  0.0201
16838TIP3    H171929   2.407   5.321   2.801  0.5700 -0.3945  0.8260
16838TIP3    H271930   2.416   5.190   2.724  0.0723  0.7535 -1.2268
16839TIP3   OH271931   2.608   2.478   2.335  0.2382  0.3312  0.0812
16839TIP3    H171932   2.629   2.545   2.400 -0.1323  0.4106  0.1211
16839TIP3    H271933   2.693   2.449   2.302  0.3661  1.3083 -0.4410
16840TIP3   OH271934   2.279   4.867   3.737 -0.3206 -0.1104  0.0737
16840TIP3    H171935   2.203   4.837   3.686 -2.0803  2.8820  0.7961
16840TIP3    H271936   2.255   4.850   3.828 -0.4688  1.5686  0.3542
16841TIP3   OH271937   0.554   1.593   5.487  0.7891  0.4761 -0.8731
16841TIP3    H171938   0.511   1.508   5.481  1.1493  0.3571 -1.7733
16841TIP3    H271939   0.545   1.618   5.579  1.8271 -1.1243 -0.3298
16842TIP3   OH271940   5.982   0.954   2.317 -0.2896  0.4128  0.1564
16842TIP3    H171941   6.045   0.909   2.260 -0.0520  1.4413 -0.3945
16842TIP3    H271942   5.975   0.897   2.393 -0.2529 -0.7441 -0.6846
16843TIP3   OH271943   3.386   0.152   4.203  0.6607  0.0291 -0.2183
16843TIP3    H171944   3.373   0.059   4.224  0.8004  0.6206  2.6121
16843TIP3    H271945   3.301   0.192   4.220  0.6713  0.4884 -1.2086
16844TIP3   OH271946   5.944   1.887   4.497 -0.1545  0.3092  0.0384
16844TIP3    H171947   5.978   1.858   4.412  0.1799 -1.0326  0.6252
16844TIP3    H271948   5.876   1.823   4.519  0.6963 -0.1485  1.4089
16845TIP3   OH271949   4.143   0.593   4.799  0.2444 -0.1435 -0.4106
16845TIP3    H171950   4.059   0.639   4.797 -0.1561 -0.8918 -1.1264
16845TIP3    H271951   4.200   0.643   4.742  0.4258  0.6234  0.4326
16846TIP3   OH271952   4.687   4.103   4.063  0.3524  0.5351  0.7372
16846TIP3    H171953   4.756   4.097   4.129  0.8175 -1.3210  0.1080
16846TIP3    H271954   4.612   4.142   4.110  1.3983  1.3813  1.7435
16847TIP3   OH271955   2.864   3.744   5.388 -0.3904 -0.5375 -0.3332
16847TIP3    H171956   2.834   3.813   5.330 -0.0913 -0.8546 -0.8653
16847TIP3    H271957   2.937   3.782   5.436 -1.2383  0.0387  0.5294
16848TIP3   OH271958   0.821   6.161   5.219  0.2181  0.6938  0.2352
16848TIP3    H171959   0.895   6.135   5.165  0.6981 -0.6030  1.4727
16848TIP3    H271960   0.842   6.250   5.247  0.9207  0.6298 -0.0836
16849TIP3   OH271961   4.019   6.118  13.636  0.2403  0.7239  0.0594
16849TIP3    H171962   4.079   6.060  13.683 -0.1587  1.4710  1.5073
16849TIP3    H271963   3.963   6.155  13.704 -1.6153  0.3467 -1.2294
16850TIP3   OH271964   0.050   4.854   0.309 -0.1581  0.4091  0.2506
16850TIP3    H171965   0.064   4.899   0.392 -0.8764  1.5306 -0.2315
16850TIP3    H271966   0.102   4.904   0.246  1.6396 -1.3521  0.2911
16851TIP3   OH271967   3.266   0.553   5.511 -0.4691 -0.1106 -0.4083
16851TIP3    H171968   3.303   0.468   5.489 -1.4767 -0.8550  0.6319
16851TIP3    H271969   3.212   0.535   5.589  0.6655  1.8053  0.8558
16852TIP3   OH271970   4.624   5.574   3.547 -0.4532 -0.3393 -0.3626
16852TIP3    H171971   4.663   5.570   3.635 -0.5815  0.0121 -0.2916
16852TIP3    H271972   4.676   5.512   3.495  1.6782  1.7885 -0.8476
16853TIP3   OH271973   0.104   0.074   5.820  0.3469 -0.5756  0.1077
16853TIP3    H171974   0.096   0.108   5.731 -0.1568 -1.0281 -0.0221
16853TIP3    H271975   0.173   0.008   5.815  1.0263  0.1113  0.2705
16854TIP3   OH271976   4.321   3.149   0.843 -0.1601  0.2458  0.0859
16854TIP3    H171977   4.229   3.134   0.823 -0.1310  0.6666 -0.3674
16854TIP3    H271978   4.333   3.112   0.930 -1.3692  2.4366  1.2283
16855TIP3   OH271979   1.422   1.842   4.695  0.2306 -0.2945  0.1825
16855TIP3    H171980   1.431   1.905   4.766 -0.5693  0.0029  0.0271
16855TIP3    H271981   1.451   1.890   4.617 -1.8071  0.4122 -0.1912
16856TIP3   OH271982   2.043   4.180   5.873 -0.1392 -0.2204  0.6180
16856TIP3    H171983   2.061   4.105   5.816 -0.3824  0.7565 -0.7977
16856TIP3    H271984   1.979   4.148   5.936  1.5812 -1.8624  1.5584
16857TIP3   OH271985   7.022   5.892   3.427 -0.4137  0.4931  0.1302
16857TIP3    H171986   7.013   5.986   3.443 -0.7772  0.2953  1.1220
16857TIP3    H271987   6.935   5.857   3.446 -0.0250 -0.1670  0.7120
16858TIP3   OH271988   0.093   0.224   4.921 -0.2215 -0.3306 -0.1728
16858TIP3    H171989   0.150   0.152   4.890 -0.1355  0.3222 -1.5858
16858TIP3    H271990   0.114   0.233   5.014  1.1843 -0.8452 -0.4241
16859TIP3   OH271991   5.222   7.052   4.745 -0.5873  0.1832 -0.0057
16859TIP3    H171992   5.133   7.058   4.711  0.2757 -1.2125 -2.6008
16859TIP3    H271993   5.278   7.086   4.675  1.0032  0.0598  1.1592
16860TIP3   OH271994   3.464   2.206   4.878 -0.1365 -0.2278  0.0582
16860TIP3    H171995   3.533   2.272   4.868 -0.2069 -0.0811  0.5451
16860TIP3    H271996   3.473   2.150   4.800 -1.0984  1.2814 -1.1737
16861TIP3   OH271997   3.956   0.115   5.088 -0.1674  0.1610 -0.5716
16861TIP3    H171998   4.042   0.156   5.080  0.0199 -0.2422 -0.6586
16861TIP3    H271999   3.942   0.106   5.182  0.2530 -0.5357 -0.5763
16862TIP3   OH272000   1.670   4.224   1.970 -0.0678  0.2153  0.2916
16862TIP3    H172001   1.757   4.252   1.998 -0.2334  0.1245  0.9041
16862TIP3    H272002   1.613   4.298   1.988  0.2538  1.1345 -2.2055
16863TIP3   OH272003   5.209   4.979   3.959 -1.1660  0.5029 -0.0478
16863TIP3    H172004   5.273   5.040   3.923 -0.4979 -0.8932 -1.3387
16863TIP3    H272005   5.126   5.027   3.959 -0.0411  2.5292  2.1984
16864TIP3   OH272006   2.776   2.875   5.311  0.0988  0.3312  0.6342
16864TIP3    H172007   2.705   2.907   5.255  1.0814  1.7040  0.1580
16864TIP3    H272008   2.736   2.869   5.398 -1.0328 -0.4350  0.0830
16865TIP3   OH272009   4.553   7.146   3.634  0.4842 -0.0403 -0.2874
16865TIP3    H172010   4.542   7.140   3.729  0.0621 -1.9587 -0.4320
16865TIP3    H272011   4.564   7.239   3.617 -0.4835  0.4278  1.5336
16866TIP3   OH272012   2.105   0.976   5.265 -0.0186 -0.0607 -0.5374
16866TIP3    H172013   2.034   0.913   5.278  0.6507 -0.3998  1.8102
16866TIP3    H272014   2.145   0.985   5.352  1.4066  1.8054 -1.3427
16867TIP3   OH272015   1.615   1.509   4.875  0.1760  0.2584 -0.0717
16867TIP3    H172016   1.647   1.552   4.796  0.3130  1.2958  0.5323
16867TIP3    H272017   1.553   1.571   4.912 -1.1282 -0.9273 -0.2275
16868TIP3   OH272018   1.198   5.908   3.066 -0.5814  0.2614  0.0354
16868TIP3    H172019   1.152   5.988   3.042  0.6246  0.8738 -0.2631
16868TIP3    H272020   1.289   5.924   3.041 -0.5051 -1.5895 -0.9828
16869TIP3   OH272021   3.784   1.954   4.289  0.2918 -0.2186  0.1292
16869TIP3    H172022   3.830   1.971   4.371 -0.2776  0.9776  0.2092
16869TIP3    H272023   3.737   1.872   4.304 -2.0844  1.4377  2.0158
16870TIP3   OH272024   3.210   0.264   3.514  0.4765 -0.1913  1.1727
16870TIP3    H172025   3.182   0.180   3.549  0.6916 -0.9193 -0.3575
16870TIP3    H272026   3.293   0.282   3.557  0.1853 -0.5239  1.8702
16871TIP3   OH272027   5.366   0.029   4.563  0.5678 -0.1931  0.3682
16871TIP3    H172028   5.391   0.119   4.544  1.8186  0.0832  3.2086
16871TIP3    H272029   5.394  -0.020   4.485  3.9562  1.1960  0.6042
16872TIP3   OH272030   3.889   0.814   3.863  0.2089  0.7318  0.1049
16872TIP3    H172031   3.829   0.787   3.933 -0.0025  1.4040  0.1830
16872TIP3    H272032   3.838   0.875   3.810  0.3833  0.2527 -0.6151
16873TIP3   OH272033   6.757   4.270   4.875  0.4997  0.1458 -0.4712
16873TIP3    H172034   6.680   4.220   4.901 -0.8763  1.2609 -2.2838
16873TIP3    H272035   6.831   4.221   4.911 -1.1750  0.7490  4.0299
16874TIP3   OH272036   1.253   2.119   3.629  0.1888 -0.5911  0.5828
16874TIP3    H172037   1.322   2.054   3.638  1.5677  0.8361  0.4058
16874TIP3    H272038   1.280   2.191   3.687 -0.5943  0.4358 -0.3101
16875TIP3   OH272039   6.366   6.226   0.936 -0.5880 -0.1700  0.4459
16875TIP3    H172040   6.432   6.164   0.969 -0.1171  0.7891  1.3280
16875TIP3    H272041   6.417   6.299   0.901 -1.1771  0.9023  1.7705
16876TIP3   OH272042   5.412   0.112   2.633  0.4926 -0.5632 -0.2060
16876TIP3    H172043   5.353   0.052   2.587 -0.0480  0.1120 -0.4024
16876TIP3    H272044   5.453   0.058   2.701 -2.2814 -0.4364  1.6352
16877TIP3   OH272045   4.702   3.048   5.541 -0.7477  0.0710 -0.3592
16877TIP3    H172046   4.677   3.130   5.498  0.6777  0.4357 -0.5116
16877TIP3    H272047   4.634   2.986   5.514 -1.1735  0.8915 -1.2323
16878TIP3   OH272048   0.973   6.578   2.622  0.1515 -0.2278  1.0320
16878TIP3    H172049   0.890   6.617   2.650 -0.2162 -1.2977  1.4162
16878TIP3    H272050   1.012   6.544   2.702 -0.3410 -2.2050  0.4487
16879TIP3   OH272051   6.357   5.394   5.120 -0.0844  0.5595 -0.8920
16879TIP3    H172052   6.412   5.471   5.105  1.7492 -0.8588 -1.7172
16879TIP3    H272053   6.341   5.394   5.215  0.3842  1.6522 -0.8090
16880TIP3   OH272054   1.469   1.527   5.209 -1.0153 -0.8310  0.5978
16880TIP3    H172055   1.448   1.514   5.117 -0.0573 -2.3795  0.5831
16880TIP3    H272056   1.385   1.545   5.251 -1.2826  1.3434 -0.7934
16881TIP3   OH272057   4.156   2.091   2.336 -0.3036 -0.1526 -0.3855
16881TIP3    H172058   4.212   2.122   2.407  0.2718 -1.2396 -0.3521
16881TIP3    H272059   4.214   2.037   2.282 -0.8856  0.1619 -1.3470
16882TIP3   OH272060   4.841   4.124   5.367  0.0645 -0.8329 -0.1081
16882TIP3    H172061   4.901   4.132   5.441 -0.6027  2.0514  0.1959
16882TIP3    H272062   4.785   4.050   5.390  1.6725 -1.7584  0.9281
16883TIP3   OH272063   0.272   1.679   5.050  0.6113  0.2228 -0.1151
16883TIP3    H172064   0.350   1.671   5.106  0.1615  3.6645  1.1312
16883TIP3    H272065   0.217   1.604   5.074  1.3797  0.4673  2.5368
16884TIP3   OH272066   0.152   2.281   3.374  0.4052 -0.2190  0.0697
16884TIP3    H172067   0.126   2.332   3.451  1.1065 -1.3406  1.0751
16884TIP3    H272068   0.193   2.344   3.316 -1.6021  0.9681 -0.1158
16885TIP3   OH272069   4.046   5.974   5.448 -0.5070  0.2849 -0.3444
16885TIP3    H172070   4.108   5.967   5.520 -1.5507 -0.0552  0.5456
16885TIP3    H272071   4.050   5.889   5.404 -0.0404  0.4103 -0.5487
16886TIP3   OH272072   2.890   6.952   5.266 -0.2380  0.4246  0.3041
16886TIP3    H172073   2.836   6.972   5.189 -2.0984 -0.1415  1.4113
16886TIP3    H272074   2.949   7.027   5.274 -0.3598  0.7150 -1.3817
16887TIP3   OH272075   3.879   1.780   1.435  0.7034 -0.4694  0.3333
16887TIP3    H172076   3.864   1.854   1.494  0.6348  0.3584 -0.7043
16887TIP3    H272077   3.926   1.716   1.488  0.9227  0.3928  1.1944
16888TIP3   OH272078   1.045   2.227   4.526  0.7174  0.4622 -0.2045
16888TIP3    H172079   1.084   2.148   4.563  2.4882  1.2569 -0.3187
16888TIP3    H272080   1.015   2.276   4.603 -1.2096 -0.7119 -0.1807
16889TIP3   OH272081   3.148   1.704   4.354  0.8405  0.1741 -0.9122
16889TIP3    H172082   3.061   1.714   4.317  0.3861 -0.8792 -0.1514
16889TIP3    H272083   3.134   1.692   4.448  1.7883 -0.0754 -0.7925
16890TIP3   OH272084   5.573   0.756   4.445  0.3741 -0.1797  0.1549
16890TIP3    H172085   5.499   0.727   4.498 -1.8002  0.4499 -2.4109
16890TIP3    H272086   5.566   0.705   4.364  2.1097  0.6522 -0.5422
16891TIP3   OH272087   3.637   5.338   3.966 -0.2544  0.1489  0.3513
16891TIP3    H172088   3.656   5.418   3.916  1.0860 -0.2139  0.2796
16891TIP3    H272089   3.541   5.336   3.972 -0.2946  1.8965  0.5678
16892TIP3   OH272090   6.467   6.410   4.942 -0.0524  0.1306  0.2596
16892TIP3    H172091   6.396   6.347   4.952 -0.0798 -0.0141 -0.7935
16892TIP3    H272092   6.426   6.496   4.954 -0.2458  0.0012  0.5037
16893TIP3   OH272093   1.413   0.623   4.756 -0.1340  0.6267 -0.0062
16893TIP3    H172094   1.336   0.677   4.776 -1.7668 -1.4301 -0.5373
16893TIP3    H272095   1.402   0.601   4.663  1.1046  0.2853 -0.0742
16894TIP3   OH272096   3.813   6.052   3.309  0.3652 -0.3845 -0.4466
16894TIP3    H172097   3.836   5.981   3.249 -0.9489 -2.3146  1.3027
16894TIP3    H272098   3.891   6.064   3.363  0.4416 -0.7492 -0.4796
16895TIP3   OH272099   2.128   6.244   4.436  0.0869 -0.3378 -0.1579
16895TIP3    H172100   2.202   6.285   4.392  0.9707 -1.0475  0.6647
16895TIP3    H272101   2.088   6.315   4.487  0.1464  0.0634 -0.6700
16896TIP3   OH272102   1.284   5.985   4.928  0.2696 -0.5645  0.2685
16896TIP3    H172103   1.257   5.980   5.020 -0.3162 -0.0229  0.1276
16896TIP3    H272104   1.301   5.894   4.904 -2.2027 -1.0232  0.1428
16897TIP3   OH272105   5.720   0.369   3.920 -0.2214 -0.0920  0.0999
16897TIP3    H172106   5.666   0.403   3.848  0.2921 -1.0694 -0.7648
16897TIP3    H272107   5.775   0.443   3.945 -1.7419  0.8325  0.7965
16898TIP3   OH272108   0.722   1.046   4.371  0.0511 -0.4185  0.1170
16898TIP3    H172109   0.784   1.118   4.355  0.2547 -0.5933  0.1257
16898TIP3    H272110   0.749   1.009   4.455 -0.4427 -0.1041  0.4179
16899TIP3   OH272111   3.431   1.921   4.424  0.1967 -0.8017  0.4010
16899TIP3    H172112   3.451   1.903   4.332 -0.9572  0.0704 -0.0287
16899TIP3    H272113   3.353   1.869   4.442 -1.0659  0.9768  0.1612
16900TIP3   OH272114   5.088   1.013   5.090 -0.0166 -0.6876  0.1335
16900TIP3    H172115   5.151   1.086   5.089  0.3395 -0.9587  1.6702
16900TIP3    H272116   5.099   0.971   5.004 -0.1914  1.0265 -0.7509
16901TIP3   OH272117   3.299   6.554   5.263  0.0294  0.4325  0.1499
16901TIP3    H172118   3.245   6.495   5.210  0.5112  0.6457 -0.5831
16901TIP3    H272119   3.364   6.497   5.304 -0.8495  0.1542  1.1605
16902TIP3   OH272120   4.657   0.939   5.363 -0.1930  0.1345 -0.3081
16902TIP3    H172121   4.725   1.006   5.372 -0.7123  0.7786 -1.0827
16902TIP3    H272122   4.576   0.984   5.385 -0.3939 -0.5740  0.3860
16903TIP3   OH272123   4.006   1.665   5.289  0.4396 -0.4570  0.4429
16903TIP3    H172124   4.100   1.678   5.303  0.0572  2.0449  1.0396
16903TIP3    H272125   3.994   1.681   5.195  0.4712  0.3573  0.5686
16904TIP3   OH272126   1.613   0.201   3.024 -0.6200  0.4757  0.4152
16904TIP3    H172127   1.667   0.123   3.011 -1.0758  0.1805  0.2588
16904TIP3    H272128   1.656   0.249   3.095  0.8058  1.1280 -0.8600
16905TIP3   OH272129   3.681   1.295   0.606 -0.0673  0.0471 -0.6390
16905TIP3    H172130   3.677   1.304   0.511 -1.3517 -0.5399 -0.6609
16905TIP3    H272131   3.626   1.366   0.639 -1.8103 -1.3453 -0.4529
16906TIP3   OH272132   5.736   1.112   1.901 -0.1790  0.1089  0.4587
16906TIP3    H172133   5.651   1.144   1.930 -0.6965  0.3379 -1.2094
16906TIP3    H272134   5.787   1.191   1.881 -0.0380 -0.0396  0.2137
16907TIP3   OH272135   3.468   5.402   3.269 -0.5545 -0.7008 -0.1680
16907TIP3    H172136   3.511   5.474   3.222 -0.0505 -0.2995  0.9121
16907TIP3    H272137   3.411   5.445   3.332 -0.8855 -1.2553 -0.0823
16908TIP3   OH272138   2.261   2.662   3.085 -0.1641 -0.0019  0.3600
16908TIP3    H172139   2.236   2.662   3.177 -1.2854 -1.8697  0.0717
16908TIP3    H272140   2.190   2.708   3.041  0.3700  0.8870  0.4232
16909TIP3   OH272141   7.000   2.169  14.876  0.3457 -0.1622 -0.3727
16909TIP3    H172142   6.916   2.166  14.830 -0.8692 -3.4046  1.8488
16909TIP3    H272143   7.054   2.104  14.832  0.1681 -1.1889  0.8882
16910TIP3   OH272144   3.266   0.332   4.741 -0.7227  0.3477 -0.1925
16910TIP3    H172145   3.227   0.246   4.727 -1.3836  0.6371 -0.1647
16910TIP3    H272146   3.359   0.320   4.723 -1.0974  0.0673 -2.0530
16911TIP3   OH272147   3.850   1.133   5.976  0.5190  0.1206  0.1626
16911TIP3    H172148   3.941   1.108   5.986  0.7968  0.7852 -0.6382
16911TIP3    H272149   3.800   1.060   6.014  1.3511 -0.8173 -0.5303
16912TIP3   OH272150   0.114   0.828   3.981  0.0668  0.0956 -0.6299
16912TIP3    H172151   0.203   0.793   3.980  0.2814  0.5683  0.6147
16912TIP3    H272152   0.127   0.923   3.993 -0.6228  0.0677  0.3265
16913TIP3   OH272153   3.490   1.514   5.630  0.1440 -0.3598 -0.2606
16913TIP3    H172154   3.415   1.454   5.630 -0.1679 -0.0509 -3.2394
16913TIP3    H272155   3.493   1.548   5.719 -2.4357 -1.3871  0.2823
16914TIP3   OH272156   1.342   1.201   5.541  0.0831 -0.0640 -0.2127
16914TIP3    H172157   1.274   1.156   5.491  0.0594 -0.7198  0.4118
16914TIP3    H272158   1.301   1.281   5.573 -0.4020 -0.4824  0.2017
16915TIP3   OH272159   5.749   5.950   4.812  0.3005 -0.3067 -0.1519
16915TIP3    H172160   5.703   5.870   4.837 -0.2151  0.0654  0.0913
16915TIP3    H272161   5.740   6.008   4.888 -1.2498  0.8227 -1.1684
16916TIP3   OH272162   3.395   1.243   3.587 -0.0197 -1.1340  0.5998
16916TIP3    H172163   3.410   1.326   3.632 -0.3456 -1.2822  0.9834
16916TIP3    H272164   3.480   1.219   3.552  0.0724 -0.6286  0.4750
16917TIP3   OH272165   3.347   4.044   2.294  0.1042 -0.2021  0.0467
16917TIP3    H172166   3.369   3.952   2.284  1.1437  0.2330 -1.7407
16917TIP3    H272167   3.430   4.088   2.310 -0.3186  0.5135  0.3467
16918TIP3   OH272168   5.807   1.401   2.439 -0.1307  0.3231  0.0269
16918TIP3    H172169   5.813   1.309   2.416 -0.6958  0.7453 -1.8925
16918TIP3    H272170   5.883   1.417   2.496  0.6687 -1.0248 -0.6554
16919TIP3   OH272171   0.850   3.835   3.944  0.0302  0.0493 -0.3337
16919TIP3    H172172   0.867   3.863   4.034 -0.6553  0.7647 -0.4132
16919TIP3    H272173   0.797   3.906   3.907 -0.7389 -0.8214 -0.9187
16920TIP3   OH272174   2.560   4.959   5.587  0.0493  0.8926  0.0889
16920TIP3    H172175   2.564   5.002   5.673  0.0778  0.0957  0.4998
16920TIP3    H272176   2.644   4.981   5.546  0.6331  0.1412  0.8402
16921TIP3   OH272177   0.880   6.727   5.320  0.1287  0.2904 -0.1418
16921TIP3    H172178   0.898   6.650   5.375 -0.6269  0.7476  0.7656
16921TIP3    H272179   0.966   6.763   5.300  0.4502 -0.3331  0.0964
16922TIP3   OH272180   6.376   0.571   1.931  0.0385 -0.5514 -0.0151
16922TIP3    H172181   6.368   0.583   2.026  0.0129  0.7749 -0.1755
16922TIP3    H272182   6.456   0.619   1.908  0.1813 -1.0817 -0.6295
16923TIP3   OH272183   3.498   5.347   1.929  0.3375 -0.1721 -0.6859
16923TIP3    H172184   3.437   5.341   2.003 -0.1884 -1.7840 -1.2324
16923TIP3    H272185   3.459   5.413   1.871  0.1555  0.2552 -0.0766
16924TIP3   OH272186   0.066   2.173   1.164 -0.8060 -0.3519  0.3740
16924TIP3    H172187   0.002   2.149   1.231 -0.4232  0.1949  0.9493
16924TIP3    H272188   0.094   2.089   1.127 -0.8164 -0.6853  1.0965
16925TIP3   OH272189   2.188   1.291   4.579  0.1858 -0.5547 -0.2399
16925TIP3    H172190   2.243   1.239   4.520  0.7229  1.3873 -1.4990
16925TIP3    H272191   2.241   1.300   4.659  0.3831 -1.3100 -0.2784
16926TIP3   OH272192   3.176   2.599   5.960  0.4353  0.6899  0.2317
16926TIP3    H172193   3.105   2.549   5.920 -0.9555  1.5430  1.5819
16926TIP3    H272194   3.212   2.651   5.888  0.3131 -0.4320 -0.6577
16927TIP3   OH272195   5.814   3.914   4.629 -0.5472 -0.1316 -0.1446
16927TIP3    H172196   5.789   3.932   4.719 -1.9586 -1.3661 -0.2791
16927TIP3    H272197   5.876   3.984   4.607 -0.3011  0.2540  1.7170
16928TIP3   OH272198   6.346   5.809   2.248 -0.1203  0.0271  0.8537
16928TIP3    H172199   6.408   5.782   2.181 -1.2238 -0.3855 -0.0308
16928TIP3    H272200   6.395   5.869   2.305  0.9053  0.1507 -0.1559
16929TIP3   OH272201   5.324   1.139   3.129 -0.2483 -0.2789 -0.1632
16929TIP3    H172202   5.274   1.148   3.210  0.3035  0.2408  0.1157
16929TIP3    H272203   5.354   1.048   3.130  0.5101 -0.0273  0.6508
16930TIP3   OH272204   1.939   1.438   4.519  1.0509  0.1169 -0.0910
16930TIP3    H172205   1.899   1.418   4.434  1.0734  3.0981 -0.8354
16930TIP3    H272206   2.003   1.367   4.532 -1.1669 -2.1480 -1.0206
16931TIP3   OH272207   2.303   2.992   4.729  0.3886 -0.0193  0.5780
16931TIP3    H172208   2.327   2.900   4.739  0.8638  0.0938  0.4903
16931TIP3    H272209   2.214   2.997   4.763 -0.4310 -0.9211 -1.3724
16932TIP3   OH272210   7.057   6.681   2.253 -0.0071 -0.4246  0.3797
16932TIP3    H172211   6.962   6.685   2.254 -0.0813 -2.1188  0.4510
16932TIP3    H272212   7.083   6.706   2.342 -0.4189 -0.9551  0.6468
16933TIP3   OH272213   5.748   2.893   2.378  0.8007 -0.3737 -0.6760
16933TIP3    H172214   5.726   2.951   2.305  0.7012 -1.1867 -1.2943
16933TIP3    H272215   5.681   2.911   2.444  2.9690  3.0794  0.7871
16934TIP3   OH272216   2.506   0.280   6.301 -0.0867  0.1426  0.6391
16934TIP3    H172217   2.563   0.220   6.349 -1.5321 -0.6893  1.3584
16934TIP3    H272218   2.533   0.270   6.210  0.2640 -0.9700  0.8542
16935TIP3   OH272219   0.955   2.620   5.648 -0.4177  0.2171  0.0829
16935TIP3    H172220   0.943   2.526   5.632 -0.5369  0.6582 -2.6406
16935TIP3    H272221   1.048   2.635   5.631 -1.0102  1.1180 -2.6392
16936TIP3   OH272222   3.584   0.529   5.589  0.3054 -0.3496  0.1028
16936TIP3    H172223   3.530   0.487   5.656  1.9363 -0.9267  1.0856
16936TIP3    H272224   3.546   0.616   5.579 -1.0309 -0.8726  0.5124
16937TIP3   OH272225   3.772   0.824   5.646  1.0586 -0.0590 -0.5321
16937TIP3    H172226   3.783   0.757   5.713 -3.4948  1.8072  2.3275
16937TIP3    H272227   3.726   0.780   5.574 -0.7606 -0.3731  0.7900
16938TIP3   OH272228   2.959   1.821   3.319 -0.0792 -0.1151  0.5526
16938TIP3    H172229   2.938   1.786   3.232  1.8507  0.5344 -0.1968
16938TIP3    H272230   2.942   1.915   3.312  0.3715 -0.0142  0.7815
16939TIP3   OH272231   6.269   0.997   3.494  0.1783 -0.4624  1.0526
16939TIP3    H172232   6.332   1.018   3.425 -0.5442  0.5535  0.6804
16939TIP3    H272233   6.190   1.045   3.468 -0.1347 -0.1758  2.5326
16940TIP3   OH272234   2.164   1.799   4.625  0.4310  0.5341 -0.4125
16940TIP3    H172235   2.247   1.772   4.587  0.9383  0.0456  1.0099
16940TIP3    H272236   2.189   1.851   4.702 -0.5741  0.6925 -0.1841
16941TIP3   OH272237   1.921   1.721   4.513  0.3237  0.3912 -0.0636
16941TIP3    H172238   1.935   1.627   4.509  1.0506  0.5133 -0.5403
16941TIP3    H272239   2.009   1.758   4.517  0.0103  0.9912  1.7600
16942TIP3   OH272240   6.850   6.010   4.837  0.0319 -0.0257 -0.3170
16942TIP3    H172241   6.819   6.097   4.862 -1.8853 -0.2996 -1.6721
16942TIP3    H272242   6.938   6.004   4.876 -0.3164  2.0060  0.8547
16943TIP3   OH272243   0.519   4.174   3.841  0.4316 -0.1891 -0.0616
16943TIP3    H172244   0.537   4.104   3.904 -1.3008 -1.1305 -0.5810
16943TIP3    H272245   0.441   4.144   3.794 -0.8749  2.5178  0.3252
16944TIP3   OH272246   2.619   2.652   3.244  0.3646  1.0442  0.4245
16944TIP3    H172247   2.704   2.691   3.227 -0.6087  2.0069 -2.4106
16944TIP3    H272248   2.639   2.564   3.275  2.3611  0.6529 -1.8383
16945TIP3   OH272249   5.148   1.587   4.679 -0.1400 -0.1906 -0.2127
16945TIP3    H172250   5.104   1.642   4.744  0.4719 -0.5031  0.4869
16945TIP3    H272251   5.154   1.641   4.601  0.8558  0.9162  0.6030
16946TIP3   OH272252   0.533   3.580   3.611  0.1224 -0.2489 -0.6487
16946TIP3    H172253   0.481   3.536   3.544 -0.0315 -0.7783 -0.1827
16946TIP3    H272254   0.575   3.508   3.659 -1.3963  0.0336  1.1516
16947TIP3   OH272255   2.285   1.162   5.758 -0.3409  0.1844 -0.1148
16947TIP3    H172256   2.380   1.176   5.757  0.1272 -2.6642 -0.3884
16947TIP3    H272257   2.272   1.096   5.826 -2.1503  0.5929 -0.0489
16948TIP3   OH272258   6.545   3.400   1.488  0.3616  0.1380 -0.3685
16948TIP3    H172259   6.630   3.358   1.505  0.3577  0.9270  1.7281
16948TIP3    H272260   6.521   3.439   1.572 -1.8230  0.3978 -1.0990
16949TIP3   OH272261   4.595   6.614   4.944 -0.1856 -0.1065 -0.0890
16949TIP3    H172262   4.565   6.577   5.027 -0.0288 -0.9003 -0.3836
16949TIP3    H272263   4.554   6.701   4.940 -1.4242 -0.6666  0.1102
16950TIP3   OH272264   5.608   0.997   3.591  0.1719 -0.1742  0.5448
16950TIP3    H172265   5.625   0.903   3.583 -1.4607 -0.3989 -0.5039
16950TIP3    H272266   5.661   1.024   3.666  0.6673 -1.9214  0.8621
16951TIP3   OH272267   6.787   0.430   5.130  0.3777 -0.3624 -0.4648
16951TIP3    H172268   6.749   0.344   5.149  0.3520 -0.1562  0.4419
16951TIP3    H272269   6.773   0.481   5.210  1.4984  0.0934 -0.5397
16952TIP3   OH272270   4.260   0.364   2.398  0.6341  0.0779 -0.3256
16952TIP3    H172271   4.269   0.449   2.442 -0.1552 -1.0278  2.0380
16952TIP3    H272272   4.283   0.382   2.307  1.5125  2.6119  0.3505
16953TIP3   OH272273   3.533   2.138   3.388  0.5482  0.4423 -0.0961
16953TIP3    H172274   3.593   2.088   3.334  0.0914  1.0397 -1.1835
16953TIP3    H272275   3.527   2.089   3.469  0.9330 -0.6941 -0.7407
16954TIP3   OH272276   3.123   0.799   3.511  0.2542  0.0881  0.2922
16954TIP3    H172277   3.168   0.722   3.476  0.2387  0.0703  0.3111
16954TIP3    H272278   3.046   0.808   3.455  0.7357  0.6381 -0.2967
16955TIP3   OH272279   3.912   1.344   3.907 -0.6978 -0.3233 -0.4687
16955TIP3    H172280   3.980   1.277   3.900 -0.8251 -0.2117 -3.3289
16955TIP3    H272281   3.836   1.307   3.861 -1.2497  1.1638 -0.8037
16956TIP3   OH272282   2.773   0.070   4.307 -0.1916  0.6299 -0.5400
16956TIP3    H172283   2.680   0.084   4.327  0.2640  1.3258  1.2148
16956TIP3    H272284   2.809   0.158   4.296  0.6711  0.4699  0.8354
16957TIP3   OH272285   2.812   4.666   5.669 -0.3519  0.4575  0.1409
16957TIP3    H172286   2.898   4.703   5.689 -0.3475  1.5422 -1.7137
16957TIP3    H272287   2.752   4.715   5.725  0.1366  0.1996  0.9090
16958TIP3   OH272288   3.996   2.824   4.957 -0.6044 -0.0036 -0.3984
16958TIP3    H172289   3.953   2.890   4.903 -1.6789 -0.4675 -0.1296
16958TIP3    H272290   3.936   2.749   4.955  0.2895 -0.7363 -0.1757
16959TIP3   OH272291   5.610   3.885   5.331  0.0229 -0.0596 -0.8175
16959TIP3    H172292   5.665   3.832   5.390 -1.9977 -2.7664 -1.2803
16959TIP3    H272293   5.523   3.881   5.370 -0.5628  1.2335 -1.9885
16960TIP3   OH272294   1.771   1.039   2.519  0.0148 -0.1854  0.3761
16960TIP3    H172295   1.788   0.963   2.464 -1.1006 -0.1061 -0.0904
16960TIP3    H272296   1.803   1.014   2.605  1.1411 -0.5683 -0.1420
16961TIP3   OH272297   3.646   1.767   4.457 -0.5217 -0.1117 -0.6429
16961TIP3    H172298   3.586   1.835   4.486 -1.1917 -0.6367 -0.7731
16961TIP3    H272299   3.724   1.778   4.512 -0.2935  1.2745 -1.2321
16962TIP3   OH272300   2.472   3.657   4.556 -0.5675 -0.2602 -0.5421
16962TIP3    H172301   2.443   3.606   4.481  1.7540  1.4081 -2.6784
16962TIP3    H272302   2.408   3.728   4.563 -1.5496 -1.1828 -0.0620
16963TIP3   OH272303   0.965   4.700   3.653  0.0639 -0.2650 -0.0466
16963TIP3    H172304   0.873   4.704   3.626 -0.0293 -1.2280  0.1112
16963TIP3    H272305   1.000   4.624   3.606  1.2651  1.1872 -1.5753
16964TIP3   OH272306   3.244   1.710   6.008 -0.0698  0.5467 -0.0298
16964TIP3    H172307   3.254   1.660   5.927  2.6585  1.1258 -0.0963
16964TIP3    H272308   3.324   1.763   6.014 -0.6059  1.1348  2.6043
16965TIP3   OH272309   2.331   5.959   4.844  0.1434 -0.5534 -0.2154
16965TIP3    H172310   2.346   5.974   4.938 -0.5271 -3.8899  0.4785
16965TIP3    H272311   2.418   5.948   4.807  0.3805  0.2119  0.0992
16966TIP3   OH272312   0.273   2.528   4.445  0.0345  0.3466  0.4814
16966TIP3    H172313   0.229   2.443   4.437  0.6355  0.1026 -0.2267
16966TIP3    H272314   0.228   2.571   4.518 -1.2075 -0.0180 -0.0492
16967TIP3   OH272315   1.701   6.958   3.796  0.6599  0.2905  0.3752
16967TIP3    H172316   1.676   7.022   3.729 -1.3276  1.0597  1.8046
16967TIP3    H272317   1.742   7.009   3.865 -0.2280 -0.0515  1.1739
16968TIP3   OH272318   0.097   1.270   4.574  0.3157  0.0673 -0.1363
16968TIP3    H172319   0.071   1.283   4.665  1.8479  0.9127  0.2120
16968TIP3    H272320   0.164   1.201   4.578 -1.6354 -1.9130 -0.9769
16969TIP3   OH272321   3.538   3.254   4.397 -0.6429 -0.4257 -0.3769
16969TIP3    H172322   3.608   3.316   4.377 -0.0240 -1.2204 -0.6845
16969TIP3    H272323   3.474   3.267   4.328  0.1156 -1.0772 -1.2220
16970TIP3   OH272324   1.344   1.449   5.779 -0.5762  0.0880 -0.1751
16970TIP3    H172325   1.274   1.427   5.717  0.4248 -1.9837 -0.6255
16970TIP3    H272326   1.412   1.490   5.726 -0.2455 -0.5571 -0.2654
16971TIP3   OH272327   2.972   2.467   5.874 -0.6456  0.2252  0.0349
16971TIP3    H172328   2.965   2.531   5.802  0.6779 -1.1506 -1.3410
16971TIP3    H272329   2.881   2.443   5.893 -1.0344  0.9642 -0.8291
16972TIP3   OH272330   3.274   1.717   5.723  0.5542  0.1084 -0.0510
16972TIP3    H172331   3.246   1.760   5.642 -0.2739  0.0039  0.1740
16972TIP3    H272332   3.354   1.764   5.749 -2.1239  3.8043  2.0130
16973TIP3   OH272333   6.646   0.766   4.422 -0.0242 -1.2622  0.5032
16973TIP3    H172334   6.723   0.821   4.431 -1.1724  0.2023  1.6926
16973TIP3    H272335   6.648   0.735   4.331  0.1746  1.4811 -0.4614
16974TIP3   OH272336   3.410   4.107   4.520  0.2914  0.4860 -0.0230
16974TIP3    H172337   3.359   4.127   4.599  0.0350 -0.4076  0.0447
16974TIP3    H272338   3.501   4.120   4.546  0.4149 -2.5276  1.2856
16975TIP3   OH272339   1.992   0.267   2.717 -0.0585  0.1802 -0.0027
16975TIP3    H172340   1.949   0.186   2.745 -0.7017  0.2531 -0.7716
16975TIP3    H272341   1.948   0.336   2.768 -0.3706  0.1821 -0.2782
16976TIP3   OH272342   5.975   0.590   3.490  0.1846  0.6590 -0.1268
16976TIP3    H172343   5.950   0.599   3.398 -0.9077  0.9898  0.2026
16976TIP3    H272344   5.903   0.629   3.539  0.6126  0.1995  0.8883
16977TIP3   OH272345   3.091   2.666   4.481 -0.5275  0.0492 -0.0885
16977TIP3    H172346   3.099   2.611   4.559 -1.0487  1.3699  0.8991
16977TIP3    H272347   3.037   2.614   4.421 -0.0879 -0.9889  0.4096
16978TIP3   OH272348   0.267   2.979   3.933  0.0960  0.2400  0.1579
16978TIP3    H172349   0.299   3.017   4.015  2.7446  1.5451 -1.4201
16978TIP3    H272350   0.322   2.901   3.920 -1.2253 -0.7201  0.3046
16979TIP3   OH272351   5.112   0.183   2.739  0.2619 -0.2869  0.4675
16979TIP3    H172352   5.148   0.146   2.659  1.0398 -0.9042  1.0885
16979TIP3    H272353   5.063   0.261   2.710  2.9094  1.1544 -0.3341
16980TIP3   OH272354   3.225   6.948   5.809 -0.5160  0.1113 -0.4503
16980TIP3    H172355   3.299   6.887   5.804  0.1120  0.7099  1.1203
16980TIP3    H272356   3.151   6.895   5.838 -0.0803 -0.0132  0.4583
16981TIP3   OH272357   2.637   5.466   3.830  0.9058 -0.3711 -0.2056
16981TIP3    H172358   2.672   5.408   3.762  1.0846 -2.5540  1.6674
16981TIP3    H272359   2.564   5.416   3.868  0.4114  1.0671  0.7776
16982TIP3   OH272360   2.622   1.187   4.719  0.4969  0.5491 -0.0572
16982TIP3    H172361   2.594   1.230   4.639 -0.3094 -0.7356 -0.4749
16982TIP3    H272362   2.651   1.100   4.691  1.0259  0.3985  0.9258
16983TIP3   OH272363   3.689   1.048   2.253 -0.1379 -0.3579 -0.3860
16983TIP3    H172364   3.629   1.119   2.276 -0.4806 -1.2279  1.4916
16983TIP3    H272365   3.769   1.068   2.301  0.1798 -0.5694 -0.8326
16984TIP3   OH272366   3.329   0.497   4.413 -0.5304  0.1789  0.1420
16984TIP3    H172367   3.393   0.511   4.483  1.0166  0.8087 -1.3573
16984TIP3    H272368   3.308   0.585   4.381 -0.6921 -0.1363 -0.6355
16985TIP3   OH272369   6.234   1.595   2.618 -1.0695 -0.2589 -0.0273
16985TIP3    H172370   6.189   1.673   2.585  0.8507  0.1138 -1.8755
16985TIP3    H272371   6.220   1.597   2.713 -0.0069  3.0561  0.1285
16986TIP3   OH272372   2.742   6.789   5.703  0.2779 -0.1365 -0.1252
16986TIP3    H172373   2.677   6.855   5.728  0.9253 -0.0378  1.3268
16986TIP3    H272374   2.689   6.712   5.680 -0.3778 -0.0185  0.9294
16987TIP3   OH272375   3.308   6.197   5.617  0.1456  0.1307  0.4108
16987TIP3    H172376   3.213   6.200   5.629 -0.1454  0.6810 -1.7425
16987TIP3    H272377   3.339   6.280   5.650 -0.1640  0.0899  0.8128
16988TIP3   OH272378   1.778   6.007   4.305 -0.4053  0.1334 -0.0272
16988TIP3    H172379   1.719   5.939   4.271 -0.9698  0.5926  0.0359
16988TIP3    H272380   1.731   6.089   4.293 -0.4055  0.3629  1.4107
16989TIP3   OH272381   0.899   0.249   1.629 -0.0262  0.1417  0.8359
16989TIP3    H172382   0.843   0.230   1.554  0.0752  0.5429  0.6544
16989TIP3    H272383   0.848   0.223   1.705  0.1859 -1.0112  0.5894
16990TIP3   OH272384   5.018   4.026   4.514 -0.5069 -0.0653 -0.5879
16990TIP3    H172385   5.056   4.113   4.510 -2.6085  1.0660  2.0973
16990TIP3    H272386   5.007   4.000   4.423  1.9146  1.6684 -1.4060
16991TIP3   OH272387   2.299   3.222   1.762  0.3835 -0.3124 -0.0861
16991TIP3    H172388   2.208   3.242   1.740  0.6540 -1.1522 -2.0897
16991TIP3    H272389   2.307   3.128   1.746  1.6700 -0.1932 -0.1856
16992TIP3   OH272390   2.742   2.428   4.842 -0.5373  0.4304  0.2225
16992TIP3    H172391   2.660   2.408   4.888 -0.4586  0.2711  0.2929
16992TIP3    H272392   2.778   2.504   4.889 -0.2971  0.0701  0.6199
16993TIP3   OH272393   1.764   0.684   3.073 -0.4870 -0.1697  0.1750
16993TIP3    H172394   1.695   0.750   3.084 -1.1138 -0.6701 -0.6910
16993TIP3    H272395   1.742   0.615   3.135 -0.0811  0.2257  0.7634
16994TIP3   OH272396   4.704   3.161   4.712  0.0159  0.0365 -0.1444
16994TIP3    H172397   4.758   3.085   4.734 -1.5886 -0.6484  1.5376
16994TIP3    H272398   4.711   3.218   4.788 -0.4539  0.6394 -0.5503
16995TIP3   OH272399   1.797   0.358   3.147 -0.4257  0.3905 -0.3116
16995TIP3    H172400   1.892   0.361   3.146 -0.3914 -0.4851 -0.0542
16995TIP3    H272401   1.772   0.430   3.206 -0.0299  2.1024 -2.1523
16996TIP3   OH272402   1.349   6.304   3.703  0.0222  0.1214 -0.1103
16996TIP3    H172403   1.260   6.322   3.675  0.7410  2.6927 -0.8916
16996TIP3    H272404   1.352   6.336   3.794 -0.6034 -2.5797  0.9063
16997TIP3   OH272405   3.153   2.865   3.815  0.2253  0.7639  0.6117
16997TIP3    H172406   3.076   2.819   3.782 -1.9342  4.4935  0.2093
16997TIP3    H272407   3.208   2.876   3.738  0.7705 -1.0468  0.7089
16998TIP3   OH272408   1.528   1.986   4.476 -0.3863  0.1436  0.1253
16998TIP3    H172409   1.440   1.982   4.437 -0.2332  0.9870 -0.3295
16998TIP3    H272410   1.559   2.074   4.454  0.0071  0.3647  1.5155
16999TIP3   OH272411   6.066   1.592   5.395 -0.6897 -0.2271 -0.7966
16999TIP3    H172412   6.110   1.671   5.425 -1.5055 -0.6118  1.5347
16999TIP3    H272413   6.104   1.522   5.448 -0.9602 -1.2059 -1.8715
17000TIP3   OH272414   3.829   6.587   3.408  0.4423 -0.2432 -0.1971
17000TIP3    H172415   3.759   6.563   3.470 -1.7065  1.0350 -2.0488
17000TIP3    H272416   3.874   6.660   3.451  0.3709 -0.7857  0.8214
17001TIP3   OH272417   0.237   3.253   5.235 -0.0459  0.1271 -0.1361
17001TIP3    H172418   0.329   3.235   5.217 -0.0938 -0.4218  0.1549
17001TIP3    H272419   0.236   3.281   5.326  0.0823  2.0478 -0.7063
17002TIP3   OH272420   2.439   6.503   5.591  0.3228  0.0598  0.3820
17002TIP3    H172421   2.392   6.568   5.642  1.5249  0.0499  1.5578
17002TIP3    H272422   2.528   6.537   5.584  0.4440 -0.4619 -0.7936
17003TIP3   OH272423   4.411   6.574   4.229 -0.0194  1.2640  0.7787
17003TIP3    H172424   4.341   6.639   4.241 -0.2250  0.9367  1.3565
17003TIP3    H272425   4.484   6.608   4.279 -0.4229  0.5969  1.8213
17004TIP3   OH272426   3.746   2.379   2.693 -0.6370  0.2435 -0.7771
17004TIP3    H172427   3.810   2.335   2.750  1.3476  0.0618 -3.0596
17004TIP3    H272428   3.784   2.466   2.678 -0.0646 -0.4010 -3.4105
17005TIP3   OH272429   6.797   5.737   5.052 -0.0080  0.3285  0.0399
17005TIP3    H172430   6.813   5.776   5.138  0.6980 -0.4838  0.2843
17005TIP3    H272431   6.748   5.804   5.004 -0.1300  0.9121  0.9643
17006TIP3   OH272432   4.048   2.277   1.895  0.3739 -0.0016  0.4050
17006TIP3    H172433   3.965   2.265   1.849 -0.2276  1.2884  1.1295
17006TIP3    H272434   4.059   2.198   1.947 -0.9720  0.3167  1.1790
17007TIP3   OH272435   4.327   5.010   3.915 -0.4878  0.3535  0.2579
17007TIP3    H172436   4.291   5.019   4.003 -1.1887 -1.3597  0.1635
17007TIP3    H272437   4.421   5.001   3.929 -0.4039  1.8259  0.7068
17008TIP3   OH272438   3.088   2.102   4.600 -0.2895 -0.0917  1.1136
17008TIP3    H172439   3.139   2.173   4.640 -0.6730  1.6391 -1.3819
17008TIP3    H272440   2.997   2.129   4.610 -0.3389  1.3388 -2.5648
17009TIP3   OH272441   3.485   0.004   5.602 -0.8760  0.2099  0.2146
17009TIP3    H172442   3.462   0.085   5.558 -0.0070 -0.0275 -0.6937
17009TIP3    H272443   3.405  -0.023   5.647 -1.3120  1.2840  0.0757
17010TIP3   OH272444   5.681   5.379   3.602 -0.0738  0.1145  0.5152
17010TIP3    H172445   5.681   5.321   3.678 -0.7811  0.2144  0.5975
17010TIP3    H272446   5.608   5.439   3.618  0.7247  1.1210  0.5010
17011TIP3   OH272447   1.677   0.639   2.075 -0.5168  0.0896  0.0238
17011TIP3    H172448   1.619   0.692   2.130 -0.2910  1.0512 -0.6439
17011TIP3    H272449   1.733   0.593   2.137 -1.9048 -0.7451  0.6688
17012TIP3   OH272450   1.350   5.530   2.338 -0.4643  0.0523  0.2182
17012TIP3    H172451   1.333   5.537   2.432 -0.0486 -3.6465  0.6175
17012TIP3    H272452   1.308   5.448   2.312  3.0302 -1.1502 -1.9554
17013TIP3   OH272453   3.424   1.018   4.947  0.6452 -0.2037 -0.0893
17013TIP3    H172454   3.328   1.012   4.938  0.5875 -0.2606  0.5475
17013TIP3    H272455   3.443   1.111   4.936  0.3667  0.0091  1.1248
17014TIP3   OH272456   4.402   2.267   0.538  0.1002 -0.4062  0.7243
17014TIP3    H172457   4.372   2.180   0.564  0.9957 -0.8163  0.4187
17014TIP3    H272458   4.497   2.264   0.549  0.2950  0.0690 -0.6447
17015TIP3   OH272459   1.910   6.893   4.033 -0.0996 -0.1970  0.1087
17015TIP3    H172460   1.826   6.918   4.072 -0.0061 -1.2772  1.0398
17015TIP3    H272461   1.974   6.914   4.100  0.2627 -0.3525 -0.1869
17016TIP3   OH272462   3.294   2.840   3.569 -0.1245  0.1339 -0.6943
17016TIP3    H172463   3.257   2.755   3.545  1.4877 -1.6759  2.8439
17016TIP3    H272464   3.389   2.830   3.557  0.0115  1.7892 -1.2071
17017TIP3   OH272465   5.585   1.770   3.752 -0.2066 -0.1651  0.5626
17017TIP3    H172466   5.540   1.803   3.830  1.8246  1.5051  1.0927
17017TIP3    H272467   5.643   1.701   3.784  0.9093  0.7801  0.6211
17018TIP3   OH272468   0.791   3.188   3.048  0.5961 -0.2287  0.4457
17018TIP3    H172469   0.697   3.180   3.031  0.3155  0.7898  1.4555
17018TIP3    H272470   0.810   3.280   3.028  1.1296 -0.1202  1.4640
17019TIP3   OH272471   5.819   1.415   4.521 -0.2448 -0.2104  0.3851
17019TIP3    H172472   5.758   1.345   4.543 -1.5864  0.4639 -1.1284
17019TIP3    H272473   5.777   1.495   4.553  1.0414 -0.0066  1.6335
17020TIP3   OH272474   6.164   3.083   4.820 -0.5281  0.0024  0.3291
17020TIP3    H172475   6.235   3.110   4.878 -0.6722  0.3933  0.3250
17020TIP3    H272476   6.181   2.991   4.802 -0.0549  0.0817  0.3770
17021TIP3   OH272477   1.976   0.657   4.594  0.3152  0.2810  0.1292
17021TIP3    H172478   1.892   0.664   4.547  2.1180  0.5278 -3.2135
17021TIP3    H272479   1.958   0.695   4.680 -3.2359 -0.5018 -0.1965
17022TIP3   OH272480   1.032   0.779   2.714  0.1829 -0.2087  0.8115
17022TIP3    H172481   1.089   0.827   2.775 -0.1450  1.2926 -0.0488
17022TIP3    H272482   1.007   0.844   2.648 -1.8739 -1.0673  0.7213
17023TIP3   OH272483   6.600   3.662   3.666  0.2726 -0.3010  0.5856
17023TIP3    H172484   6.653   3.669   3.745 -0.3775 -1.6612  1.1523
17023TIP3    H272485   6.625   3.579   3.627 -0.5420 -0.3765  0.2007
17024TIP3   OH272486   6.617   4.658   3.500 -0.6802  0.2274 -0.0896
17024TIP3    H172487   6.542   4.603   3.523 -1.8131  1.4584 -0.7651
17024TIP3    H272488   6.659   4.678   3.584 -1.6941  0.3410  0.3998
17025TIP3   OH272489   2.850   0.592   4.775 -0.2228 -0.3695  0.1825
17025TIP3    H172490   2.816   0.551   4.696 -0.1375 -0.4971  0.2128
17025TIP3    H272491   2.778   0.646   4.807 -0.2035 -0.1930 -0.0720
17026TIP3   OH272492   4.557   2.215   3.833  0.0121  0.0299 -0.0141
17026TIP3    H172493   4.553   2.131   3.786  1.0415  0.8343 -1.5851
17026TIP3    H272494   4.492   2.270   3.790  0.1379  0.4023  0.2710
17027TIP3   OH272495   5.447   0.312   5.263 -0.5606  0.0704  0.1533
17027TIP3    H172496   5.360   0.350   5.248 -0.4743  0.0517 -0.4228
17027TIP3    H272497   5.433   0.217   5.257 -1.0529 -0.0933  3.0734
17028TIP3   OH272498   2.846   5.796   5.435  0.0972  0.2530  0.1050
17028TIP3    H172499   2.920   5.847   5.402 -1.8698  2.6169 -0.8276
17028TIP3    H272500   2.783   5.862   5.463 -1.7268 -1.7184  0.7135
17029TIP3   OH272501   2.829   6.807   4.122  0.3204 -0.2395  0.2071
17029TIP3    H172502   2.740   6.837   4.139 -0.0364 -1.0178 -0.2439
17029TIP3    H272503   2.845   6.739   4.187  0.2716 -0.6930 -0.2499
17030TIP3   OH272504   5.062   5.820   5.892 -0.0824  0.1555 -0.1251
17030TIP3    H172505   5.055   5.757   5.964 -0.5993  1.0994  0.6652
17030TIP3    H272506   5.075   5.904   5.936 -0.5150  0.7565 -1.1416
17031TIP3   OH272507   4.256   0.105   4.731 -0.5021 -0.1571  0.7412
17031TIP3    H172508   4.198   0.043   4.688 -0.5182 -1.0731  2.0728
17031TIP3    H272509   4.198   0.162   4.781 -0.4935  1.0084 -0.5271
17032TIP3   OH272510   0.612   4.624   0.678 -1.1646 -0.2600 -0.1820
17032TIP3    H172511   0.690   4.679   0.685 -1.2514 -0.2237  0.5383
17032TIP3    H272512   0.571   4.651   0.595 -0.5279 -0.1351 -0.4567
17033TIP3   OH272513   3.840   4.709   0.404 -0.4233 -0.2016  0.1052
17033TIP3    H172514   3.898   4.706   0.328 -0.6806 -0.3301 -0.0887
17033TIP3    H272515   3.889   4.665   0.474 -1.0393 -2.0585 -0.5831
17034TIP3   OH272516   4.836   1.565   2.910  0.5432  0.1077 -0.1381
17034TIP3    H172517   4.834   1.469   2.903  1.0237  0.0698  0.2245
17034TIP3    H272518   4.794   1.584   2.994 -1.2018  0.3169 -1.0535
17035TIP3   OH272519   3.963   6.143   2.783 -0.7013  0.5396  0.1216
17035TIP3    H172520   3.936   6.133   2.874 -2.5436  1.8003 -0.2575
17035TIP3    H272521   3.994   6.233   2.778 -1.8489  0.8960 -0.7844
17036TIP3   OH272522   2.959   0.083   5.055  0.0170  0.0462  0.2356
17036TIP3    H172523   2.990   0.171   5.032 -0.6927  0.1248 -0.4189
17036TIP3    H272524   2.953   0.084   5.151 -0.0188  0.7177  0.2283
17037TIP3   OH272525   2.008   4.643   3.780 -0.0559  0.6201 -0.4089
17037TIP3    H172526   1.948   4.569   3.787  0.9096 -0.1288  0.0229
17037TIP3    H272527   2.068   4.634   3.854  0.2110  1.7167 -0.4690
17038TIP3   OH272528   5.709   4.609   3.782  0.2331  0.4652 -0.2717
17038TIP3    H172529   5.699   4.514   3.789  1.0532  0.3250 -0.8427
17038TIP3    H272530   5.659   4.632   3.703  0.4547  0.4321 -0.4228
17039TIP3   OH272531   3.223   6.219   0.804  0.2426 -0.3055  0.1443
17039TIP3    H172532   3.238   6.180   0.890 -0.0956 -0.8029 -0.0184
17039TIP3    H272533   3.308   6.256   0.779  1.0100 -2.3954 -0.4235
17040TIP3   OH272534   5.306   2.782   5.604 -0.5095 -0.4148 -0.4866
17040TIP3    H172535   5.261   2.704   5.635  1.0852 -0.6465  1.2899
17040TIP3    H272536   5.398   2.766   5.622  0.0125  1.2030 -1.5878
17041TIP3   OH272537   0.198   2.495   0.024  0.2452  0.5902  0.1791
17041TIP3    H172538   0.205   2.401   0.006  3.3056  0.9645 -0.9016
17041TIP3    H272539   0.181   2.535  -0.061 -0.1689  1.0978  0.4956
17042TIP3   OH272540   5.305   0.744   2.175 -0.4146 -0.0504 -0.0865
17042TIP3    H172541   5.213   0.748   2.201 -0.4854  1.8250 -0.5116
17042TIP3    H272542   5.318   0.824   2.124  1.3216 -0.5733 -0.4810
17043TIP3   OH272543   0.898   5.947   3.199 -0.4208 -0.2731  0.4181
17043TIP3    H172544   0.991   5.933   3.217 -0.2329  0.8702  0.3829
17043TIP3    H272545   0.854   5.926   3.281 -0.2350 -1.8368  0.1269
17044TIP3   OH272546   1.350   6.380   5.709 -0.0556 -0.0731 -0.6087
17044TIP3    H172547   1.405   6.341   5.777  0.1426  2.5177  0.7766
17044TIP3    H272548   1.271   6.408   5.755 -1.8007 -2.1537 -2.2560
17045TIP3   OH272549   0.051   6.450   5.086 -0.0505  0.3123 -0.0404
17045TIP3    H172550   0.075   6.361   5.060 -1.7318  0.1615 -1.1508
17045TIP3    H272551   0.080   6.504   5.012 -0.4182  0.4898 -0.0537
17046TIP3   OH272552   5.034   4.955   4.216  0.2318  0.2827 -0.0045
17046TIP3    H172553   5.091   5.029   4.233  0.2582  0.9341 -2.6558
17046TIP3    H272554   5.087   4.878   4.237  1.0038  0.9565  0.5317
17047TIP3   OH272555   6.300   6.528   2.198 -0.3524 -0.3612  0.5316
17047TIP3    H172556   6.373   6.513   2.258  0.0623  0.6727  0.2890
17047TIP3    H272557   6.231   6.468   2.229  0.8987 -1.9986  0.2142
17048TIP3   OH272558   3.697   1.456   2.822  0.3354 -0.1078 -0.3912
17048TIP3    H172559   3.605   1.456   2.795 -0.6436 -0.5126  2.7496
17048TIP3    H272560   3.741   1.400   2.758 -1.7262 -0.5395 -1.4815
17049TIP3   OH272561   4.898   5.470   4.718 -0.2978 -0.2151  0.3209
17049TIP3    H172562   4.940   5.394   4.676 -0.4376 -0.3049  0.3425
17049TIP3    H272563   4.805   5.456   4.705 -0.2673  0.6398 -0.8607
17050TIP3   OH272564   5.296   3.031   2.100 -0.6201 -0.5663  0.2894
17050TIP3    H172565   5.348   3.083   2.161  0.9025 -0.0000 -1.4434
17050TIP3    H272566   5.226   3.090   2.071 -0.6667 -0.4692  0.6045
17051TIP3   OH272567   2.701   0.689   4.522 -0.0030  0.4046 -0.3311
17051TIP3    H172568   2.613   0.652   4.516  0.6018 -1.1094 -0.0049
17051TIP3    H272569   2.746   0.656   4.444  0.1911  1.4304 -0.6621
17052TIP3   OH272570   5.041   5.869   3.541  0.2405  0.0882 -0.2895
17052TIP3    H172571   5.006   5.883   3.629 -0.5234 -0.9058 -0.4216
17052TIP3    H272572   4.965   5.842   3.489  1.2056 -2.1975 -0.5627
17053TIP3   OH272573   1.665   3.785   2.626  0.4866 -0.5606 -0.4663
17053TIP3    H172574   1.603   3.732   2.676  0.6799 -0.6237 -0.2917
17053TIP3    H272575   1.750   3.743   2.641  0.5247 -0.6677 -0.9652
17054TIP3   OH272576   4.686   1.046   5.104 -0.0178 -0.1276 -0.0107
17054TIP3    H172577   4.592   1.034   5.094 -0.1741 -0.4750  1.6585
17054TIP3    H272578   4.710   0.989   5.177  1.7489 -1.1775 -1.3692
17055TIP3   OH272579   1.775   5.978   3.935  0.1808  0.2161  0.4169
17055TIP3    H172580   1.828   5.899   3.943 -0.3663 -0.0717  1.2342
17055TIP3    H272581   1.695   5.948   3.891  0.7239  0.6625 -0.8814
17056TIP3   OH272582   4.333   0.624   3.795  0.0778 -0.0395  0.3590
17056TIP3    H172583   4.342   0.553   3.858 -0.4653 -0.6268 -0.2184
17056TIP3    H272584   4.295   0.696   3.846 -0.4371 -0.5364  0.6815
17057TIP3   OH272585   0.158   1.572   4.094 -0.1096  0.4480 -0.1600
17057TIP3    H172586   0.204   1.510   4.151 -0.7939 -0.3308 -0.4528
17057TIP3    H272587   0.200   1.656   4.113  0.7642 -0.0773  0.3073
17058TIP3   OH272588   6.982   0.860   2.176 -0.1150  0.1569 -0.2454
17058TIP3    H172589   6.962   0.784   2.232 -0.5632  0.1056 -0.4693
17058TIP3    H272590   7.064   0.838   2.134 -0.9166 -0.7912 -1.3370
17059TIP3   OH272591   4.275   5.114   5.614  1.0518 -0.0894  0.7220
17059TIP3    H172592   4.238   5.041   5.663  1.2537 -0.1911  0.7207
17059TIP3    H272593   4.301   5.076   5.530 -0.2586  0.2941  0.1274
17060TIP3   OH272594   5.823   4.748   1.863  0.1632 -0.1620 -0.5742
17060TIP3    H172595   5.793   4.780   1.949  1.2168 -0.9542  0.1031
17060TIP3    H272596   5.843   4.655   1.878  0.2966 -0.3197 -1.7015
17061TIP3   OH272597   1.961   4.773   5.210  0.3222  0.1728  0.1731
17061TIP3    H172598   2.048   4.814   5.212 -0.8152  2.6305  2.0716
17061TIP3    H272599   1.900   4.847   5.216 -1.9274 -1.4889 -1.4405
17062TIP3   OH272600   2.041   2.187   4.163 -0.3027  0.0115  0.2418
17062TIP3    H172601   2.078   2.109   4.121  0.9471  0.4829  0.4488
17062TIP3    H272602   1.981   2.152   4.229 -1.0046 -0.7494 -0.7731
17063TIP3   OH272603   3.139   2.990   2.770 -0.3866 -0.3045  0.0815
17063TIP3    H172604   3.181   2.907   2.795  2.1618  1.3943  1.6588
17063TIP3    H272605   3.205   3.036   2.719 -0.9487  1.6774  1.0947
17064TIP3   OH272606   3.465   0.433   5.014  0.2886  0.7303  0.2760
17064TIP3    H172607   3.379   0.475   5.005 -0.7872 -1.7312 -1.9998
17064TIP3    H272608   3.521   0.478   4.951 -0.7813 -0.8991 -1.9429
17065TIP3   OH272609   3.492   5.506   4.227 -0.1863 -0.0006 -0.1334
17065TIP3    H172610   3.432   5.569   4.187 -0.6089 -0.8648 -0.8947
17065TIP3    H272611   3.579   5.534   4.197 -0.3794  0.1682 -0.5369
17066TIP3   OH272612   4.167   5.445   5.286 -0.1814 -0.5037  0.2286
17066TIP3    H172613   4.096   5.506   5.266  0.1279 -0.4438 -0.7195
17066TIP3    H272614   4.124   5.368   5.322 -0.6366 -0.0341  0.7023
17067TIP3   OH272615   3.815   3.108   3.575 -0.0816  0.1685 -0.3603
17067TIP3    H172616   3.756   3.151   3.637 -0.7396 -0.4767 -0.5239
17067TIP3    H272617   3.762   3.097   3.496 -0.7774 -3.2419  0.5143
17068TIP3   OH272618   5.411   0.682   5.234 -1.2127 -0.0338 -0.5003
17068TIP3    H172619   5.506   0.685   5.247 -1.5646 -0.0426  2.3606
17068TIP3    H272620   5.401   0.660   5.141  1.5754 -1.7966 -0.4534
17069TIP3   OH272621   5.765   4.405   5.822 -0.3586  0.2165 -0.1824
17069TIP3    H172622   5.711   4.460   5.879  1.7174  1.4246  0.6526
17069TIP3    H272623   5.766   4.320   5.865  0.5040  0.8869  1.1541
17070TIP3   OH272624   3.962   1.558   4.439 -0.3698 -0.4502  0.0967
17070TIP3    H172625   3.929   1.582   4.352 -0.2600 -2.0663 -0.4030
17070TIP3    H272626   4.038   1.503   4.421 -1.1108 -1.8518  1.2063
17071TIP3   OH272627   5.984   1.837   2.308 -0.2325  0.3888  0.1333
17071TIP3    H172628   5.990   1.821   2.402 -0.2551  0.7056  0.1903
17071TIP3    H272629   6.064   1.799   2.272 -1.3452 -1.8460 -0.0282
17072TIP3   OH272630   4.683   0.272   4.906  0.3003 -0.2265  0.1448
17072TIP3    H172631   4.725   0.228   4.980  0.0417  0.0034  0.4313
17072TIP3    H272632   4.607   0.317   4.945  0.8513  0.8928 -0.0476
17073TIP3   OH272633   4.831   3.023   4.944  0.2070  0.9860  0.0640
17073TIP3    H172634   4.773   2.995   5.014  0.7524  2.9320  1.3208
17073TIP3    H272635   4.896   2.953   4.938 -3.1590 -2.0822 -2.5572
17074TIP3   OH272636   0.831   2.314   4.184  0.6835 -0.2804 -0.2358
17074TIP3    H172637   0.836   2.386   4.247 -1.0675  0.4589 -0.9151
17074TIP3    H272638   0.759   2.337   4.126  1.9349 -1.2013 -2.2197
17075TIP3   OH272639   1.091   2.307   4.844  0.3903 -0.7543  0.3510
17075TIP3    H172640   1.129   2.365   4.778  0.5451  0.0251  1.1095
17075TIP3    H272641   1.122   2.220   4.820 -0.0567 -0.5663 -0.9528
17076TIP3   OH272642   5.395   1.437   2.838  0.1389  0.2743  0.5288
17076TIP3    H172643   5.483   1.406   2.816  0.6020 -0.5702  3.3927
17076TIP3    H272644   5.337   1.372   2.798  0.8641 -0.2304  0.2791
17077TIP3   OH272645   0.427   0.450   4.340  0.0051  0.4225 -0.5890
17077TIP3    H172646   0.412   0.539   4.371 -0.7687  0.6891 -1.6956
17077TIP3    H272647   0.480   0.410   4.408 -0.8826  1.2689  0.6273
17078TIP3   OH272648   0.874   5.799   1.292  0.2261  0.5095  0.4435
17078TIP3    H172649   0.898   5.712   1.260 -1.7195 -0.7859  2.4065
17078TIP3    H272650   0.825   5.838   1.220  0.3652 -0.3503 -0.1290
17079TIP3   OH272651   6.884   7.042   4.160 -0.9328  0.0640 -0.6811
17079TIP3    H172652   6.962   7.075   4.206 -0.4960 -0.1048 -1.2972
17079TIP3    H272653   6.917   6.973   4.103 -1.6368 -0.4739 -0.4518
17080TIP3   OH272654   4.627   2.556   2.809 -0.7755 -0.0958 -0.2841
17080TIP3    H172655   4.664   2.501   2.878 -1.1053  0.7288  0.5579
17080TIP3    H272656   4.536   2.571   2.836 -0.7836  0.5810 -0.6792
17081TIP3   OH272657   5.469   6.373   4.094  0.0222 -0.0669  0.1388
17081TIP3    H172658   5.419   6.309   4.044 -1.6048  0.8333  0.5839
17081TIP3    H272659   5.508   6.323   4.165 -1.0066 -0.6184  0.3238
17082TIP3   OH272660   1.734   0.089   3.325 -0.4533 -0.0570 -0.5127
17082TIP3    H172661   1.714   0.147   3.399 -1.2011 -0.1854 -0.6147
17082TIP3    H272662   1.787   0.144   3.266  0.4136 -0.0490  0.2526
17083TIP3   OH272663   6.943   1.469   3.118  0.1082 -0.0455 -0.4072
17083TIP3    H172664   7.000   1.454   3.043  0.9087  1.0898 -0.0370
17083TIP3    H272665   6.863   1.506   3.081  0.4845  0.4684 -0.7126
17084TIP3   OH272666   5.330   6.904   5.072  0.0474  0.1993 -0.2162
17084TIP3    H172667   5.343   6.867   4.985  0.5545 -0.1684  0.0135
17084TIP3    H272668   5.248   6.953   5.065 -1.0282 -1.5626 -0.3316
17085TIP3   OH272669   2.789   5.242   5.121 -0.2937  0.1012 -0.5197
17085TIP3    H172670   2.724   5.246   5.191  0.4854  1.7732  0.1369
17085TIP3    H272671   2.860   5.300   5.151 -0.3722  1.5773 -3.1033
17086TIP3   OH272672   5.779   6.141   3.409 -0.2503 -0.0709 -0.4292
17086TIP3    H172673   5.693   6.119   3.373 -0.5471  0.5683 -0.1234
17086TIP3    H272674   5.764   6.154   3.503 -0.0254  1.0810 -0.5438
17087TIP3   OH272675   2.522   0.664   5.474 -0.0469 -0.6531 -0.6610
17087TIP3    H172676   2.440   0.671   5.522 -0.0302  0.4502 -0.7930
17087TIP3    H272677   2.551   0.574   5.490 -1.6616 -1.2914 -1.2492
17088TIP3   OH272678   4.927   5.906   0.847  0.4376 -0.4931  0.1957
17088TIP3    H172679   4.853   5.935   0.900  1.4364  0.8010  0.9289
17088TIP3    H272680   4.985   5.861   0.909 -0.3346 -2.6763 -0.6262
17089TIP3   OH272681   5.257   6.647   4.356  0.2143 -0.5025 -0.1409
17089TIP3    H172682   5.162   6.636   4.353 -0.3675  3.6201  1.1186
17089TIP3    H272683   5.284   6.596   4.433 -0.9941 -1.5097 -0.3732
17090TIP3   OH272684   4.184   3.508   4.860  0.3909 -0.3630  0.0624
17090TIP3    H172685   4.089   3.491   4.863  0.3936 -0.2539  0.8275
17090TIP3    H272686   4.215   3.487   4.948  1.1958 -1.0507 -0.3827
17091TIP3   OH272687   5.770   6.276   3.905  0.7166 -0.3029  0.0965
17091TIP3    H172688   5.850   6.308   3.947  0.2462 -1.3333  1.8729
17091TIP3    H272689   5.739   6.207   3.963 -0.9920 -0.5186 -1.0239
17092TIP3   OH272690   3.720   1.673   5.395 -0.1216  0.1872 -1.1118
17092TIP3    H172691   3.691   1.764   5.390  0.7785  0.5039 -0.5721
17092TIP3    H272692   3.811   1.675   5.365 -0.3412 -0.6562 -1.8548
17093TIP3   OH272693   4.012   4.991   3.552  0.2361  0.4001  0.2179
17093TIP3    H172694   4.009   4.979   3.647  0.3593 -0.6832  0.0931
17093TIP3    H272695   4.074   5.063   3.538 -1.0191  1.6723  1.0465
17094TIP3   OH272696   6.740   2.049   2.381 -0.1855  0.2587 -0.4835
17094TIP3    H172697   6.763   2.141   2.389 -1.7056  0.6209 -0.0192
17094TIP3    H272698   6.801   2.003   2.439  0.7604  0.9292 -0.9347
17095TIP3   OH272699   3.707   0.457   5.355  0.5193 -0.2542  0.0863
17095TIP3    H172700   3.799   0.483   5.355  0.1661  1.0464 -1.2193
17095TIP3    H272701   3.675   0.482   5.442  1.6227 -1.6232  0.9175
17096TIP3   OH272702   1.713   2.787   5.949  0.2723 -0.2880 -0.4792
17096TIP3    H172703   1.641   2.802   5.889  0.5491  0.1841 -0.6953
17096TIP3    H272704   1.685   2.713   6.002 -0.1432 -0.4432 -0.9171
17097TIP3   OH272705   1.211   1.647   4.480 -0.0867  0.1533  0.4329
17097TIP3    H172706   1.287   1.676   4.430 -0.1964  0.8298  0.6511
17097TIP3    H272707   1.247   1.585   4.543 -0.0712 -1.3304 -1.0089
17098TIP3   OH272708   6.033   1.374   4.708  0.4722 -0.9019 -0.1737
17098TIP3    H172709   6.107   1.396   4.652  1.3131 -4.0004 -0.3703
17098TIP3    H272710   5.957   1.372   4.649  0.6205 -0.0046 -0.3981
17099TIP3   OH272711   4.103   3.226   5.312 -0.1931  0.4005 -0.4562
17099TIP3    H172712   4.071   3.168   5.242 -2.1411  1.8736 -0.8178
17099TIP3    H272713   4.030   3.232   5.373  0.4758  1.4572  0.2441
17100TIP3   OH272714   6.495   0.473   4.589  0.4269  0.3508 -0.0409
17100TIP3    H172715   6.552   0.475   4.666 -1.3795 -0.3803  1.3559
17100TIP3    H272716   6.435   0.400   4.605  1.8433 -1.6650 -3.5115
17101TIP3   OH272717   6.578   6.576   4.202  0.3616 -0.4746  0.0887
17101TIP3    H172718   6.667   6.587   4.234 -0.1129 -1.3696  1.7662
17101TIP3    H272719   6.543   6.502   4.252 -1.4849  0.1939 -0.1691
17102TIP3   OH272720   3.819   0.274   4.566  0.0753  0.4119 -0.4377
17102TIP3    H172721   3.891   0.326   4.531  0.2979  0.4239  0.0285
17102TIP3    H272722   3.812   0.302   4.657  0.6862 -0.9186  0.0316
17103TIP3   OH272723   5.685   4.018   4.328  0.6165 -0.1854  0.2087
17103TIP3    H172724   5.757   4.072   4.294  0.0343  0.3075 -0.2402
17103TIP3    H272725   5.626   4.008   4.253 -0.2750  0.2454  0.8558
17104TIP3   OH272726   3.075   0.090   4.499  0.1040  0.1758 -0.8280
17104TIP3    H172727   3.039   0.178   4.487 -0.2296  0.1241 -0.2268
17104TIP3    H272728   3.024   0.053   4.571 -0.7372 -1.0477 -2.0342
17105TIP3   OH272729   3.618   2.427   4.565  0.1830  0.0520 -0.5231
17105TIP3    H172730   3.572   2.438   4.481 -1.0696  2.5302  0.4326
17105TIP3    H272731   3.561   2.470   4.629  1.5592 -1.0239  1.4662
17106TIP3   OH272732   2.192   1.172   4.852 -0.3164  0.5504  0.3218
17106TIP3    H172733   2.167   1.215   4.934 -0.2148  1.2393 -0.0062
17106TIP3    H272734   2.287   1.163   4.858 -0.2635  0.9401  0.1239
17107TIP3   OH272735   4.576   1.572   0.208  0.1097 -0.1801 -0.5569
17107TIP3    H172736   4.552   1.586   0.300  0.2131  1.4223 -0.7547
17107TIP3    H272737   4.614   1.656   0.181  1.1130 -1.0096 -1.7408
17108TIP3   OH272738   3.890   0.526   3.749 -0.5015 -0.6156 -0.0600
17108TIP3    H172739   3.963   0.535   3.688 -0.0073 -2.0800  0.2995
17108TIP3    H272740   3.888   0.610   3.796 -0.6626  0.3802 -1.8204
17109TIP3   OH272741   2.818   0.465   5.355 -0.4750  0.0662  0.8583
17109TIP3    H172742   2.742   0.456   5.297  0.3712 -0.5348 -0.1629
17109TIP3    H272743   2.814   0.389   5.412  1.7461 -2.2812 -2.0068
17110TIP3   OH272744   4.117   4.849   4.713  0.3066 -0.3175  0.1971
17110TIP3    H172745   4.084   4.760   4.713 -0.9884  0.1433 -0.9698
17110TIP3    H272746   4.054   4.898   4.660  0.3913  1.5094  1.7335
17111TIP3   OH272747   1.302   2.493   4.286 -0.1538 -0.2673 -0.2203
17111TIP3    H172748   1.373   2.495   4.349 -1.4302  1.0805  1.2163
17111TIP3    H272749   1.257   2.410   4.303 -0.5587  0.1395  0.7496
17112TIP3   OH272750   3.814   0.599   4.329 -0.5920 -0.4279  0.3695
17112TIP3    H172751   3.909   0.607   4.338 -0.5434  1.8273 -1.6444
17112TIP3    H272752   3.780   0.620   4.416  0.7356 -0.9187  1.0180
17113TIP3   OH272753   3.442   6.415   3.842 -0.3114  0.1313 -0.0390
17113TIP3    H172754   3.523   6.391   3.797 -0.4006 -0.4453  0.0999
17113TIP3    H272755   3.372   6.398   3.778 -0.5688 -2.0633  0.7728
17114TIP3   OH272756   1.010   2.427  15.526 -0.4705  0.1414 -0.7654
17114TIP3    H172757   1.092   2.447  15.571 -1.2814  0.1848  0.7349
17114TIP3    H272758   0.946   2.414  15.596 -1.3670 -1.6316 -1.8544
17115TIP3   OH272759   5.602   3.062   4.267 -0.7124 -0.2250  0.2208
17115TIP3    H172760   5.588   3.007   4.344 -0.7759  1.4957  1.4715
17115TIP3    H272761   5.617   3.149   4.303  0.6196  0.3549 -1.6613
17116TIP3   OH272762   1.481   4.681   4.408 -0.4297 -0.2668  0.1502
17116TIP3    H172763   1.447   4.653   4.493 -1.2529  0.1425 -0.0403
17116TIP3    H272764   1.486   4.600   4.357 -2.0851 -0.1897 -0.1496
17117TIP3   OH272765   6.474   5.603  13.805  0.3191 -0.1207  0.3685
17117TIP3    H172766   6.536   5.641  13.868 -0.1639 -1.1141  1.4684
17117TIP3    H272767   6.519   5.610  13.721  1.3597  0.4125  0.9491
17118TIP3   OH272768   6.426   0.721   4.042 -0.1158  0.0164 -0.0412
17118TIP3    H172769   6.345   0.671   4.056  0.1297 -0.9424 -1.8187
17118TIP3    H272770   6.401   0.812   4.054 -0.8592 -0.4390  2.0359
17119TIP3   OH272771   4.059   0.632   5.946 -0.2434  0.2221  0.1229
17119TIP3    H172772   4.026   0.690   5.877  0.9020  0.9240  0.1416
17119TIP3    H272773   3.995   0.561   5.951 -1.4305  1.2559 -0.2204
17120TIP3   OH272774   5.017   2.872   2.744  0.6106 -0.0330 -0.2596
17120TIP3    H172775   5.000   2.935   2.814 -0.2452 -0.1457 -0.3509
17120TIP3    H272776   4.930   2.838   2.722  0.7982  0.4127 -1.7434
17121TIP3   OH272777   6.044   2.532   1.122  0.1850 -0.8813 -0.5998
17121TIP3    H172778   6.062   2.446   1.159  0.3145 -0.3903  0.5097
17121TIP3    H272779   5.978   2.516   1.055  0.1241 -1.8238 -0.3237
17122TIP3   OH272780   6.101   0.232   2.256 -0.1375  0.1723  0.0246
17122TIP3    H172781   6.152   0.180   2.194 -0.7111  0.2086 -0.4853
17122TIP3    H272782   6.138   0.210   2.342  0.6452  0.1105 -0.3301
17123TIP3   OH272783   5.037   0.636   1.797  0.0948 -0.5747  0.3838
17123TIP3    H172784   5.033   0.542   1.818  0.6837 -0.8989 -0.8936
17123TIP3    H272785   5.125   0.662   1.824  0.8208 -0.9717 -1.5322
17124TIP3   OH272786   5.718   0.070   4.516 -0.5709  0.7229 -0.1665
17124TIP3    H172787   5.731   0.039   4.427 -1.0638  0.2111 -0.0660
17124TIP3    H272788   5.732  -0.008   4.571  0.0179  1.0984  0.2190
17125TIP3   OH272789   2.734   1.956   3.995 -0.0535  0.1938 -0.2425
17125TIP3    H172790   2.828   1.972   3.986  0.0749  0.1161  0.8469
17125TIP3    H272791   2.695   1.995   3.916  0.6421  2.5266  0.5265
17126TIP3   OH272792   3.276   0.538   0.397 -0.3108  0.3437  0.4944
17126TIP3    H172793   3.294   0.581   0.313  1.7875 -1.7473 -0.1701
17126TIP3    H272794   3.358   0.545   0.445 -1.1086  0.3607  1.8832
17127TIP3   OH272795   0.138   2.257   4.955 -0.0055  0.7622  0.0215
17127TIP3    H172796   0.046   2.232   4.952 -0.3229  1.6205  1.9901
17127TIP3    H272797   0.185   2.178   4.928 -1.3396  0.6146 -1.9748
17128TIP3   OH272798   4.377   2.025   2.932  0.2947 -0.6771  0.1122
17128TIP3    H172799   4.329   2.104   2.954  1.0137  0.0905 -1.0029
17128TIP3    H272800   4.348   1.960   2.996 -1.4475  0.0497  0.0753
17129TIP3   OH272801   6.692   3.917   2.674 -0.1634  0.6612 -0.4528
17129TIP3    H172802   6.686   3.987   2.608 -1.6358  1.6656  0.7215
17129TIP3    H272803   6.786   3.898   2.679  0.0671  1.2210 -2.1557
17130TIP3   OH272804   2.168   2.378   0.943  0.2424 -0.4107  0.2370
17130TIP3    H172805   2.195   2.300   0.991  1.6226  0.5633  1.0923
17130TIP3    H272806   2.224   2.379   0.866  0.8447  0.1946  0.6745
17131TIP3   OH272807   0.022   1.809   3.498  0.4699  0.0881  0.5715
17131TIP3    H172808  -0.020   1.724   3.484 -1.4677  0.9366  0.9488
17131TIP3    H272809  -0.039   1.872   3.458  1.1728  1.4049  1.5382
17132TIP3   OH272810   5.230   1.248   5.139  0.2543  0.3998  0.5553
17132TIP3    H172811   5.289   1.248   5.215 -0.3340 -4.1134  1.1371
17132TIP3    H272812   5.288   1.262   5.064  1.5005  0.2902  1.4845
17133TIP3   OH272813   6.251   1.440   4.537 -0.4036 -0.6853 -0.0124
17133TIP3    H172814   6.324   1.471   4.590 -0.1664 -0.3011 -0.5638
17133TIP3    H272815   6.284   1.440   4.447 -0.2628 -2.9099  0.0169
17134TIP3   OH272816   5.075   3.969   5.262 -0.0607  0.0899 -0.1690
17134TIP3    H172817   5.079   3.931   5.174  1.7650 -0.0874 -0.0229
17134TIP3    H272818   4.995   4.022   5.261 -0.5225 -0.6035 -1.6443
17135TIP3   OH272819   2.015   0.348   3.596 -0.1793 -0.1275  0.3341
17135TIP3    H172820   2.051   0.261   3.610 -0.8068 -0.7267 -1.5853
17135TIP3    H272821   2.022   0.391   3.681  1.6037 -1.4913  0.9196
17136TIP3   OH272822   2.764   1.734   5.413  0.5113  0.3584  0.2435
17136TIP3    H172823   2.692   1.687   5.455  0.6709 -0.1663 -0.0647
17136TIP3    H272824   2.843   1.689   5.443  0.8349  2.0166  1.9644
17137TIP3   OH272825   4.371   1.418   2.244 -0.2674  0.2039 -0.4941
17137TIP3    H172826   4.444   1.473   2.272  0.3591 -0.5586 -0.5972
17137TIP3    H272827   4.404   1.369   2.169 -1.5752  1.3809 -1.8628
17138TIP3   OH272828   4.316   3.801   0.218 -0.2476  0.1970  0.1566
17138TIP3    H172829   4.227   3.834   0.208 -0.3759  0.2784  1.4966
17138TIP3    H272830   4.341   3.773   0.130 -1.9681 -0.7822 -0.0373
17139TIP3   OH272831   2.765   7.040   5.014 -0.0684  0.0662 -0.2319
17139TIP3    H172832   2.807   6.983   4.949 -1.0499 -2.8230  1.6169
17139TIP3    H272833   2.833   7.103   5.037  1.9209 -1.9553 -0.4005
17140TIP3   OH272834   0.809   4.532   4.790  0.5032  0.2288 -0.1001
17140TIP3    H172835   0.797   4.621   4.825 -1.3770 -0.6401  1.5672
17140TIP3    H272836   0.752   4.529   4.713  0.8623  0.5871 -0.3830
17141TIP3   OH272837   5.799   3.893   3.598  0.0464 -0.0326 -0.0307
17141TIP3    H172838   5.771   3.816   3.548 -0.7467 -0.8557  1.6325
17141TIP3    H272839   5.879   3.922   3.555 -0.0237 -1.3686 -1.1031
17142TIP3   OH272840   0.782   5.306   4.133  0.1861  0.0530 -0.3972
17142TIP3    H172841   0.772   5.212   4.148 -0.7263  0.3980  1.3060
17142TIP3    H272842   0.708   5.330   4.078 -0.7356  0.1247  0.8510
17143TIP3   OH272843   1.300   2.331   5.472  0.2950 -0.1938  0.6904
17143TIP3    H172844   1.269   2.409   5.425 -0.7429 -0.9567  0.0710
17143TIP3    H272845   1.374   2.299   5.420  0.4148  0.1057  0.6777
17144TIP3   OH272846   5.294   2.168   3.693  0.2640 -0.2329  0.1166
17144TIP3    H172847   5.358   2.152   3.623  0.6789 -0.6171  0.5805
17144TIP3    H272848   5.294   2.263   3.705 -1.1775  0.0269 -1.6939
17145TIP3   OH272849   1.946   3.670   3.898  0.0327  0.2611 -0.3067
17145TIP3    H172850   1.907   3.681   3.985 -2.9120  0.8590 -1.6129
17145TIP3    H272851   1.928   3.579   3.875 -1.3421  0.7422 -1.2246
17146TIP3   OH272852   1.250   1.393   1.377 -0.6794  0.6157 -0.2696
17146TIP3    H172853   1.222   1.373   1.466  0.9617  1.3529  0.4285
17146TIP3    H272854   1.170   1.386   1.325 -1.0342 -3.1935  0.6677
17147TIP3   OH272855   2.146   6.792   2.908 -0.0895  0.4223 -0.7649
17147TIP3    H172856   2.201   6.751   2.974  0.7720  0.9094 -1.1812
17147TIP3    H272857   2.142   6.728   2.837 -0.2128  0.3149 -0.6635
17148TIP3   OH272858   6.135   1.660   0.893 -0.5326  0.2399  0.1528
17148TIP3    H172859   6.040   1.663   0.911 -0.6544 -2.2327  0.0251
17148TIP3    H272860   6.148   1.727   0.826 -2.3531 -0.0494 -0.5293
17149TIP3   OH272861   5.076   4.229   4.810  0.5070  0.0035  0.5025
17149TIP3    H172862   5.063   4.322   4.830  1.4268 -0.2580  2.4605
17149TIP3    H272863   5.151   4.227   4.750 -0.2768  0.5879 -0.5189
17150TIP3   OH272864   4.145   6.995   3.788 -0.1592  0.0962 -0.6120
17150TIP3    H172865   4.185   6.918   3.830 -0.9141  0.5166  0.9124
17150TIP3    H272866   4.052   6.989   3.811 -0.7585 -0.0861 -2.9166
17151TIP3   OH272867   0.658   5.415   3.253  0.1776 -0.4440 -0.0713
17151TIP3    H172868   0.702   5.345   3.204 -1.3645  0.2007 -2.4439
17151TIP3    H272869   0.671   5.493   3.200  0.2995  0.7216  1.6419
17152TIP3   OH272870   3.365   1.752   2.290  0.6104  0.6289  0.2305
17152TIP3    H172871   3.445   1.763   2.341  0.7881  1.0136 -0.1252
17152TIP3    H272872   3.385   1.681   2.229  0.6307  0.6229  0.2445
17153TIP3   OH272873   4.327   0.292   6.143 -0.0053 -0.4411 -0.4737
17153TIP3    H172874   4.352   0.261   6.056  0.3318 -0.3332 -0.4165
17153TIP3    H272875   4.409   0.320   6.183 -0.0364 -1.2761  0.1919
17154TIP3   OH272876   0.189   5.088   4.738 -0.3910 -0.5063 -0.1109
17154TIP3    H172877   0.188   5.181   4.758  1.2764 -0.2894 -0.9553
17154TIP3    H272878   0.278   5.060   4.757 -0.4917 -1.6214 -1.1875
17155TIP3   OH272879   0.747   1.981   1.839 -0.6567 -0.3077  0.5365
17155TIP3    H172880   0.826   1.951   1.794 -0.2888  0.7836  0.4399
17155TIP3    H272881   0.712   1.903   1.881 -0.1156 -1.0147 -0.3121
17156TIP3   OH272882   4.973   1.215   3.407 -0.1162 -0.4817 -0.0555
17156TIP3    H172883   4.929   1.189   3.488  1.0254 -2.3751 -0.0089
17156TIP3    H272884   5.029   1.141   3.385  2.4114  1.4829 -0.5724
17157TIP3   OH272885   5.280   1.202   2.347  0.3943 -0.4481 -0.0435
17157TIP3    H172886   5.271   1.185   2.441 -0.0017  0.0141  0.0004
17157TIP3    H272887   5.345   1.138   2.318 -1.8167 -2.7226 -0.0897
17158TIP3   OH272888   7.058   3.907   5.033  0.2406  0.3826 -0.5408
17158TIP3    H172889   7.081   3.880   5.122  1.5910  1.1308 -0.6456
17158TIP3    H272890   7.026   3.997   5.044  0.6621  0.5672 -0.8528
17159TIP3   OH272891   4.399   4.500   4.773  0.0882  0.3982 -0.3793
17159TIP3    H172892   4.455   4.433   4.734 -0.5087 -0.6233  0.4712
17159TIP3    H272893   4.446   4.528   4.851 -0.5469 -0.4228  0.3067
17160TIP3   OH272894   3.162   0.849   2.607 -0.4242  0.0791  0.3679
17160TIP3    H172895   3.183   0.756   2.612  2.9121  0.7655 -0.1957
17160TIP3    H272896   3.196   0.886   2.688  2.3722  1.5248 -1.3858
17161TIP3   OH272897   3.495   2.573   3.105 -0.2626  0.5103 -0.4529
17161TIP3    H172898   3.406   2.589   3.136 -0.5248  0.2244 -1.0377
17161TIP3    H272899   3.501   2.478   3.099 -0.3775  0.5687 -1.7088
17162TIP3   OH272900   3.583   1.081   5.176  0.0601 -0.2092  0.7437
17162TIP3    H172901   3.630   1.003   5.205  1.8856  0.4109 -0.4333
17162TIP3    H272902   3.509   1.047   5.126  0.2318 -1.1956  1.1476
17163TIP3   OH272903   4.438   3.128   4.673 -0.3062 -0.2461 -0.2955
17163TIP3    H172904   4.394   3.160   4.752 -0.7314  2.0802 -1.4328
17163TIP3    H272905   4.531   3.144   4.688 -0.2898 -0.6849  0.0997
17164TIP3   OH272906   4.622   0.320   6.141 -0.0216  0.1313  0.4037
17164TIP3    H172907   4.674   0.400   6.134 -0.0517  0.0501 -0.7776
17164TIP3    H272908   4.658   0.262   6.074 -2.8048  0.7469 -1.6938
17165TIP3   OH272909   5.934   6.816   5.092  0.0409  0.6182  0.2495
17165TIP3    H172910   5.910   6.854   5.176  1.1281  1.3011  0.2581
17165TIP3    H272911   5.993   6.880   5.052  2.2428 -1.2268  0.4449
17166TIP3   OH272912   6.681   4.392   5.791  0.1449  0.2349 -0.2029
17166TIP3    H172913   6.769   4.382   5.828  0.1135 -1.5250 -0.6004
17166TIP3    H272914   6.627   4.330   5.838 -1.2009  2.1865  0.9195
17167TIP3   OH272915   5.276   6.019   0.415 -0.4808 -0.4364  0.5056
17167TIP3    H172916   5.265   6.100   0.465 -1.7464  0.0593 -0.5645
17167TIP3    H272917   5.371   6.008   0.409 -0.2826  1.6374 -0.4035
17168TIP3   OH272918   4.624   2.244   4.787 -0.3333 -0.1785  0.2687
17168TIP3    H172919   4.543   2.195   4.777 -1.0556  0.9160  0.7063
17168TIP3    H272920   4.598   2.336   4.784  0.9065  0.1850  0.2277
17169TIP3   OH272921   4.245   1.063   4.899  0.1454  0.1796  0.2788
17169TIP3    H172922   4.242   1.150   4.859 -0.8050 -1.2267 -2.9004
17169TIP3    H272923   4.153   1.035   4.901  0.4521 -0.8029  1.2461
17170TIP3   OH272924   6.203   0.136   5.689  0.2994 -0.5457  0.0695
17170TIP3    H172925   6.265   0.165   5.757  0.8869 -1.8230  0.0855
17170TIP3    H272926   6.140   0.081   5.736  0.7612 -1.5056 -0.4403
17171TIP3   OH272927   5.454   4.629   5.384  0.1918  0.3112  0.5951
17171TIP3    H172928   5.522   4.578   5.428  0.6140  1.3188  1.1265
17171TIP3    H272929   5.416   4.684   5.453 -1.9232 -1.0117  0.5507
17172TIP3   OH272930   4.298   2.138   6.025 -0.3552  0.6787 -0.3413
17172TIP3    H172931   4.391   2.140   6.000 -0.0006 -0.0430  0.8947
17172TIP3    H272932   4.257   2.202   5.967  1.0003  1.3597 -0.5810
17173TIP3   OH272933   4.019   4.981   4.333 -0.4212  0.1755 -1.0327
17173TIP3    H172934   4.022   4.886   4.333 -3.2995 -0.0738  2.8753
17173TIP3    H272935   3.927   5.002   4.315  0.2341  2.2266 -2.1763
17174TIP3   OH272936   5.070   1.786   6.111 -0.0231 -0.1509  0.6795
17174TIP3    H172937   4.980   1.816   6.095 -0.3181 -1.5197 -0.3602
17174TIP3    H272938   5.074   1.701   6.067  2.1210  0.3928 -0.2143
17175TIP3   OH272939   2.269   0.867   4.819 -0.3577  0.1977 -0.2392
17175TIP3    H172940   2.195   0.807   4.834  0.5294 -0.5726  1.2154
17175TIP3    H272941   2.297   0.892   4.907  3.0094 -1.8629 -0.6540
17176TIP3   OH272942   3.168   3.340   4.477 -0.4771 -0.0787  0.7879
17176TIP3    H172943   3.201   3.304   4.559 -2.6249 -0.5903  1.4549
17176TIP3    H272944   3.115   3.416   4.503 -0.8878 -0.0407 -0.1356
17177TIP3   OH272945   3.812   4.019   5.738  0.1987 -0.4371  0.2316
17177TIP3    H172946   3.768   3.937   5.760  0.3044 -0.0483  1.9497
17177TIP3    H272947   3.881   4.028   5.804 -0.4741  1.5504  0.6968
17178TIP3   OH272948   2.807   1.992   6.059  0.3994 -0.2806 -0.3201
17178TIP3    H172949   2.823   2.083   6.084 -2.5120 -0.1472  1.3402
17178TIP3    H272950   2.867   1.941   6.113  1.2825  0.5903 -0.4666
17179TIP3   OH272951   5.533   3.210   5.664 -0.1506 -0.0842 -0.4172
17179TIP3    H172952   5.614   3.162   5.652  0.2371  0.2516  0.7596
17179TIP3    H272953   5.560   3.296   5.698 -0.8185  1.0386 -2.5858
17180TIP3   OH272954   2.033   0.551   5.770 -0.5772  0.1126 -0.0039
17180TIP3    H172955   1.980   0.508   5.837 -1.1231 -0.2610 -0.6697
17180TIP3    H272956   2.075   0.623   5.816 -2.1589  0.8075  0.3961
17181TIP3   OH272957   2.641   1.746   4.131  0.0451  0.3530 -0.8532
17181TIP3    H172958   2.640   1.836   4.099 -1.3259 -0.2184 -2.4765
17181TIP3    H272959   2.661   1.693   4.054  1.3674 -0.7084  0.1948
17182TIP3   OH272960   2.089   4.864   5.578  0.0683  0.6968  0.1335
17182TIP3    H172961   2.100   4.959   5.578 -0.3558  0.7657 -1.7310
17182TIP3    H272962   2.150   4.832   5.511  1.7594 -0.5693  2.1939
17183TIP3   OH272963   3.708   3.574   3.513 -0.8171 -0.0157  0.2450
17183TIP3    H172964   3.693   3.513   3.441 -1.4361  2.5589 -1.8968
17183TIP3    H272965   3.803   3.573   3.526 -0.8144 -1.3367  0.1600
17184TIP3   OH272966   0.781   5.444   3.834 -0.6447 -0.0362  0.0043
17184TIP3    H172967   0.749   5.513   3.776  3.9839 -0.1192 -2.9484
17184TIP3    H272968   0.754   5.363   3.791 -1.5370 -0.1012  0.6761
17185TIP3   OH272969   5.442   1.216   4.744  0.3069  0.0960 -0.1301
17185TIP3    H172970   5.372   1.268   4.704 -0.0571 -0.7361 -0.5928
17185TIP3    H272971   5.458   1.257   4.828 -1.6719 -0.4974  0.5644
17186TIP3   OH272972   5.414   0.691   4.945  0.6860 -0.1871  0.8030
17186TIP3    H172973   5.422   0.768   4.888  0.4209 -0.6749  0.0980
17186TIP3    H272974   5.504   0.670   4.971  0.8856 -0.4487 -0.0924
17187TIP3   OH272975   4.984   0.323   5.134  0.2190  0.0616  0.0296
17187TIP3    H172976   4.915   0.382   5.161  0.1148  0.7865 -1.7277
17187TIP3    H272977   4.938   0.244   5.103  0.3229 -0.6362  1.6293
17188TIP3   OH272978   4.306   1.191   5.228  0.2668 -0.2645  0.5818
17188TIP3    H172979   4.329   1.207   5.319  2.7358 -0.0424 -0.0296
17188TIP3    H272980   4.364   1.249   5.178 -2.8025  1.5123 -1.0635
17189TIP3   OH272981   4.697   0.594   3.040  0.4064  0.2327 -0.1284
17189TIP3    H172982   4.683   0.499   3.029  1.6330  0.0518 -0.1182
17189TIP3    H272983   4.733   0.603   3.128  0.4550  0.6945 -0.1945
17190TIP3   OH272984   1.506   0.899   5.450 -0.4453 -0.2385 -0.8319
17190TIP3    H172985   1.572   0.967   5.444 -0.6395  0.0570  0.2921
17190TIP3    H272986   1.551   0.819   5.423  0.7621 -0.2898  1.2694
17191TIP3   OH272987   3.853   2.807   3.950 -0.3365  0.3468  0.5436
17191TIP3    H172988   3.902   2.875   3.904 -0.5001 -0.2986 -0.6245
17191TIP3    H272989   3.796   2.769   3.882 -1.5363  0.2551  1.5920
17192TIP3   OH272990   6.200   0.527   5.423 -0.6631  0.7430 -0.0544
17192TIP3    H172991   6.179   0.564   5.509 -2.3467  0.2703 -0.2418
17192TIP3    H272992   6.114   0.505   5.385  0.0918  0.4871 -1.6447
17193TIP3   OH272993   5.619   1.270   5.002 -0.3933 -0.6421 -0.7915
17193TIP3    H172994   5.555   1.341   4.995  0.9662  0.8606  1.1351
17193TIP3    H272995   5.703   1.316   5.009  0.4704 -2.4278  1.0294
17194TIP3   OH272996   5.854   1.431   4.966  0.6050  0.0683 -0.4759
17194TIP3    H172997   5.879   1.464   5.052  0.3490  1.7442 -1.0440
17194TIP3    H272998   5.868   1.504   4.906 -0.0343 -0.8132 -1.7287
17195TIP3   OH272999   5.171   0.714   5.330  0.0274  0.8335  0.2266
17195TIP3    H173000   5.097   0.696   5.273 -0.2205  1.1864  0.4335
17195TIP3    H273001   5.248   0.704   5.274  0.1276 -3.8077  0.9796
17196TIP3   OH273002   1.757   2.898   5.258  0.1335  0.5952 -0.7003
17196TIP3    H173003   1.774   2.857   5.173  1.4254 -2.6138  1.0261
17196TIP3    H273004   1.840   2.891   5.305 -2.1114 -3.2398  3.0300
17197TIP3   OH273005   4.991   0.874   5.892 -0.4297 -0.0830  0.7653
17197TIP3    H173006   4.904   0.911   5.909 -0.0241  0.5183  1.5742
17197TIP3    H273007   5.043   0.900   5.968  0.6114  0.0343  0.0211
17198TIP3   OH273008   6.178   1.156   4.442  0.0362  0.1100 -0.0350
17198TIP3    H173009   6.140   1.114   4.519 -3.1053  0.1685 -1.4602
17198TIP3    H273010   6.192   1.247   4.468 -0.5807  0.0189  0.6316
17199TIP3   OH273011   3.789   1.420   4.924 -0.5126 -0.5621  0.2178
17199TIP3    H173012   3.873   1.465   4.926  0.1494 -1.7443 -0.5887
17199TIP3    H273013   3.754   1.438   4.836 -1.7621  1.0830  1.0181
17200TIP3   OH273014   4.271   5.924   4.899 -0.0499 -0.2812  0.3388
17200TIP3    H173015   4.320   5.985   4.843 -0.8486  0.0277 -0.0429
17200TIP3    H273016   4.235   5.860   4.838 -0.6964 -0.0991  0.5229
17201TIP3   OH273017   5.694   2.236   4.190  0.4102 -0.1694  0.0179
17201TIP3    H173018   5.634   2.162   4.199  0.2357  0.0487  0.7354
17201TIP3    H273019   5.739   2.221   4.107 -0.4636 -0.4667 -0.4176
17202TIP3   OH273020   3.320   2.470   1.714  0.2537  0.2661 -0.4581
17202TIP3    H173021   3.326   2.536   1.645  1.0814 -0.5554 -1.1834
17202TIP3    H273022   3.248   2.413   1.687  0.5443 -0.0249 -0.6303
17203TIP3   OH273023   3.556   1.970   1.783 -0.0748  0.2254 -0.1375
17203TIP3    H173024   3.574   2.063   1.794  2.4549 -0.1365 -0.9860
17203TIP3    H273025   3.539   1.938   1.871 -0.7619  1.4424  0.1770
17204TIP3   OH273026   6.051   1.334   2.537  0.3229  0.1217  0.4522
17204TIP3    H173027   6.075   1.414   2.584  1.0808  0.5206 -0.5901
17204TIP3    H273028   6.124   1.319   2.476 -1.3839  0.5608 -1.7660
17205TIP3   OH273029   5.476   0.621   4.659  0.1797  0.7167  0.2059
17205TIP3    H173030   5.553   0.629   4.715 -0.0368  1.1633  0.4470
17205TIP3    H273031   5.410   0.579   4.715  1.2268 -2.7090 -0.9746
17206TIP3   OH273032   5.479   6.052   2.295 -0.6214  0.0441 -0.3356
17206TIP3    H173033   5.492   5.982   2.231  0.0690  0.4083 -0.5925
17206TIP3    H273034   5.530   6.125   2.262 -1.4610  0.7273 -0.1359
17207TIP3   OH273035   6.880   0.739   4.848  0.2934  0.2388  0.1918
17207TIP3    H173036   6.905   0.650   4.871  3.3712  1.5432  2.1959
17207TIP3    H273037   6.905   0.749   4.757  0.4620 -0.7349  0.1258
17208TIP3   OH273038   4.615   5.998   5.025 -0.1031  0.0373  0.0860
17208TIP3    H173039   4.559   5.973   5.099 -1.3234 -1.0897 -1.1966
17208TIP3    H273040   4.639   5.915   4.984  0.5438  0.6596 -0.8119
17209TIP3   OH273041   4.994   1.801   3.551  0.0866 -1.3944 -0.0535
17209TIP3    H173042   4.914   1.765   3.589  0.0447 -1.4272 -0.1713
17209TIP3    H273043   5.017   1.873   3.609  0.5334 -2.0234  0.5511
17210TIP3   OH273044   3.970   6.830   3.428  0.6084  0.4981 -0.4647
17210TIP3    H173045   4.064   6.834   3.411  0.8125 -0.1791  0.4145
17210TIP3    H273046   3.948   6.915   3.466  1.1012  0.2644  0.3710
17211TIP3   OH273047   1.597   2.577  14.883  0.1012  0.1532 -0.6734
17211TIP3    H173048   1.687   2.551  14.899  0.0494  0.3244 -0.0963
17211TIP3    H273049   1.576   2.639  14.953  0.0124  1.2643 -1.6690
17212TIP3   OH273050   6.237   2.637   3.807 -0.5198  0.0193  0.2049
17212TIP3    H173051   6.303   2.568   3.801  0.9509  1.5198 -1.3153
17212TIP3    H273052   6.182   2.624   3.730  0.0948  0.8701 -0.3847
17213TIP3   OH273053   3.553   0.854   5.384 -0.5229 -0.6885 -0.4125
17213TIP3    H173054   3.503   0.832   5.462 -2.8301  2.9463 -0.7648
17213TIP3    H273055   3.502   0.817   5.312 -0.9848  0.1958 -0.5400
17214TIP3   OH273056   0.560   4.412   5.508 -0.2818  0.0786  0.2892
17214TIP3    H173057   0.554   4.325   5.547 -1.3215 -0.8456 -1.8694
17214TIP3    H273058   0.510   4.469   5.567 -0.0568 -0.8900  1.4144
17215TIP3   OH273059   2.210   1.352   3.756 -0.1601 -0.0442 -0.1607
17215TIP3    H173060   2.195   1.354   3.661 -1.2147 -0.4863 -0.0086
17215TIP3    H273061   2.305   1.360   3.765 -0.2180  2.5487 -1.1693
17216TIP3   OH273062   1.083   4.947  14.425  0.7446 -0.0147  0.4650
17216TIP3    H173063   1.124   4.938  14.339  0.4952  1.4251  0.1825
17216TIP3    H273064   0.990   4.957  14.406  0.7276  0.6301  0.8672
17217TIP3   OH273065   2.456   4.943   2.989  0.0404 -0.7074 -0.1616
17217TIP3    H173066   2.486   4.870   3.043 -0.9529 -0.6782  0.4309
17217TIP3    H273067   2.402   4.903   2.921 -0.8437 -0.4902  0.4067
17218TIP3   OH273068   3.424   1.189   5.509  0.1931  0.2518 -0.0650
17218TIP3    H173069   3.455   1.261   5.454 -0.9745 -1.1758 -2.7233
17218TIP3    H273070   3.341   1.220   5.545  0.2558  0.6496 -0.2573
17219TIP3   OH273071   1.449   2.926   5.332 -0.1504 -0.0346  0.4469
17219TIP3    H173072   1.545   2.919   5.333 -0.1173  0.3917  0.1068
17219TIP3    H273073   1.425   2.917   5.240 -0.3730  0.7533  0.4242
17220TIP3   OH273074   0.985   4.331   4.811  0.1779  0.5189 -0.7660
17220TIP3    H173075   0.915   4.394   4.828  0.2391  0.5284 -0.5443
17220TIP3    H273076   1.066   4.380   4.830  0.3475  1.1297 -2.9315
17221TIP3   OH273077   1.358   0.541   4.515 -0.3920  0.4081  0.0424
17221TIP3    H173078   1.268   0.562   4.489 -2.0367 -4.1191  1.5747
17221TIP3    H273079   1.395   0.497   4.438  0.2681  1.4928 -0.2744
17222TIP3   OH273080   1.360   0.300   3.064 -0.2533  0.3272 -0.4695
17222TIP3    H173081   1.436   0.250   3.034 -1.8663 -2.3340 -0.2866
17222TIP3    H273082   1.352   0.372   3.002  1.6701 -0.0560 -1.1971
17223TIP3   OH273083   2.688   1.671   3.419  0.0741 -0.0359  0.1492
17223TIP3    H173084   2.709   1.578   3.427  1.1035  0.3259  2.1572
17223TIP3    H273085   2.679   1.686   3.325  1.3131 -1.8654 -0.2892
17224TIP3   OH273086   5.171   5.990   1.498 -0.5388 -0.4334  0.2952
17224TIP3    H173087   5.166   6.084   1.478 -2.0680 -0.6067 -0.2016
17224TIP3    H273088   5.230   5.955   1.431  1.1875  0.3924  1.3499
17225TIP3   OH273089   5.760   6.725   5.885  0.1732  0.2047  0.0456
17225TIP3    H173090   5.849   6.761   5.880 -0.7480  2.4147 -1.1296
17225TIP3    H273091   5.770   6.633   5.860  2.0823  0.5135 -0.4103
17226TIP3   OH273092   3.441   4.264   4.282  1.0263 -0.1537 -0.1256
17226TIP3    H173093   3.351   4.285   4.257  1.0827 -2.1364 -2.1995
17226TIP3    H273094   3.431   4.213   4.362  0.3487  0.1186 -0.0251
17227TIP3   OH273095   6.990   6.731   4.927  0.5840 -0.2255  0.3678
17227TIP3    H173096   6.998   6.756   5.019  0.9520 -0.9136  0.5223
17227TIP3    H273097   6.903   6.762   4.902  0.5819  0.1883  0.8753
17228TIP3   OH273098   4.109   4.485   5.129 -0.2324  0.4855  0.7567
17228TIP3    H173099   4.189   4.509   5.082 -0.3224  0.8055  0.7686
17228TIP3    H273100   4.121   4.392   5.149  0.5069  0.7271  1.4877
17229TIP3   OH273101   1.166   3.213   3.261  0.4099  0.6253 -0.6984
17229TIP3    H173102   1.250   3.204   3.305  0.8272 -0.6519 -1.7070
17229TIP3    H273103   1.154   3.307   3.250  1.2143  0.8582  0.3714
17230TIP3   OH273104   4.189   3.447   1.930  0.6632 -0.0814  0.0268
17230TIP3    H173105   4.104   3.438   1.974  0.7336 -1.1617 -0.0480
17230TIP3    H273106   4.195   3.540   1.909 -0.2658  0.0965  0.5153
17231TIP3   OH273107   3.978   5.670   3.265 -0.0291  0.1171 -0.3425
17231TIP3    H173108   3.955   5.630   3.349  0.2584 -2.7251 -1.5572
17231TIP3    H273109   3.895   5.703   3.232 -0.9462 -2.4503 -0.7702
17232TIP3   OH273110   1.908   2.679   4.424  0.4121 -0.9257 -0.2683
17232TIP3    H173111   2.003   2.678   4.409  0.0075 -0.6109 -3.0084
17232TIP3    H273112   1.898   2.731   4.504  2.4623 -0.0243 -0.5482
17233TIP3   OH273113   4.999   1.014   2.006 -0.2381 -0.3974 -0.0533
17233TIP3    H173114   5.022   1.096   2.049 -1.5701 -0.9112  1.7376
17233TIP3    H273115   5.080   0.963   2.004  0.2237  0.3307  0.2825
17234TIP3   OH273116   0.912   1.860   3.468  0.3502  0.0314  0.1494
17234TIP3    H173117   0.825   1.882   3.434  0.4851 -0.2067 -0.3675
17234TIP3    H273118   0.901   1.776   3.512  0.1316  0.4379  0.8773
17235TIP3   OH273119   5.095   0.988   4.802  0.1205  0.7833  0.0446
17235TIP3    H173120   5.011   1.025   4.827  0.0720 -0.2868  1.5302
17235TIP3    H273121   5.108   1.015   4.711 -2.8689 -0.8831 -0.9466
17236TIP3   OH273122   2.816   2.288   2.590 -0.3076  0.1332  0.4512
17236TIP3    H173123   2.721   2.300   2.595 -0.0828  1.5813  1.5619
17236TIP3    H273124   2.851   2.357   2.645  1.3913 -0.6271  0.3327
17237TIP3   OH273125   0.123   2.645   2.242  0.1435  0.7790 -0.4212
17237TIP3    H173126   0.029   2.656   2.229 -0.0462 -1.7993 -1.5553
17237TIP3    H273127   0.157   2.619   2.156  1.6265  0.1812  0.3184
17238TIP3   OH273128   5.287   2.367   4.111 -0.2403 -0.0659  0.4355
17238TIP3    H173129   5.229   2.442   4.118  1.5315  1.3882  0.0780
17238TIP3    H273130   5.304   2.340   4.202 -1.3333 -0.4023  0.5402
17239TIP3   OH273131   1.271   2.844   4.668  0.1405  0.6294 -0.1523
17239TIP3    H173132   1.366   2.846   4.664  0.0702  1.7398 -2.0796
17239TIP3    H273133   1.243   2.895   4.592 -1.9748  3.3379  2.3156
17240TIP3   OH273134   3.540   3.237   2.266  0.2731  0.1755 -0.2034
17240TIP3    H173135   3.605   3.294   2.307 -1.0869  0.6827  1.2697
17240TIP3    H273136   3.499   3.191   2.339 -2.5418  1.4620 -0.9154
17241TIP3   OH273137   0.717   1.071   3.565  0.0261  0.6387  0.7093
17241TIP3    H173138   0.689   1.024   3.487  0.2004  2.5580 -0.5387
17241TIP3    H273139   0.669   1.030   3.637 -1.7094  0.1927 -0.6841
17242TIP3   OH273140   0.431   3.101   3.292 -0.0382  0.1900 -0.6129
17242TIP3    H173141   0.461   3.096   3.201  2.9049 -1.8213  0.4162
17242TIP3    H273142   0.407   3.011   3.314 -0.6644  0.6620  0.6386
17243TIP3   OH273143   3.847   1.693   2.755 -0.3456  0.0598 -0.0245
17243TIP3    H173144   3.783   1.764   2.764  0.1806  0.3166  1.9875
17243TIP3    H273145   3.815   1.624   2.814  0.4229 -0.4290 -0.1682
17244TIP3   OH273146   6.521   1.287   3.168 -0.3675  0.4099 -0.2347
17244TIP3    H173147   6.570   1.370   3.172 -0.3741  0.4181 -0.3233
17244TIP3    H273148   6.535   1.256   3.079  0.0441  0.0681 -0.0531
17245TIP3   OH273149   3.005   3.268   2.588 -0.6370 -0.4744 -0.3999
17245TIP3    H173150   3.063   3.343   2.576  1.6317 -1.9949  0.7309
17245TIP3    H273151   3.002   3.225   2.503  0.5287 -0.8040 -0.2848
17246TIP3   OH273152   2.189   6.232   2.882  0.1303  0.1008 -0.0819
17246TIP3    H173153   2.171   6.295   2.952 -2.0641  0.2162 -0.7077
17246TIP3    H273154   2.258   6.176   2.918  0.2210  1.1820  1.5168
17247TIP3   OH273155   3.207   2.344   3.243  0.0980 -0.7071 -0.2296
17247TIP3    H173156   3.113   2.343   3.260  0.0645 -0.6265 -0.4081
17247TIP3    H273157   3.216   2.397   3.164  0.3302 -0.3852  0.0159
17248TIP3   OH273158   6.419   1.388   1.755 -0.0841  0.6264  0.1763
17248TIP3    H173159   6.446   1.343   1.675 -0.5906 -0.1675  0.4464
17248TIP3    H273160   6.338   1.434   1.731  0.7731  1.9077 -0.2691
17249TIP3   OH273161   5.466   2.174   4.791 -0.0798 -0.1126  0.1290
17249TIP3    H173162   5.467   2.247   4.853 -0.8384 -0.7810  0.9604
17249TIP3    H273163   5.557   2.146   4.785  0.1953  0.8327 -0.1193
17250TIP3   OH273164   3.614   1.716   3.697  0.2755  0.6341  0.4731
17250TIP3    H173165   3.541   1.767   3.733  2.1092  1.3849  3.3075
17250TIP3    H273166   3.658   1.778   3.638  0.1619  1.0465  0.8129
17251TIP3   OH273167   5.600   7.044   2.245 -0.1761 -0.2801 -0.9463
17251TIP3    H173168   5.673   7.105   2.245 -0.2130 -0.2319 -0.0667
17251TIP3    H273169   5.631   6.969   2.195  0.3931 -0.1662 -0.7669
17252TIP3   OH273170   5.263   5.876   5.112  0.0678 -0.3632 -0.2187
17252TIP3    H173171   5.192   5.819   5.140  0.6954 -1.2305 -0.3639
17252TIP3    H273172   5.251   5.885   5.017 -0.0075 -0.2891 -0.2020
17253TIP3   OH273173   0.719   6.294   4.744  0.3297  0.3980 -0.1402
17253TIP3    H173174   0.789   6.231   4.758 -0.3273 -0.5830 -1.1535
17253TIP3    H273175   0.648   6.266   4.801  0.7198  1.3515  0.8376
17254TIP3   OH273176   6.159   2.755   5.833 -0.8810 -0.4680  0.2292
17254TIP3    H173177   6.139   2.697   5.759 -0.1571 -0.4434  0.0047
17254TIP3    H273178   6.205   2.700   5.896  0.5130  0.0210 -0.3248
17255TIP3   OH273179   2.801   6.158   6.099  0.8348  0.5708 -1.0912
17255TIP3    H173180   2.761   6.244   6.087  0.0120  0.4950  0.9433
17255TIP3    H273181   2.895   6.176   6.107  0.4280  1.6254  2.0661
17256TIP3   OH273182   4.981   2.274   4.143 -0.0701  0.2001  0.1226
17256TIP3    H173183   5.013   2.365   4.140 -2.6637  1.1590 -0.0447
17256TIP3    H273184   4.891   2.280   4.110  0.1408 -2.6459 -1.1087
17257TIP3   OH273185   4.200   4.532   3.844 -0.2520  0.4321 -0.5931
17257TIP3    H173186   4.118   4.485   3.858  0.7155 -1.0187  0.2702
17257TIP3    H273187   4.255   4.470   3.796  1.8501 -0.1980  2.5455
17258TIP3   OH273188   5.054   7.054   5.526 -0.2326  0.2037  0.1617
17258TIP3    H173189   5.116   7.126   5.534 -0.4472  0.3282  0.6655
17258TIP3    H273190   5.054   7.034   5.432 -0.6982  1.3103 -0.0831
17259TIP3   OH273191   5.381   5.960   4.357  0.1349 -0.2107  0.2567
17259TIP3    H173192   5.368   5.927   4.445 -0.7184  0.1451  0.2615
17259TIP3    H273193   5.346   5.891   4.300 -1.4759  0.5976  0.2618
17260TIP3   OH273194   1.411   2.642   2.517 -0.0439 -0.1415  0.2516
17260TIP3    H173195   1.387   2.683   2.600  0.7419 -2.2365  1.5540
17260TIP3    H273196   1.338   2.662   2.458 -1.2711  0.1647  1.8489
17261TIP3   OH273197   0.819   1.875   4.440 -0.1269  0.1161 -0.0994
17261TIP3    H173198   0.759   1.812   4.400 -0.8068  0.9522 -0.4061
17261TIP3    H273199   0.817   1.951   4.382 -0.5740  1.0696  1.1493
17262TIP3   OH273200   6.421   6.061   3.671  0.4755  0.0817  0.0808
17262TIP3    H173201   6.443   6.089   3.759 -0.0893 -1.0271  0.5840
17262TIP3    H273202   6.353   5.995   3.683  0.4693 -0.1565 -1.1760
17263TIP3   OH273203   6.194   4.245   2.485  0.2946 -0.2754 -0.1585
17263TIP3    H173204   6.232   4.190   2.417 -1.5705 -1.5279 -0.2389
17263TIP3    H273205   6.176   4.185   2.557 -3.2795 -0.1701 -0.8523
17264TIP3   OH273206   5.838   0.868   2.940  0.3198  1.3666  0.2429
17264TIP3    H173207   5.752   0.873   2.899  0.8353 -0.6628 -1.1940
17264TIP3    H273208   5.824   0.815   3.018 -0.2292  3.3266  1.5023
17265TIP3   OH273209   4.560   2.331   2.382 -0.4156  0.0989  0.6377
17265TIP3    H173210   4.575   2.341   2.288  0.6344  0.6349  0.8580
17265TIP3    H273211   4.565   2.236   2.397 -2.0049 -0.1120 -0.0714
17266TIP3   OH273212   6.299   1.316   3.329  0.3372  0.2010  0.2774
17266TIP3    H173213   6.359   1.274   3.268  1.1362  1.2414  0.3245
17266TIP3    H273214   6.269   1.394   3.283 -1.0344 -0.3453  0.2349
17267TIP3   OH273215   5.216   1.928   0.716 -0.0367 -0.3951  0.2832
17267TIP3    H173216   5.260   2.011   0.697  1.4478 -1.5294 -1.4669
17267TIP3    H273217   5.124   1.952   0.728 -0.1181  1.2237 -2.9108
17268TIP3   OH273218   6.231   0.904   4.319  0.0686 -0.3068  0.0212
17268TIP3    H173219   6.228   0.932   4.228  2.0921 -0.0617  0.0134
17268TIP3    H273220   6.210   0.983   4.369 -2.1948 -0.7130 -0.2462
17269TIP3   OH273221   4.735   4.921   4.782  0.2508 -0.6679 -0.6071
17269TIP3    H173222   4.678   4.861   4.734  1.0906 -1.7356 -0.2904
17269TIP3    H273223   4.744   4.883   4.869  2.2791 -1.1008 -0.9669
17270TIP3   OH273224   3.284   1.809   3.556 -0.1185  0.6949 -0.1031
17270TIP3    H173225   3.332   1.869   3.613 -0.3820 -0.8304  1.7724
17270TIP3    H273226   3.325   1.818   3.470  1.9727  1.1409  0.9289
17271TIP3   OH273227   5.831   6.725   2.923 -0.5063  1.1601  0.0919
17271TIP3    H173228   5.780   6.649   2.950 -0.7418  1.3359  0.1470
17271TIP3    H273229   5.769   6.798   2.927 -0.8507  1.0239 -1.9710
17272TIP3   OH273230   2.765   0.882   3.625  0.3084  0.1004 -0.3339
17272TIP3    H173231   2.691   0.822   3.633 -0.6893  1.3295 -0.0883
17272TIP3    H273232   2.808   0.858   3.543 -0.1217 -0.8839 -0.2692
17273TIP3   OH273233   0.023   2.809   1.273 -0.0793 -0.4903 -0.3153
17273TIP3    H173234  -0.019   2.869   1.333 -0.7412 -1.7981  0.5345
17273TIP3    H273235  -0.048   2.775   1.219  0.4568  0.3902 -1.6075
17274TIP3   OH273236   5.336   2.544   4.484  0.4321 -0.2992  0.3597
17274TIP3    H173237   5.351   2.466   4.432  1.2030 -0.2260  0.4642
17274TIP3    H273238   5.367   2.616   4.430 -0.3222 -0.0559  0.2451
17275TIP3   OH273239   4.442   4.666   4.407  0.1541 -0.0085 -0.3738
17275TIP3    H173240   4.366   4.628   4.451  0.5083  0.1665  0.4029
17275TIP3    H273241   4.446   4.622   4.322 -1.6193  0.9569 -0.9750
17276TIP3   OH273242   2.168   2.686   3.609 -0.4736  0.9302  0.0832
17276TIP3    H173243   2.195   2.693   3.701 -0.6928  0.6102  0.1720
17276TIP3    H273244   2.206   2.763   3.568 -0.0953  0.9047  0.3752
17277TIP3   OH273245   5.631   3.375   2.673  0.0599 -0.5208  0.0296
17277TIP3    H173246   5.577   3.335   2.605  0.8627  1.1116 -1.5903
17277TIP3    H273247   5.571   3.431   2.722 -0.4107 -1.3009  0.3510
17278TIP3   OH273248   5.356   6.913   5.624  0.2708  0.7155 -0.2911
17278TIP3    H173249   5.392   6.985   5.573  0.3139  0.1084 -1.1400
17278TIP3    H273250   5.318   6.854   5.558  1.2450 -0.5901  0.2922
17279TIP3   OH273251   1.052   4.015   0.345 -0.0466 -0.4385  0.2651
17279TIP3    H173252   1.068   4.042   0.435  0.2524  1.2627 -0.2894
17279TIP3    H273253   0.970   4.057   0.321  0.9113  0.8099 -0.9192
17280TIP3   OH273254   6.707   3.427   3.891  0.2523 -0.0256 -0.2184
17280TIP3    H173255   6.647   3.460   3.958  0.1505  1.0146 -0.8115
17280TIP3    H273256   6.711   3.333   3.907  2.5489  0.5515  3.1477
17281TIP3   OH273257   6.453   2.755   3.321 -0.1610  0.8144  0.4043
17281TIP3    H173258   6.505   2.835   3.318 -1.2978  1.6039  1.4634
17281TIP3    H273259   6.410   2.751   3.235 -0.0325  1.3001  0.3158
17282TIP3   OH273260   6.245   4.419   4.856  0.0212  0.1650  0.1740
17282TIP3    H173261   6.204   4.487   4.909 -0.3382 -0.6016  0.8711
17282TIP3    H273262   6.268   4.464   4.774  0.7850  1.3971  1.0536
17283TIP3   OH273263   6.713   1.049   3.216 -0.5693 -0.0865  0.6061
17283TIP3    H173264   6.621   1.065   3.239 -0.8229 -0.5764 -0.0434
17283TIP3    H273265   6.717   1.065   3.122  0.4352  1.8048  0.9545
17284TIP3   OH273266   5.095   0.554   3.165 -0.1830  0.1793 -0.1179
17284TIP3    H173267   5.085   0.476   3.110  1.0986  1.2352 -1.9035
17284TIP3    H273268   5.185   0.583   3.149 -0.4834  1.7407  0.9034
17285TIP3   OH273269   4.841   2.857   4.348  0.1122  0.1445 -0.0155
17285TIP3    H173270   4.937   2.859   4.353  0.0268  1.9351  1.2096
17285TIP3    H273271   4.823   2.814   4.264  1.9904  1.0308 -0.9076
17286TIP3   OH273272   6.958   3.829   5.539  0.4297  0.8281 -0.2607
17286TIP3    H173273   7.028   3.855   5.480  0.4047  1.9347  0.1813
17286TIP3    H273274   7.001   3.782   5.609  0.7328  1.5185  0.0169
17287TIP3   OH273275   4.409   2.141   5.599 -0.1549 -0.4923 -0.8315
17287TIP3    H173276   4.377   2.200   5.530  1.0636  0.5639 -0.5093
17287TIP3    H273277   4.356   2.062   5.588 -1.4019  0.4166 -1.6691
17288TIP3   OH273278   0.826   6.074   4.419  0.4629 -0.6097 -0.7426
17288TIP3    H173279   0.739   6.038   4.432  0.0161 -0.5689 -3.4290
17288TIP3    H273280   0.883   5.998   4.414  0.8067 -0.6060  2.1820
17289TIP3   OH273281   1.592   6.235   2.660  0.3692  0.1841 -0.3395
17289TIP3    H173282   1.626   6.221   2.571  0.0975 -0.3777 -0.3513
17289TIP3    H273283   1.670   6.242   2.715  0.5318  0.2946 -0.5834
17290TIP3   OH273284   6.643   0.890   5.425  0.6762  0.5220 -0.2233
17290TIP3    H173285   6.718   0.855   5.473  1.0592 -0.9166 -1.8145
17290TIP3    H273286   6.676   0.904   5.336 -0.9045 -0.1059 -0.9349
17291TIP3   OH273287   0.592   3.539   4.303 -0.3677 -0.8939 -0.2686
17291TIP3    H173288   0.606   3.461   4.357  0.8677 -1.1328 -0.9245
17291TIP3    H273289   0.646   3.525   4.225  0.4598  0.9478 -0.0572
17292TIP3   OH273290   4.490   6.644   2.810  0.4669 -0.4419  0.0519
17292TIP3    H173291   4.478   6.570   2.869 -0.9939  0.0754  0.4231
17292TIP3    H273292   4.532   6.606   2.733  1.5316 -1.2928  1.0213
17293TIP3   OH273293   6.013   3.093   0.283  0.3166  0.5844  0.1891
17293TIP3    H173294   6.012   3.046   0.367 -2.0753  0.4507  0.1212
17293TIP3    H273295   5.970   3.176   0.301 -0.7790  0.3027 -1.0320
17294TIP3   OH273296   6.614   6.993   3.752  0.3777 -0.0636  0.2310
17294TIP3    H173297   6.647   6.931   3.818  1.1097  0.2372  0.1511
17294TIP3    H273298   6.692   7.042   3.724  0.0703 -0.1437 -0.8082
17295TIP3   OH273299   0.988   2.519   5.048  0.7176 -0.1879 -0.5142
17295TIP3    H173300   1.060   2.575   5.021 -0.2150  0.8671 -0.8183
17295TIP3    H273301   1.015   2.431   5.020  0.8632  0.5227 -2.6762
17296TIP3   OH273302   7.151   0.413   3.623  0.2248  0.1287  0.3094
17296TIP3    H173303   7.210   0.431   3.696  1.0876 -2.5031  0.3231
17296TIP3    H273304   7.184   0.467   3.552  2.3098 -0.8655  0.4915
17297TIP3   OH273305   0.031   4.858   3.827 -0.5364  0.0821  0.3005
17297TIP3    H173306   0.056   4.868   3.735 -0.3117 -1.0974  0.2198
17297TIP3    H273307  -0.007   4.943   3.851 -1.9314 -0.0444 -1.3092
17298TIP3   OH273308   3.625   1.669   3.302 -0.8544  0.2927 -0.3187
17298TIP3    H173309   3.648   1.630   3.217  0.9945  2.2866 -0.7728
17298TIP3    H273310   3.668   1.614   3.366  1.7469  1.5185 -0.9540
17299TIP3   OH273311   6.759   0.207   4.749  0.2173 -0.1058 -0.0847
17299TIP3    H173312   6.851   0.231   4.757  0.3657 -0.5532 -0.4252
17299TIP3    H273313   6.757   0.114   4.772 -0.2198  0.0197  0.3888
17300TIP3   OH273314   0.494   1.275   0.275 -0.0195  0.4659  0.1300
17300TIP3    H173315   0.433   1.235   0.212  0.5722 -0.2380  0.0034
17300TIP3    H273316   0.512   1.361   0.238 -2.6394  1.5721  1.2659
17301TIP3   OH273317   1.772   3.642   1.231 -0.4115  0.1345  0.5862
17301TIP3    H173318   1.847   3.676   1.183 -1.0664  1.7948  0.7011
17301TIP3    H273319   1.725   3.720   1.260 -3.2456 -0.8319 -1.1693
17302TIP3   OH273320   6.922   6.363   4.111 -0.3053  0.3392 -0.2573
17302TIP3    H173321   6.871   6.337   4.187  0.0435  2.3004  0.6938
17302TIP3    H273322   7.002   6.311   4.116 -0.5839 -0.0261  0.3424
17303TIP3   OH273323   4.465   7.112   3.254 -0.5896 -0.0613  0.1029
17303TIP3    H173324   4.552   7.122   3.216 -0.9082 -0.8324 -0.8656
17303TIP3    H273325   4.480   7.069   3.338 -0.0118  0.0520  0.0600
17304TIP3   OH273326   5.132   5.914   5.378 -0.3905 -0.3114 -0.1301
17304TIP3    H173327   5.116   5.853   5.450  0.7979  0.0714  0.4746
17304TIP3    H273328   5.195   5.869   5.321  0.5029  0.3407  0.3266
17305TIP3   OH273329   3.369   0.984   0.969  0.1527 -0.4345  0.0943
17305TIP3    H173330   3.293   1.042   0.964  1.3433  1.1377 -0.2970
17305TIP3    H273331   3.421   1.020   1.041  1.1481 -0.7095 -0.4857
17306TIP3   OH273332   0.498   2.800   5.386  0.3565 -0.6531  0.2855
17306TIP3    H173333   0.523   2.891   5.370 -0.4353 -0.5665 -0.4708
17306TIP3    H273334   0.582   2.754   5.394  0.7635  0.0954  0.4364
17307TIP3   OH273335   5.206   0.821   3.486 -0.1026  0.2901 -0.1832
17307TIP3    H173336   5.130   0.778   3.447 -1.2224  2.2270 -0.1749
17307TIP3    H273337   5.199   0.801   3.580  0.4368 -1.0730 -0.4170
17308TIP3   OH273338   6.608   1.324   3.965 -0.8207  0.0440  0.5987
17308TIP3    H173339   6.513   1.336   3.974 -0.5901  0.8902  2.0538
17308TIP3    H273340   6.645   1.368   4.041  0.7671 -0.0261 -0.1131
17309TIP3   OH273341   5.425   0.916   5.385 -0.3950 -0.1199  0.3942
17309TIP3    H173342   5.440   0.845   5.323  1.5148  0.2642  0.3925
17309TIP3    H273343   5.423   0.995   5.331  0.2937  0.1144  0.7107
17310TIP3   OH273344   4.010   5.558   4.938 -0.5042 -0.2349  0.1635
17310TIP3    H173345   3.999   5.555   5.033 -1.9930  0.0152  0.0033
17310TIP3    H273346   4.088   5.613   4.925 -0.1883 -0.4142  1.2339
17311TIP3   OH273347   6.410   2.261   1.657  0.1431  1.3397 -0.2971
17311TIP3    H173348   6.437   2.349   1.682 -1.6617  0.9090  3.5174
17311TIP3    H273349   6.330   2.245   1.708  0.7896 -2.7372 -0.3866
17312TIP3   OH273350   6.186   0.157   5.360 -0.3000  0.4749 -0.0447
17312TIP3    H173351   6.184   0.213   5.438 -0.0483  0.1837  0.1737
17312TIP3    H273352   6.212   0.215   5.289 -1.0950  0.8745 -0.0245
17313TIP3   OH273353   0.537   3.565   3.942  0.2380  0.4766  0.5580
17313TIP3    H173354   0.548   3.593   4.033  2.3904  1.4238  0.0350
17313TIP3    H273355   0.464   3.617   3.909 -0.5966  0.0798  1.7475
17314TIP3   OH273356   0.674   4.223   5.918  0.5509  0.4822  0.0192
17314TIP3    H173357   0.613   4.185   5.982  0.4655  0.7958  0.1231
17314TIP3    H273358   0.681   4.156   5.850 -0.7388  0.8728 -0.5278
17315TIP3   OH273359   5.274   5.246   3.614 -0.2118  0.0081  0.0824
17315TIP3    H173360   5.294   5.163   3.658  0.1534 -0.0459 -0.1812
17315TIP3    H273361   5.243   5.303   3.684 -0.8929 -0.4950  0.1886
17316TIP3   OH273362   3.646   5.382   2.199  0.1233 -0.0020  0.0146
17316TIP3    H173363   3.694   5.411   2.122  0.1522  0.7015  0.2863
17316TIP3    H273364   3.596   5.306   2.170  0.5902 -0.0980 -0.5386
17317TIP3   OH273365   5.455   1.713   2.132 -0.0750 -0.5351 -0.0033
17317TIP3    H173366   5.383   1.686   2.075  1.0109 -0.5455 -1.4028
17317TIP3    H273367   5.423   1.697   2.221 -1.1062 -2.2469 -0.6692
17318TIP3   OH273368   6.355   0.829   6.052 -0.7924  0.3205  0.5116
17318TIP3    H173369   6.306   0.793   5.979 -2.5838 -0.8358  2.2208
17318TIP3    H273370   6.444   0.795   6.042 -1.3647 -0.9222 -0.3604
17319TIP3   OH273371   4.006   0.285   3.179 -0.3924 -0.0289 -0.7076
17319TIP3    H173372   4.067   0.240   3.121 -1.3194 -1.4186 -0.6426
17319TIP3    H273373   3.946   0.216   3.209  0.0099  0.6809  1.8332
17320TIP3   OH273374   6.957   4.248   5.350 -0.6810 -0.1075  0.4326
17320TIP3    H173375   7.020   4.193   5.396  0.5921 -0.6196 -1.8686
17320TIP3    H273376   6.956   4.330   5.399 -0.4150 -1.1183  2.1729
17321TIP3   OH273377   4.162   1.495   3.990  0.1041 -0.0901 -0.5629
17321TIP3    H173378   4.194   1.430   3.927 -0.1943  0.2546 -1.0676
17321TIP3    H273379   4.071   1.471   4.005  0.3879 -0.6489  0.3479
17322TIP3   OH273380   0.579   6.512   4.878  0.2612  0.1268 -0.2317
17322TIP3    H173381   0.664   6.517   4.833  0.1821  0.1201 -0.3838
17322TIP3    H273382   0.592   6.558   4.960  0.3243  0.3983 -0.3935
17323TIP3   OH273383   3.401   0.537   5.822  0.3230  0.5973  0.9764
17323TIP3    H173384   3.352   0.619   5.822 -0.1459  0.3189  0.1079
17323TIP3    H273385   3.337   0.470   5.797  1.3850  0.3936 -1.3504
17324TIP3   OH273386   6.173   0.138   2.757  0.0287 -0.4235 -0.1836
17324TIP3    H173387   6.140   0.049   2.761 -0.4310 -0.2117  0.7027
17324TIP3    H273388   6.268   0.128   2.767 -0.2000 -0.6625  1.9389
17325TIP3   OH273389   0.208   0.804   3.166 -0.5828  0.4273 -0.2175
17325TIP3    H173390   0.117   0.783   3.145 -0.3587 -0.4928 -0.2846
17325TIP3    H273391   0.209   0.817   3.261 -0.7945  0.5191 -0.2274
17326TIP3   OH273392   5.066   4.461   4.624  0.0506  0.0579 -0.0406
17326TIP3    H173393   5.087   4.425   4.538 -1.3569 -1.6765  0.3158
17326TIP3    H273394   4.985   4.510   4.610 -0.7399 -1.0865  0.5057
17327TIP3   OH273395   4.719   0.118   4.652  0.5153 -0.3770  0.1123
17327TIP3    H173396   4.686   0.186   4.595  1.2362 -0.4512 -0.3981
17327TIP3    H273397   4.702   0.150   4.741 -0.7157 -0.3253 -0.1386
17328TIP3   OH273398   4.435   2.863   1.231  0.7089  0.1371  0.6964
17328TIP3    H173399   4.459   2.909   1.312  0.4575  0.7495  0.4266
17328TIP3    H273400   4.370   2.798   1.258  1.6929 -0.6448  1.2195
17329TIP3   OH273401   4.505   0.708   5.242 -0.4543 -0.0339  0.2276
17329TIP3    H173402   4.581   0.751   5.282  0.0327 -0.2422 -0.4448
17329TIP3    H273403   4.460   0.778   5.194  0.0326 -0.1537 -0.4177
17330TIP3   OH273404   0.326   1.115   5.428 -0.3014  0.2263  0.3464
17330TIP3    H173405   0.241   1.134   5.468  0.3019  1.3801  1.0858
17330TIP3    H273406   0.366   1.050   5.485 -0.4122  0.1628  0.3519
17331TIP3   OH273407   2.737   0.357   5.072  0.5555 -0.4028  0.0314
17331TIP3    H173408   2.775   0.426   5.016 -0.9140 -1.1898 -2.0065
17331TIP3    H273409   2.667   0.402   5.120  0.6082 -0.1245 -0.1487
17332TIP3   OH273410   1.640   1.845   3.542  0.0823 -0.3074  0.1068
17332TIP3    H173411   1.718   1.854   3.487 -1.9308  3.7385 -2.3400
17332TIP3    H273412   1.579   1.795   3.489 -0.5526  0.3822  0.1835
17333TIP3   OH273413   5.997   3.197   5.283 -0.1779 -0.3907  0.1882
17333TIP3    H173414   5.965   3.285   5.299  0.6021  0.4363 -2.5332
17333TIP3    H273415   5.975   3.180   5.191  1.2779 -2.3263  0.1675
17334TIP3   OH273416   1.844   2.156   2.492  0.1577 -0.6369  0.1987
17334TIP3    H173417   1.840   2.233   2.435  1.9338 -0.6743  0.0079
17334TIP3    H273418   1.771   2.101   2.463 -0.2917  0.3547 -0.5652
17335TIP3   OH273419   2.819   1.130   4.429 -0.0167  0.2643 -0.1315
17335TIP3    H173420   2.741   1.103   4.381 -0.0836  1.5460 -0.7542
17335TIP3    H273421   2.859   1.197   4.375  0.7146  0.6716  0.8990
17336TIP3   OH273422   3.788   2.298   4.912  0.2815 -0.1571  0.1555
17336TIP3    H173423   3.752   2.350   4.984 -0.4667  0.1050 -0.3972
17336TIP3    H273424   3.867   2.258   4.948 -0.7836 -1.0711  1.5312
17337TIP3   OH273425   2.497   4.172   4.994  0.7790 -0.5057  0.2657
17337TIP3    H173426   2.455   4.160   5.079  1.2285  0.4834  0.6374
17337TIP3    H273427   2.511   4.267   4.987  0.4545 -0.5474 -1.0502
17338TIP3   OH273428   4.198   5.631   2.142 -0.0178 -0.0506  0.0778
17338TIP3    H173429   4.242   5.695   2.198 -1.2082  0.0887  0.8708
17338TIP3    H273430   4.173   5.681   2.065 -0.4700  0.3226  0.4612
17339TIP3   OH273431   6.612   0.662   2.258 -0.4389 -0.0806  0.4333
17339TIP3    H173432   6.592   0.755   2.243  0.3451 -0.1519 -1.1434
17339TIP3    H273433   6.590   0.648   2.350 -0.0176  1.8154  0.8551
17340TIP3   OH273434   4.750   6.744   5.198 -0.6408  0.0708  0.0839
17340TIP3    H173435   4.771   6.720   5.289  0.9663  1.7835  0.2111
17340TIP3    H273436   4.662   6.781   5.204  0.0867  1.7293  1.2911
17341TIP3   OH273437   5.573   2.487   3.945  0.5405  0.1956  0.1262
17341TIP3    H173438   5.574   2.507   3.851 -3.0980  1.0756  0.1713
17341TIP3    H273439   5.509   2.549   3.981  0.8706 -1.0545  2.9680
17342TIP3   OH273440   3.797   3.637   4.053  0.0006  0.0322 -0.1624
17342TIP3    H173441   3.889   3.663   4.060  0.6908 -2.3682  0.1827
17342TIP3    H273442   3.778   3.639   3.960  0.8313 -0.7937 -0.3607
17343TIP3   OH273443   1.451   5.920   4.644  0.0751  0.2539 -0.0212
17343TIP3    H173444   1.464   5.842   4.589  0.3284  1.3243 -1.4934
17343TIP3    H273445   1.507   5.904   4.721 -1.0012 -1.6778  0.3882
17344TIP3   OH273446   7.047   2.905   3.662 -0.5575 -0.2843  0.1919
17344TIP3    H173447   7.023   2.891   3.571  0.0397 -1.6815  0.2412
17344TIP3    H273448   7.142   2.911   3.662 -0.5761  0.0628  0.6739
17345TIP3   OH273449   1.035   1.376   3.143  0.3163 -0.1231  0.2518
17345TIP3    H173450   0.969   1.356   3.210  2.6552 -0.8628  2.3791
17345TIP3    H273451   1.025   1.306   3.079  0.3077 -1.3211  1.5447
17346TIP3   OH273452   4.563   3.172   4.012 -0.5445  0.0911 -1.0111
17346TIP3    H173453   4.569   3.162   3.917  0.5389  1.3082 -1.0846
17346TIP3    H273454   4.654   3.176   4.042 -0.8746  1.6655 -0.1510
17347TIP3   OH273455   3.737   6.841   2.451  0.2191  0.0142  0.1163
17347TIP3    H173456   3.713   6.759   2.494 -1.3363  0.2983 -0.2096
17347TIP3    H273457   3.823   6.863   2.488  0.1125 -1.1424  1.0680
17348TIP3   OH273458   0.346   0.063   4.838  0.1791  0.6260 -0.4156
17348TIP3    H173459   0.300   0.082   4.756 -0.7566  0.5314  0.0832
17348TIP3    H273460   0.436   0.042   4.811  0.0587  1.2981 -1.3522
17349TIP3   OH273461   7.099   4.272   3.352 -0.2277 -0.0790  0.2446
17349TIP3    H173462   7.028   4.308   3.406 -0.4088 -0.3418  0.1820
17349TIP3    H273463   7.082   4.178   3.349  1.1827 -0.4057  1.7781
17350TIP3   OH273464   1.554   0.452   1.222  0.1767 -0.0743  0.2960
17350TIP3    H173465   1.616   0.413   1.161 -0.6092 -1.5663  0.4232
17350TIP3    H273466   1.537   0.384   1.287 -2.4384 -0.1308 -0.3670
17351TIP3   OH273467   0.140   2.734   4.116  0.3215  0.2131  0.1894
17351TIP3    H173468   0.082   2.770   4.048  1.1165 -0.5621 -0.9151
17351TIP3    H273469   0.090   2.663   4.155 -0.4187  1.1187  0.9170
17352TIP3   OH273470   2.298   3.759   4.214  0.2454 -0.2178 -0.0262
17352TIP3    H173471   2.293   3.855   4.209  0.9227  0.0557  3.4761
17352TIP3    H273472   2.325   3.732   4.126 -1.7413  2.6512 -1.5967
17353TIP3   OH273473   0.489   3.285   4.268  0.3992 -0.5383 -0.4279
17353TIP3    H173474   0.450   3.365   4.234 -0.6489 -0.9738 -0.2864
17353TIP3    H273475   0.573   3.312   4.305  0.6055  0.2865 -1.4649
17354TIP3   OH273476   0.647   6.424   1.820 -0.0926 -0.0145  0.0300
17354TIP3    H173477   0.707   6.457   1.753  0.9914 -1.6268  0.1856
17354TIP3    H273478   0.563   6.462   1.797  0.7257  1.2589 -0.9397
17355TIP3   OH273479   1.236   3.552   2.761  0.4462 -0.0986  0.5993
17355TIP3    H173480   1.186   3.608   2.701 -0.7044 -1.0619  0.6350
17355TIP3    H273481   1.255   3.608   2.836  3.1709  1.5813 -1.2418
17356TIP3   OH273482   2.027   6.081   4.239 -0.2404 -0.6010 -0.2261
17356TIP3    H173483   1.947   6.036   4.266 -0.8276  1.0919  0.9732
17356TIP3    H273484   2.045   6.143   4.311  1.3215  0.0605 -1.1608
17357TIP3   OH273485   1.416   1.221   0.534  0.2616  0.1036 -0.3506
17357TIP3    H173486   1.506   1.237   0.505 -0.3879  2.4738 -1.1479
17357TIP3    H273487   1.402   1.128   0.516  2.1951 -0.0623 -1.1900
17358TIP3   OH273488   2.526   1.555   1.292 -0.4692  0.3602 -0.1197
17358TIP3    H173489   2.514   1.603   1.374  0.6698 -0.6569  0.6540
17358TIP3    H273490   2.605   1.591   1.253  0.1165 -0.5288  0.2221
17359TIP3   OH273491   1.684   5.152   3.083  0.2669  0.2122 -0.0964
17359TIP3    H173492   1.598   5.152   3.125 -0.1901 -1.0188 -0.9734
17359TIP3    H273493   1.700   5.243   3.061 -0.7971  0.4714  0.1588
17360TIP3   OH273494   3.067   0.825   4.656  0.7363 -0.1097  0.0639
17360TIP3    H173495   3.102   0.745   4.695 -1.1793 -1.0252 -0.0516
17360TIP3    H273496   3.044   0.881   4.730 -0.3790 -0.7394  0.1883
17361TIP3   OH273497   6.299   3.943   0.943  0.0251 -0.1378 -0.0999
17361TIP3    H173498   6.231   4.010   0.954  1.0510  0.6688  1.6670
17361TIP3    H273499   6.377   3.993   0.921  0.5529 -0.8610  0.1339
17362TIP3   OH273500   5.331   1.096   1.764  0.7242  0.0400 -0.5978
17362TIP3    H173501   5.347   1.191   1.765 -0.0211  0.1636  0.0079
17362TIP3    H273502   5.290   1.079   1.680 -1.0096  0.5811  0.1095
17363TIP3   OH273503   1.599   5.155   4.192  0.2418  0.4546 -0.7138
17363TIP3    H173504   1.528   5.121   4.137  0.3792 -0.1885 -0.5047
17363TIP3    H273505   1.570   5.242   4.218 -1.2690 -0.4457  0.7560
17364TIP3   OH273506   6.491   2.458   4.904  0.0617 -0.4005 -0.1379
17364TIP3    H173507   6.571   2.486   4.950  0.8560 -0.3523 -1.5177
17364TIP3    H273508   6.444   2.404   4.968  1.4393 -0.8250  0.5369
17365TIP3   OH273509   2.279   6.701   5.409  1.0625  0.3428 -0.6904
17365TIP3    H173510   2.236   6.656   5.481 -0.4499 -2.3134 -3.1765
17365TIP3    H273511   2.372   6.686   5.423  0.7350 -0.7944  0.3202
17366TIP3   OH273512   0.926   1.358   3.993  0.3348 -0.2629 -0.2385
17366TIP3    H173513   0.874   1.434   4.015 -2.3748 -1.7975 -1.0574
17366TIP3    H273514   0.994   1.391   3.934 -0.9338  1.4638 -0.7471
17367TIP3   OH273515   0.531   3.179   3.051  0.1181  0.1761 -0.0259
17367TIP3    H173516   0.522   3.271   3.025 -0.4188  0.3074  0.6242
17367TIP3    H273517   0.490   3.130   2.980  1.5237  0.3723 -0.9899
17368TIP3   OH273518   4.059   2.398   3.316 -0.9053 -0.5605 -0.4502
17368TIP3    H173519   4.045   2.461   3.386  0.3454 -0.2486 -0.4682
17368TIP3    H273520   4.066   2.313   3.361  0.8866 -0.2383 -0.0826
17369TIP3   OH273521   2.245   0.204   1.246 -0.1418  0.0374  0.0644
17369TIP3    H173522   2.327   0.237   1.282 -0.5227  0.1235  0.8576
17369TIP3    H273523   2.266   0.114   1.219  0.0060 -0.2181  1.0070
17370TIP3   OH273524   5.151   1.573   5.939 -0.0376 -0.5884 -0.0380
17370TIP3    H173525   5.233   1.542   5.979  1.1253  1.1861 -1.0030
17370TIP3    H273526   5.178   1.644   5.881 -1.9107 -1.9843 -2.6998
17371TIP3   OH273527   3.565   2.031   3.642 -0.1528 -0.2983 -0.3287
17371TIP3    H173528   3.632   2.087   3.681 -0.7043  1.2148 -1.5357
17371TIP3    H273529   3.482   2.066   3.674 -0.5188 -0.2627 -1.3086
17372TIP3   OH273530   3.734   2.173   4.692 -0.2780  0.1269 -0.2859
17372TIP3    H173531   3.751   2.244   4.754 -0.9719  0.3480 -0.3478
17372TIP3    H273532   3.647   2.191   4.657 -0.1285 -0.3126 -0.9008
17373TIP3   OH273533   6.620   5.696   4.540  0.5709 -0.3240 -0.1462
17373TIP3    H173534   6.531   5.720   4.566  0.8460 -0.9542  1.4421
17373TIP3    H273535   6.675   5.725   4.613  1.6172 -0.3616 -0.9033
17374TIP3   OH273536   1.601   3.137   4.479 -0.1991 -0.0677  0.8218
17374TIP3    H173537   1.520   3.177   4.446  0.6488  0.9498 -0.0717
17374TIP3    H273538   1.637   3.091   4.403  1.6747  2.1293  0.2932
17375TIP3   OH273539   3.611   6.997   4.088  0.1246  0.0427 -0.2753
17375TIP3    H173540   3.622   6.971   4.179  1.4210  0.9016 -0.1741
17375TIP3    H273541   3.522   6.969   4.065  0.4683 -1.8649  0.6766
17376TIP3   OH273542   0.250   0.602   4.737 -0.1757  0.4455  0.2206
17376TIP3    H173543   0.228   0.641   4.652 -2.2451  0.4130  0.7030
17376TIP3    H273544   0.325   0.652   4.768 -1.6810  2.9483  0.0256
17377TIP3   OH273545   5.310   3.549   4.646 -0.0164 -0.2755  0.0252
17377TIP3    H173546   5.260   3.572   4.568  1.3845 -0.8300 -1.0488
17377TIP3    H273547   5.385   3.499   4.614  1.8340  1.4592  1.4870
17378TIP3   OH273548   6.282   2.545   5.998  0.0480 -0.1796  0.5692
17378TIP3    H173549   6.328   2.507   5.923 -3.7068  1.0484 -2.5463
17378TIP3    H273550   6.223   2.476   6.027 -2.2162  0.9946 -1.0397
17379TIP3   OH273551   0.029   2.353   4.442 -0.1751  0.8765 -0.5407
17379TIP3    H173552  -0.047   2.325   4.390  2.1555 -3.4860 -1.8710
17379TIP3    H273553  -0.001   2.348   4.533 -1.9542  0.8388 -1.1048
17380TIP3   OH273554   5.842   0.893   5.971 -0.0962  0.5538 -0.3560
17380TIP3    H173555   5.859   0.799   5.970 -0.9909  0.3945 -2.2855
17380TIP3    H273556   5.822   0.913   6.063  4.0483 -0.3707  0.8360
17381TIP3   OH273557   4.745   0.560   4.083  0.4973 -0.6646  0.1688
17381TIP3    H173558   4.791   0.477   4.092  0.5749 -0.4905  1.4247
17381TIP3    H273559   4.762   0.587   3.993 -0.1403 -2.3643 -0.4779
17382TIP3   OH273560   3.092   4.008   2.313  0.3228  1.0644  0.0607
17382TIP3    H173561   3.186   4.026   2.322  0.2061  0.9953  1.5335
17382TIP3    H273562   3.071   4.036   2.224  1.9726  0.0580 -0.6882
17383TIP3   OH273563   5.616   6.910   2.902 -0.0763  0.2554 -0.4077
17383TIP3    H173564   5.535   6.907   2.954  0.9248  0.1959  1.2074
17383TIP3    H273565   5.588   6.890   2.813 -1.6083 -1.5163  0.4111
17384TIP3   OH273566   6.330   0.362   5.160  0.4551 -0.4848 -0.1340
17384TIP3    H173567   6.240   0.393   5.145  0.1322  0.3827  3.1492
17384TIP3    H273568   6.379   0.441   5.183  1.6904 -1.1910 -0.3035
17385TIP3   OH273569   3.598   0.792   2.372  0.2293  0.0206 -0.2420
17385TIP3    H173570   3.534   0.742   2.322  0.6934 -0.1698 -0.6481
17385TIP3    H273571   3.601   0.877   2.328 -0.2972  0.2908  0.2334
17386TIP3   OH273572   5.442   6.651   4.159  0.4012 -0.2231  0.6489
17386TIP3    H173573   5.478   6.563   4.161 -0.9987 -0.8856 -1.7138
17386TIP3    H273574   5.382   6.654   4.234  0.4155 -1.3090  0.7092
17387TIP3   OH273575   4.296   2.233   4.195 -0.4491 -0.2181  0.4571
17387TIP3    H173576   4.206   2.266   4.194 -0.6810 -0.7229  2.1693
17387TIP3    H273577   4.300   2.176   4.273  1.6831  0.7468  1.1020
17388TIP3   OH273578   5.908   1.300   2.092  0.2286  0.0242  0.4912
17388TIP3    H173579   5.826   1.346   2.109  0.3761  1.0295 -1.4113
17388TIP3    H273580   5.975   1.369   2.092  1.0614 -0.7573  1.8220
17389TIP3   OH273581   7.050   1.024   5.536  0.4096  0.4996 -0.1962
17389TIP3    H173582   7.070   1.006   5.444  3.0295  0.5695  0.3213
17389TIP3    H273583   6.988   0.956   5.561  2.0025 -1.3353 -1.1928
17390TIP3   OH273584   6.231   1.643   5.829 -0.0684  0.5837 -0.0195
17390TIP3    H173585   6.299   1.602   5.882 -0.9365  0.8161  1.2865
17390TIP3    H273586   6.189   1.571   5.783  0.3645  0.3228 -0.0040
17391TIP3   OH273587   4.929   5.739   0.366 -0.6368 -0.2757  0.0399
17391TIP3    H173588   4.979   5.752   0.446 -3.6486  1.2221  1.7445
17391TIP3    H273589   4.931   5.644   0.352  0.4950 -0.4785  1.4985
17392TIP3   OH273590   6.319   2.650   4.954 -0.2219  0.2435  0.3026
17392TIP3    H173591   6.411   2.644   4.932 -0.1306  0.5078  0.6065
17392TIP3    H273592   6.301   2.572   5.006 -0.0577  0.4218  0.6309
17393TIP3   OH273593   5.495   5.287   4.907 -0.0710  0.2313 -0.6072
17393TIP3    H173594   5.562   5.273   4.974 -0.0368  0.7625 -0.5222
17393TIP3    H273595   5.466   5.200   4.882 -0.2662  0.0378  0.2860
17394TIP3   OH273596   4.503   1.275   1.253  0.0711  0.0587  0.1408
17394TIP3    H173597   4.474   1.186   1.273 -1.4623  0.5112  0.0419
17394TIP3    H273598   4.564   1.297   1.323  0.5092 -1.0940  0.1231
17395TIP3   OH273599   3.850   1.084   2.470 -0.4821  0.3406 -0.1268
17395TIP3    H173600   3.849   1.052   2.561 -0.1565  0.2704 -0.1473
17395TIP3    H273601   3.905   1.162   2.473  0.7059 -0.4743 -0.5331
17396TIP3   OH273602   2.613   4.544   3.940  0.0083  0.6361 -0.5699
17396TIP3    H173603   2.704   4.557   3.913  0.3100 -0.7677 -0.2799
17396TIP3    H273604   2.599   4.608   4.009  1.1887 -0.0231  0.2956
17397TIP3   OH273605   4.923   0.441   5.508 -0.3220 -0.2618  0.1373
17397TIP3    H173606   4.863   0.406   5.442  0.3040  1.0911 -1.1922
17397TIP3    H273607   4.866   0.477   5.576 -1.0598  1.1091 -1.1637
17398TIP3   OH273608   3.110   5.928   2.777  0.0403  0.6002  0.2541
17398TIP3    H173609   3.104   5.866   2.705  0.0637 -0.3336  1.0411
17398TIP3    H273610   3.037   5.988   2.765 -1.0311 -0.6539  0.4802
17399TIP3   OH273611   3.961   6.513   4.641 -0.0033  0.1176 -0.7421
17399TIP3    H173612   4.048   6.539   4.671  0.2309 -1.4618 -0.0376
17399TIP3    H273613   3.927   6.591   4.597  1.2919  1.1273  0.0133
17400TIP3   OH273614   0.678   6.965   2.732  0.1335  0.1374 -0.0950
17400TIP3    H173615   0.684   7.037   2.794 -0.5038  0.1876 -0.0894
17400TIP3    H273616   0.584   6.951   2.720  0.2511 -0.0553 -0.8328
17401TIP3   OH273617   0.806   3.449   4.127  0.1604  0.1441 -0.3613
17401TIP3    H173618   0.802   3.376   4.065  0.1437 -1.0878  1.0587
17401TIP3    H273619   0.893   3.442   4.166  0.2752  1.0799 -0.4409
17402TIP3   OH273620   0.095   4.416   2.547  0.4468 -0.2675 -0.2563
17402TIP3    H173621   0.153   4.492   2.542  0.0195  0.0504 -0.4659
17402TIP3    H273622   0.028   4.433   2.481 -0.0845 -0.4532  0.2272
17403TIP3   OH273623   0.350   1.293   0.520 -0.2834 -0.0534 -1.2457
17403TIP3    H173624   0.391   1.320   0.602 -2.2094 -3.0396  0.8120
17403TIP3    H273625   0.423   1.278   0.461  1.1217  2.6363 -0.2675
17404TIP3   OH273626   6.455   6.345   4.483  0.1896 -0.3224 -0.0217
17404TIP3    H173627   6.483   6.426   4.526 -0.9060  0.3640 -0.5808
17404TIP3    H273628   6.390   6.374   4.419 -0.7723 -1.7414  0.3088
17405TIP3   OH273629   5.584   0.200   4.715  0.1755 -0.4025 -0.0137
17405TIP3    H173630   5.535   0.122   4.742 -0.6768 -0.3571 -1.3975
17405TIP3    H273631   5.639   0.170   4.643  3.3000 -0.7980  2.4242
17406TIP3   OH273632   5.992   5.007   5.608 -0.1775  0.4323  0.4417
17406TIP3    H173633   6.043   4.930   5.634 -0.8057  0.0668  0.5883
17406TIP3    H273634   5.927   5.017   5.677 -3.4598 -2.0236 -2.1382
17407TIP3   OH273635   5.706   3.034   0.393 -0.2966  0.0159 -0.1462
17407TIP3    H173636   5.770   3.101   0.369  1.4991 -1.6336 -0.0576
17407TIP3    H273637   5.665   3.008   0.311 -1.5406  1.7190 -0.0932
17408TIP3   OH273638   1.465   0.182   4.448 -0.0242 -0.4122  0.1343
17408TIP3    H173639   1.545   0.190   4.394  0.8532 -0.0164  1.4749
17408TIP3    H273640   1.394   0.197   4.386  0.9742  0.2376 -0.9017
17409TIP3   OH273641   3.938   1.552   1.984  0.4744 -0.2589 -0.1459
17409TIP3    H173642   3.976   1.518   2.065  0.6057 -1.4073 -0.6777
17409TIP3    H273643   3.905   1.639   2.007 -1.7727 -1.5751  1.7819
17410TIP3   OH273644   5.745   1.818   4.221  0.5277  0.0932 -0.2088
17410TIP3    H173645   5.829   1.862   4.232 -0.3021  1.7671 -0.5234
17410TIP3    H273646   5.679   1.887   4.227 -0.8596 -1.2073  0.1822
17411TIP3   OH273647   5.030   6.758   5.400 -0.3848 -0.3449  0.0145
17411TIP3    H173648   4.940   6.771   5.430  0.3591  2.9983  1.0266
17411TIP3    H273649   5.081   6.748   5.481  0.1342 -2.4341 -0.5577
17412TIP3   OH273650   1.635   3.907  15.438 -0.5000  0.5332 -0.2113
17412TIP3    H173651   1.556   3.853  15.431 -1.1216  1.1173  1.9471
17412TIP3    H273652   1.707   3.845  15.435 -1.1795 -0.3804  1.4962
17413TIP3   OH273653   5.067   3.104   4.373  0.4551 -0.1487 -0.2056
17413TIP3    H173654   5.095   3.105   4.282  3.6375 -0.5646  0.6930
17413TIP3    H273655   5.100   3.186   4.409  1.0190 -0.9121  1.0584
17414TIP3   OH273656   3.961   1.107   4.772 -0.2823 -0.0103  0.1481
17414TIP3    H173657   3.908   1.162   4.715  0.0087 -1.5205 -1.6281
17414TIP3    H273658   3.924   1.120   4.860 -2.1858  0.6148 -0.7261
17415TIP3   OH273659   3.199   6.149   2.490 -0.3034  0.1446  0.0181
17415TIP3    H173660   3.150   6.230   2.503  0.5712  0.9924 -1.7327
17415TIP3    H273661   3.133   6.083   2.474 -1.1671 -0.0153  3.7683
17416TIP3   OH273662   2.592   2.649   5.462  0.1735  0.0168 -1.3683
17416TIP3    H173663   2.570   2.573   5.409  0.0660  0.5426 -2.0858
17416TIP3    H273664   2.507   2.685   5.488  0.2217  0.0496 -1.2569
17417TIP3   OH273665   6.501   1.017   4.524 -0.1229  0.1956  0.5174
17417TIP3    H173666   6.519   0.946   4.462 -0.2254  0.9327 -0.3615
17417TIP3    H273667   6.587   1.055   4.543  0.0477 -0.7606  1.7248
17418TIP3   OH273668   4.100   2.690   4.031  0.2628 -0.3075 -0.2228
17418TIP3    H173669   4.020   2.736   4.055  1.6002  2.4083 -0.7613
17418TIP3    H273670   4.137   2.660   4.114 -1.3801 -1.7547  0.0085
17419TIP3   OH273671   7.162   0.654   4.303 -0.4978  0.5350 -0.1585
17419TIP3    H173672   7.074   0.619   4.296  0.5149 -1.5310 -4.2083
17419TIP3    H273673   7.167   0.722   4.235  0.4729  1.9564  1.2853
17420TIP3   OH273674   2.155   1.309   4.246  0.1418  0.7805 -0.0270
17420TIP3    H173675   2.106   1.320   4.165 -0.2711 -0.2834  0.0670
17420TIP3    H273676   2.151   1.215   4.264  0.1304  1.0224  1.2865
17421TIP3   OH273677   0.669   2.820  13.797 -0.1928  0.4550 -0.4396
17421TIP3    H173678   0.615   2.892  13.765  1.1493  2.1312  0.9612
17421TIP3    H273679   0.734   2.862  13.854 -0.0612 -1.9710  1.2913
17422TIP3   OH273680   4.045   3.376   3.096  0.7446  0.0555  0.2576
17422TIP3    H173681   4.137   3.374   3.121  0.5507  0.0089  0.9857
17422TIP3    H273682   4.006   3.301   3.141  0.6687 -0.8862 -1.3441
17423TIP3   OH273683   6.013   1.563   2.124  0.5454  0.3235 -0.3698
17423TIP3    H173684   6.090   1.606   2.162  1.1704 -1.2100  0.1138
17423TIP3    H273685   5.940   1.596   2.175  1.1502 -0.0607  0.7750
17424TIP3   OH273686   6.466   4.335   2.379  0.6613  0.2871  0.1729
17424TIP3    H173687   6.371   4.339   2.379  0.7018  1.7269  0.6770
17424TIP3    H273688   6.493   4.392   2.451  1.8582 -1.6705  1.3132
17425TIP3   OH273689   6.135   3.224   2.827  0.2784  0.3925 -0.0184
17425TIP3    H173690   6.079   3.156   2.790  0.4621  0.6062 -0.6989
17425TIP3    H273691   6.224   3.193   2.811  0.3602  0.4766  0.2677
17426TIP3   OH273692   0.672   3.428   5.443  0.6424 -0.1102 -0.1675
17426TIP3    H173693   0.638   3.439   5.532 -0.0464 -1.9426 -0.1871
17426TIP3    H273694   0.760   3.393   5.454  0.7312  0.0939 -0.2116
17427TIP3   OH273695   1.724   7.100   5.677 -0.2917  0.1846 -0.3806
17427TIP3    H173696   1.682   7.026   5.722  0.1285 -0.3688 -0.8991
17427TIP3    H273697   1.734   7.071   5.587  1.0236  0.4004 -0.3079
17428TIP3   OH273698   6.952   0.826   5.090  0.3970 -0.0617  0.2019
17428TIP3    H173699   6.929   0.826   4.997 -0.9952  1.1950  0.5284
17428TIP3    H273700   7.000   0.744   5.102 -1.3164 -1.3163 -1.1610
17429TIP3   OH273701   5.581   6.670   5.583 -0.1815  0.3922  0.1405
17429TIP3    H173702   5.653   6.607   5.590 -1.0163 -0.5418  0.4992
17429TIP3    H273703   5.515   6.637   5.644 -0.3231  2.0482  0.9173
17430TIP3   OH273704   0.329   2.219   4.569  0.3525 -0.7322 -0.5604
17430TIP3    H173705   0.337   2.258   4.656 -0.4660  0.4817 -1.0063
17430TIP3    H273706   0.395   2.264   4.516  0.2244 -0.8086 -0.7867
17431TIP3   OH273707   6.534   2.332   2.273 -0.6902  1.1969 -0.0948
17431TIP3    H173708   6.451   2.307   2.233 -0.6083  1.0006 -0.1431
17431TIP3    H273709   6.523   2.424   2.296 -0.8242  1.2424 -0.3458
17432TIP3   OH273710   6.281   1.092   5.463 -0.0635 -0.5345  0.7824
17432TIP3    H173711   6.269   1.023   5.397 -1.3572  1.9401 -1.6591
17432TIP3    H273712   6.372   1.119   5.454 -0.0759 -0.6162  0.4079
17433TIP3   OH273713   0.853   5.502   4.820  0.3288  0.2180 -0.6052
17433TIP3    H173714   0.852   5.466   4.732  0.9394  1.2932 -1.0622
17433TIP3    H273715   0.779   5.562   4.823 -0.3934 -0.6933 -0.0052
17434TIP3   OH273716   0.218   5.358   5.882 -0.1407  0.2055 -0.0818
17434TIP3    H173717   0.255   5.440   5.848  0.1850 -0.3307 -1.0495
17434TIP3    H273718   0.152   5.386   5.945  0.7408  1.2006  0.4242
17435TIP3   OH273719   4.715   4.914   0.416  0.1751 -0.5782  0.0365
17435TIP3    H173720   4.704   5.009   0.424 -1.0718 -0.6507 -0.6317
17435TIP3    H273721   4.758   4.902   0.332 -0.7523 -0.6680 -0.4275
17436TIP3   OH273722   5.774   5.339   5.075 -0.0526 -0.6725 -0.1515
17436TIP3    H173723   5.869   5.352   5.074 -0.2725  1.5874 -3.8017
17436TIP3    H273724   5.740   5.409   5.129  0.3036 -0.9696  0.4582
17437TIP3   OH273725   5.444   5.631   3.322 -0.2317 -0.2685  0.3057
17437TIP3    H173726   5.354   5.629   3.356 -0.4053 -0.6087 -0.1694
17437TIP3    H273727   5.496   5.667   3.394 -0.5715 -1.1349  0.9956
17438TIP3   OH273728   5.599   5.533   3.944  0.4013  0.1424 -0.0635
17438TIP3    H173729   5.520   5.587   3.945  0.3055  0.0039 -0.1334
17438TIP3    H273730   5.671   5.596   3.944  0.3088  0.2785  1.9291
17439TIP3   OH273731   2.650   3.363   4.723  0.3556  0.4207  0.1519
17439TIP3    H173732   2.586   3.296   4.749 -2.4643  1.9121 -2.7073
17439TIP3    H273733   2.699   3.322   4.651 -1.6504  1.5428 -1.8779
17440TIP3   OH273734   2.056   2.699   4.913  0.0828 -0.1319  0.2201
17440TIP3    H173735   2.057   2.788   4.946 -0.2289  0.3038 -0.9300
17440TIP3    H273736   2.137   2.660   4.947 -0.7749 -0.0597  2.4387
17441TIP3   OH273737   5.782   4.178   5.491 -0.0363  0.0905 -0.0793
17441TIP3    H173738   5.759   4.136   5.574 -0.7675 -0.5577 -0.6019
17441TIP3    H273739   5.835   4.254   5.517 -2.6529  1.5741  1.1854
17442TIP3   OH273740   4.545   2.046   4.169 -0.0573 -0.2093 -0.0912
17442TIP3    H173741   4.475   2.108   4.148 -1.4403 -0.6118  3.0440
17442TIP3    H273742   4.575   2.072   4.257  0.9519 -2.5187  0.2980
17443TIP3   OH273743   4.205   2.593   3.113  0.7908  0.6915 -0.0623
17443TIP3    H173744   4.136   2.541   3.154 -0.1768  3.5875  2.0821
17443TIP3    H273745   4.201   2.569   3.020 -2.8260  0.5353  0.0815
17444TIP3   OH273746   2.071   0.770   3.729 -0.5908  0.2743  0.8937
17444TIP3    H173747   2.007   0.816   3.674 -0.3972  1.0800  1.3403
17444TIP3    H273748   2.155   0.788   3.687 -0.8135 -2.1739 -0.6564
17445TIP3   OH273749   3.033   2.964   2.415 -0.1934  0.1724  0.5692
17445TIP3    H173750   3.051   3.046   2.369  1.3268 -1.1500 -1.2110
17445TIP3    H273751   2.938   2.953   2.407 -0.2914  1.2989  0.0568
17446TIP3   OH273752   4.320   3.304   3.908  0.3413  0.6048 -0.3267
17446TIP3    H173753   4.316   3.310   3.813  1.0940  0.1594 -0.3869
17446TIP3    H273754   4.373   3.227   3.925  0.4043  0.8167  0.4539
17447TIP3   OH273755   4.882   0.833   0.731  0.2326 -0.0610 -0.0655
17447TIP3    H173756   4.820   0.885   0.680 -0.9275  1.1566  2.4892
17447TIP3    H273757   4.967   0.850   0.690 -0.6500  0.8628 -1.5740
17448TIP3   OH273758   4.501   3.615   5.401 -0.3467 -0.3150  0.0170
17448TIP3    H173759   4.437   3.648   5.463 -1.7726 -2.7654 -0.1206
17448TIP3    H273760   4.569   3.575   5.455  0.0081  0.3685  0.0858
17449TIP3   OH273761   6.069   2.312   5.247 -0.6066  0.4931  0.2768
17449TIP3    H173762   6.036   2.344   5.331 -0.5306  0.7233  0.2205
17449TIP3    H273763   5.995   2.325   5.187  0.1585  2.6863 -0.2511
17450TIP3   OH273764   5.704   2.462   2.261  0.3340  0.2654  1.0684
17450TIP3    H173765   5.637   2.529   2.248 -0.7444 -0.4222  2.9972
17450TIP3    H273766   5.754   2.492   2.337  0.6046 -0.5196  1.2044
17451TIP3   OH273767   5.636   4.560   4.731 -0.1074  0.1966 -0.7283
17451TIP3    H173768   5.700   4.512   4.784  0.1845  1.5167  0.1512
17451TIP3    H273769   5.658   4.539   4.641  1.0932  0.0360 -0.4034
17452TIP3   OH273770   0.991   2.762   4.317 -0.2902  0.1099 -0.0630
17452TIP3    H173771   0.986   2.855   4.293 -2.2468 -0.2040 -1.0240
17452TIP3    H273772   1.027   2.720   4.239  1.3313  0.1407  0.6513
17453TIP3   OH273773   6.639   2.549   5.133 -0.1086  0.0127  0.4794
17453TIP3    H173774   6.570   2.523   5.194  0.1082 -0.0374  0.7054
17453TIP3    H273775   6.670   2.633   5.165  0.8395 -0.5786  1.1590
17454TIP3   OH273776   0.142   4.911   5.754 -0.1471  0.5761  0.2170
17454TIP3    H173777   0.151   4.908   5.659 -0.4026  0.8506  0.1831
17454TIP3    H273778   0.163   4.822   5.783  0.4056  0.6194 -0.0519
17455TIP3   OH273779   2.354   3.830   2.854 -0.1206 -0.6902 -0.2876
17455TIP3    H173780   2.289   3.838   2.925 -1.0441 -0.9217 -1.0884
17455TIP3    H273781   2.413   3.761   2.884  0.0320 -0.1614  0.6654
17456TIP3   OH273782   5.480   1.207   3.493  0.0269  0.3090  0.5804
17456TIP3    H173783   5.386   1.186   3.490  0.3909 -1.1905 -1.0290
17456TIP3    H273784   5.519   1.138   3.546  0.0956  1.5480  2.1912
17457TIP3   OH273785   1.601   2.002   2.138 -0.5584  0.7160  0.2315
17457TIP3    H173786   1.584   2.063   2.067  1.3058  1.4408  0.3845
17457TIP3    H273787   1.608   1.917   2.095  0.0193  1.0732 -0.3994
17458TIP3   OH273788   4.152   2.664   0.783  0.8518  0.3835 -0.2060
17458TIP3    H173789   4.058   2.683   0.782  0.1389 -2.8392 -0.5336
17458TIP3    H273790   4.189   2.728   0.722 -1.0937  1.7364 -0.0526
17459TIP3   OH273791   0.596   0.014   4.352  0.1181 -0.5229  0.0932
17459TIP3    H173792   0.533   0.021   4.280 -0.6136 -1.2473  0.6523
17459TIP3    H273793   0.590  -0.077   4.381  0.8884 -0.4090  0.6438
17460TIP3   OH273794   5.935   3.846   5.132  0.1835  0.8566 -0.1734
17460TIP3    H173795   6.001   3.785   5.164  1.5092  2.0261 -0.6768
17460TIP3    H273796   5.908   3.895   5.209 -0.7656 -0.2086  0.2014
17461TIP3   OH273797   2.911   1.285   4.227 -0.6036 -0.3210 -0.0290
17461TIP3    H173798   2.846   1.327   4.171 -0.9153 -0.5238  0.1805
17461TIP3    H273799   2.980   1.257   4.167 -0.0971  1.0244 -0.1097
17462TIP3   OH273800   0.622   4.668   3.102 -0.4185 -0.2149 -0.5628
17462TIP3    H173801   0.660   4.756   3.105  1.3411 -1.0144  2.2773
17462TIP3    H273802   0.533   4.679   3.135  0.0479  0.4145  0.5312
17463TIP3   OH273803   1.780   4.032   5.076 -0.9162  0.5590  0.3551
17463TIP3    H173804   1.768   4.114   5.124 -3.3307  1.1955 -1.2489
17463TIP3    H273805   1.852   4.051   5.015  2.1003 -0.2265  3.5447
17464TIP3   OH273806   0.443   3.352   5.003  0.1442  0.4818  0.4193
17464TIP3    H173807   0.362   3.369   4.954 -0.1934 -0.8560  0.5078
17464TIP3    H273808   0.429   3.395   5.087 -0.6571 -0.1225  0.6009
17465TIP3   OH273809   2.685   0.951   4.599 -0.0234  0.0017 -0.3727
17465TIP3    H173810   2.762   0.992   4.559 -0.1190 -0.2789 -0.8512
17465TIP3    H273811   2.696   0.857   4.581 -0.5741 -0.0182 -0.6184
17466TIP3   OH273812   5.116   1.938   5.054  0.3435  0.7441 -0.5383
17466TIP3    H173813   5.208   1.944   5.078  0.4986 -1.7328 -0.3074
17466TIP3    H273814   5.083   1.865   5.108 -1.3977  0.7146 -1.6194
17467TIP3   OH273815   3.616   3.369   4.005 -0.6603  0.1288 -0.8455
17467TIP3    H173816   3.665   3.356   4.086 -4.0685 -0.8188  1.1346
17467TIP3    H273817   3.611   3.464   3.995 -0.2525  0.2509  0.0478
17468TIP3   OH273818   1.304   2.305   5.161  0.0997  0.0559 -0.1650
17468TIP3    H173819   1.324   2.326   5.070 -0.8321  0.0474 -0.3798
17468TIP3    H273820   1.380   2.257   5.192  0.1076 -0.5855 -1.1634
17469TIP3   OH273821   4.055   3.693   4.053 -0.5585  0.0776 -0.3021
17469TIP3    H173822   4.079   3.751   3.981 -0.2595  1.7097  1.0824
17469TIP3    H273823   4.124   3.626   4.053  0.0245  0.6716 -0.8612
17470TIP3   OH273824   2.218   2.689   3.888  0.1189  0.1653 -0.5252
17470TIP3    H173825   2.244   2.598   3.899 -0.2296  0.3623  2.3087
17470TIP3    H273826   2.126   2.692   3.914 -0.8125  0.7928 -3.6427
17471TIP3   OH273827   4.708   6.862   1.287 -0.0873  0.5890 -0.6510
17471TIP3    H173828   4.798   6.874   1.257  0.1671  1.8773  0.5964
17471TIP3    H273829   4.658   6.928   1.238 -0.3599 -0.1080 -1.3239
17472TIP3   OH273830   7.104   2.139   2.623  0.7158  0.1698 -0.2624
17472TIP3    H173831   7.126   2.201   2.692  0.9541  0.3850 -0.5286
17472TIP3    H273832   7.179   2.142   2.563  0.4907  0.0215 -0.5547
17473TIP3   OH273833   7.078   2.183   3.248  0.1534 -0.3130  0.5690
17473TIP3    H173834   7.148   2.222   3.301  0.1200 -0.7681  0.9543
17473TIP3    H273835   7.006   2.247   3.253  0.5819  0.2204  0.0586
17474TIP3   OH273836   1.679   2.653   4.989 -0.2571 -0.3766  0.2861
17474TIP3    H173837   1.717   2.741   4.993 -1.6128  0.2507 -0.2080
17474TIP3    H273838   1.594   2.663   5.033 -1.1228 -1.0555 -1.2139
17475TIP3   OH273839   7.121   1.222   5.205 -0.1631  0.1671  0.6187
17475TIP3    H173840   7.150   1.131   5.201  0.7781  0.5174 -0.6918
17475TIP3    H273841   7.098   1.235   5.297 -1.1627 -1.6507  0.6608
17476TIP3   OH273842   4.684   2.222   0.634 -0.2733  0.2436  0.1764
17476TIP3    H173843   4.711   2.311   0.612 -1.8460  0.5113 -0.7211
17476TIP3    H273844   4.762   2.183   0.673  0.1065  2.3726  1.6481
17477TIP3   OH273845   7.151   2.217   4.061 -0.5974 -0.2585  0.3416
17477TIP3    H173846   7.241   2.242   4.042 -0.2058 -0.5710  1.7824
17477TIP3    H273847   7.142   2.227   4.156 -2.2675  0.3950  0.1353
17478TIP3   OH273848   1.712   7.007   5.398  0.0606 -0.2605 -0.2283
17478TIP3    H173849   1.685   7.092   5.362  1.1960  0.0230 -0.4268
17478TIP3    H273850   1.737   6.956   5.321  1.4060 -0.0396  0.0392
17479TIP3   OH273851   2.414   1.466   4.995  0.4519  0.1567  0.0273
17479TIP3    H173852   2.400   1.467   5.090  0.8916 -2.3125  0.1553
17479TIP3    H273853   2.403   1.374   4.970  2.1455  0.4633 -2.0366
17480TIP3   OH273854   7.135   4.687   4.049  0.2587  0.5483 -0.3310
17480TIP3    H173855   7.148   4.750   3.978 -0.1095  0.0982 -0.8087
17480TIP3    H273856   7.041   4.668   4.048  0.6449 -1.4728 -1.5003
17481TIP3   OH273857   6.607   1.804   1.406  0.2097 -0.6428 -0.2405
17481TIP3    H173858   6.523   1.794   1.360 -0.2657 -0.9248  0.6743
17481TIP3    H273859   6.582   1.825   1.496  1.1338  2.6383 -0.6771
17482TIP3   OH273860   3.125   3.056   3.558  0.0548 -0.7692 -0.5823
17482TIP3    H173861   3.075   3.017   3.486  0.8020 -3.3350  0.2327
17482TIP3    H273862   3.199   2.997   3.570  0.4327  0.1361  1.6779
17483TIP3   OH273863   1.607   4.450   4.745  0.6347  0.0025  0.1708
17483TIP3    H173864   1.584   4.426   4.655 -1.8384  1.0712  0.4544
17483TIP3    H273865   1.619   4.545   4.742  0.7001  0.0239  0.9270
17484TIP3   OH273866   0.898   2.491   4.375 -0.7777  0.0246  0.0550
17484TIP3    H173867   0.879   2.452   4.461  1.2862 -0.7908  0.1555
17484TIP3    H273868   0.878   2.584   4.387 -2.4361 -0.4052  0.8168
17485TIP3   OH273869   3.110   6.444   4.871 -0.4637  0.6172  0.0296
17485TIP3    H173870   3.075   6.457   4.783  2.2936 -0.6623 -1.3007
17485TIP3    H273871   3.078   6.357   4.896 -0.8883  0.7979  0.1166
17486TIP3   OH273872   0.322   3.662   4.474  0.4618  0.2957  0.5659
17486TIP3    H173873   0.278   3.720   4.537 -0.9922  0.2170 -0.3586
17486TIP3    H273874   0.251   3.616   4.430  1.4553  0.4501 -1.2411
17487TIP3   OH273875   6.582   4.090   4.964  1.2069 -0.1240  0.1455
17487TIP3    H173876   6.615   4.020   5.020  0.8855 -1.0717 -0.8358
17487TIP3    H273877   6.507   4.126   5.011  1.0516 -0.7870  0.4033
17488TIP3   OH273878   0.579   0.648   3.663 -0.3361 -0.4042  0.0844
17488TIP3    H173879   0.620   0.717   3.714  0.7030 -2.5505  2.2225
17488TIP3    H273880   0.490   0.642   3.697 -0.7024  0.4580 -0.7065
17489TIP3   OH273881   7.101   2.579   5.218 -0.4687 -0.1655 -0.0115
17489TIP3    H173882   7.146   2.663   5.226 -2.2989  0.9420 -1.0789
17489TIP3    H273883   7.051   2.570   5.300 -0.6127 -0.0095 -0.0824
17490TIP3   OH273884   6.240   2.201   4.756 -0.1617 -0.1973  0.6710
17490TIP3    H173885   6.217   2.277   4.702  1.4682 -0.7487 -0.8613
17490TIP3    H273886   6.238   2.127   4.695 -0.2193 -1.1499  1.8122
17491TIP3   OH273887   1.501   5.897   1.719 -0.1329  0.0318 -0.3456
17491TIP3    H173888   1.449   5.940   1.786 -0.2828  1.1505 -1.1699
17491TIP3    H273889   1.460   5.923   1.636  1.1969  0.2094 -0.9581
17492TIP3   OH273890   0.722   0.910   2.596  0.1742  0.3104  0.1632
17492TIP3    H173891   0.773   0.917   2.676  0.7441  0.8138 -0.2383
17492TIP3    H273892   0.708   1.001   2.568  3.1106  0.1094 -2.2484
17493TIP3   OH273893   1.225   6.949   4.350  0.2749 -0.3731 -0.3085
17493TIP3    H173894   1.255   6.861   4.372  1.1270  0.2133  0.9770
17493TIP3    H273895   1.303   6.994   4.318  0.1199  0.2668  0.1908
17494TIP3   OH273896   6.424   3.861   3.974 -0.4479  0.3395 -0.3995
17494TIP3    H173897   6.408   3.861   4.068  1.1541 -1.3925 -0.0916
17494TIP3    H273898   6.494   3.924   3.961 -2.4588  2.5538 -0.8099
17495TIP3   OH273899   6.807   5.941   2.685  0.0017 -0.2839 -0.2738
17495TIP3    H173900   6.748   5.868   2.707 -0.9408  0.6380  0.2999
17495TIP3    H273901   6.889   5.898   2.661 -0.0565 -1.5020  1.5360
17496TIP3   OH273902   1.052   3.396   2.906 -0.4035  0.1955 -0.1722
17496TIP3    H173903   1.117   3.404   2.836 -0.7780  0.0438 -0.5413
17496TIP3    H273904   0.981   3.345   2.866 -1.0140  0.8771  0.0435
17497TIP3   OH273905   0.455   3.839   3.694  0.0804  0.2367 -0.4175
17497TIP3    H173906   0.499   3.755   3.682  1.0524  0.5232  0.9333
17497TIP3    H273907   0.363   3.820   3.679  0.4454 -0.7795 -1.4698
17498TIP3   OH273908   1.324   3.898   3.847 -0.4016  0.4340  0.3338
17498TIP3    H173909   1.328   3.802   3.848 -2.2909  0.3293  1.5518
17498TIP3    H273910   1.260   3.919   3.779  0.2101  0.8640 -0.1223
17499TIP3   OH273911   4.929   2.866   3.351  0.2391  0.1623 -0.0247
17499TIP3    H173912   4.985   2.942   3.366 -2.6854  2.0806  1.6630
17499TIP3    H273913   4.929   2.819   3.434 -0.4800  0.0863 -0.0621
17500TIP3   OH273914   0.027   4.760   1.908 -0.2340 -0.2324 -0.0176
17500TIP3    H173915   0.069   4.836   1.949  0.2809 -1.0044  0.9336
17500TIP3    H273916   0.062   4.757   1.819  0.0641  0.3992  0.0794
17501TIP3   OH273917   0.593   1.620   5.781 -0.1867 -0.2003  0.1028
17501TIP3    H173918   0.628   1.685   5.842 -0.7901  1.9748 -1.8367
17501TIP3    H273919   0.640   1.539   5.803  1.1449  1.0620  2.0048
17502TIP3   OH273920   6.931   5.952   5.209  0.0130  0.0636  0.2994
17502TIP3    H173921   6.922   6.045   5.230 -1.0849  0.7791 -3.0370
17502TIP3    H273922   7.005   5.947   5.149 -1.5394 -0.8028 -1.6197
17503TIP3   OH273923   1.382   0.932   3.501 -0.0350  0.3214 -0.7723
17503TIP3    H173924   1.361   0.845   3.469 -1.2804  0.8301 -1.3453
17503TIP3    H273925   1.302   0.983   3.490  0.9048  1.7614 -1.1955
17504TIP3   OH273926   0.098   1.966   0.991  0.6336  0.4086  0.9785
17504TIP3    H173927   0.082   2.020   0.914 -1.4949 -0.5389  0.7386
17504TIP3    H273928   0.181   1.922   0.973 -0.7916 -1.2923 -1.6708
17505TIP3   OH273929   1.211   5.039   1.936  0.3120 -0.7752  0.1518
17505TIP3    H173930   1.247   5.096   1.868 -0.8459  1.5206  1.3797
17505TIP3    H273931   1.265   5.058   2.013 -1.0771 -0.1589  0.9872
17506TIP3   OH273932   1.820   2.525   4.193 -0.0809 -0.3366 -0.6088
17506TIP3    H173933   1.828   2.584   4.269  1.4661 -0.3230 -0.7719
17506TIP3    H273934   1.781   2.579   4.125 -0.9317 -0.1829 -0.0090
17507TIP3   OH273935   1.771   0.839   2.722  0.3962 -0.1717 -0.3656
17507TIP3    H173936   1.746   0.748   2.710  0.6285 -0.6521  2.5269
17507TIP3    H273937   1.866   0.838   2.731  0.7511  0.7533 -3.4161
17508TIP3   OH273938   6.881   3.389  15.031  0.3163  0.1733 -0.1770
17508TIP3    H173939   6.904   3.440  15.109  0.2417 -0.3768  0.2134
17508TIP3    H273940   6.866   3.454  14.962  2.9418  0.5540 -0.4195
17509TIP3   OH273941   3.555   1.472   4.450  0.4341  0.2189 -0.3705
17509TIP3    H173942   3.584   1.560   4.425 -1.1677  0.7684 -0.3657
17509TIP3    H273943   3.504   1.442   4.374 -0.3679 -0.0555  0.2686
17510TIP3   OH273944   4.985   3.063   2.955  0.0943  0.1193  0.0001
17510TIP3    H173945   5.045   3.040   3.026 -0.3696  1.1747  0.7420
17510TIP3    H273946   4.899   3.068   2.996 -0.3732 -0.4447 -0.8801
17511TIP3   OH273947   6.391   2.546   4.655 -0.1968  0.1761  0.1661
17511TIP3    H173948   6.460   2.485   4.682 -0.7611 -0.2400  0.6646
17511TIP3    H273949   6.336   2.496   4.594 -1.3356 -0.1798  1.4808
17512TIP3   OH273950   0.882   2.878   5.849  0.4045  0.9406  0.2711
17512TIP3    H173951   0.957   2.891   5.907  1.6036  0.9867 -1.2667
17512TIP3    H273952   0.886   2.786   5.825  0.8045  1.2652 -0.9341
17513TIP3   OH273953   1.877   0.914   4.468 -0.7368 -0.9309 -0.0598
17513TIP3    H173954   1.789   0.947   4.485 -0.9139 -0.6899 -1.3615
17513TIP3    H273955   1.934   0.969   4.520 -1.1868  0.3119 -0.8506
17514TIP3   OH273956   1.084   2.607   4.108 -0.0484  0.0598 -0.0288
17514TIP3    H173957   1.065   2.516   4.083 -2.1148  0.3772  0.3306
17514TIP3    H273958   1.153   2.599   4.174  0.4859 -1.1937 -0.7118
17515TIP3   OH273959   6.225   6.826   2.190  0.1490  0.3995  0.3208
17515TIP3    H173960   6.262   6.850   2.275  0.8727  0.9283 -0.1361
17515TIP3    H273961   6.217   6.731   2.194 -1.2883  0.5607  1.5608
17516TIP3   OH273962   1.062   3.143   5.918 -0.0783  0.8962  0.1146
17516TIP3    H173963   1.000   3.198   5.870 -0.1093 -0.5684 -1.5629
17516TIP3    H273964   1.035   3.151   6.009 -0.5531  3.0504 -0.1892
17517TIP3   OH273965   6.503   0.704   1.561  0.4113 -0.1409  0.0823
17517TIP3    H173966   6.456   0.625   1.585 -0.3559  0.4708  0.6135
17517TIP3    H273967   6.594   0.677   1.556  0.1002 -1.1702 -0.2340
17518TIP3   OH273968   0.207   2.705   0.202  0.1848 -0.2466  0.0104
17518TIP3    H173969   0.295   2.699   0.241  0.9739  1.6181 -1.4170
17518TIP3    H273970   0.197   2.622   0.154  0.2540 -1.4221  2.0018
17519TIP3   OH273971   4.909   4.998   6.227  0.0571 -0.1713  0.0709
17519TIP3    H173972   4.949   4.935   6.287  1.0882 -0.0275 -0.4407
17519TIP3    H273973   4.911   5.081   6.274 -0.9468 -0.4390  0.5963
17520TIP3   OH273974   2.094   1.668   5.592 -0.9281 -0.3602  0.1022
17520TIP3    H173975   2.073   1.662   5.685 -0.2647 -1.3123  0.2114
17520TIP3    H273976   2.170   1.610   5.581 -0.3844  0.5091 -0.8447
17521TIP3   OH273977   0.594   2.626   1.281 -0.3146 -0.3536  0.1383
17521TIP3    H173978   0.657   2.611   1.211  0.6745  0.0668  0.9298
17521TIP3    H273979   0.582   2.539   1.321 -1.3563 -0.7195 -0.9231
17522TIP3   OH273980   1.407   4.727   5.781 -1.0807 -0.5959 -0.2953
17522TIP3    H173981   1.326   4.777   5.775 -0.2581  0.7493 -0.3136
17522TIP3    H273982   1.476   4.792   5.791  0.0272 -1.7100 -0.4238
17523TIP3   OH273983   6.980   1.171   4.806  0.1231 -0.0820  0.5545
17523TIP3    H173984   6.900   1.204   4.846 -0.6130  0.4594 -1.3111
17523TIP3    H273985   7.045   1.239   4.822  0.2058 -0.4969  2.0197
17524TIP3   OH273986   1.475   3.043   2.932  0.0609 -0.3163  0.4182
17524TIP3    H173987   1.562   3.045   2.893 -1.0461 -1.3029 -2.2276
17524TIP3    H273988   1.484   2.986   3.009  1.9725  0.4731  0.7971
17525TIP3   OH273989   4.010   1.347   2.839 -0.2293  0.0514 -0.5573
17525TIP3    H173990   3.918   1.366   2.820 -0.5852  0.8068  1.7768
17525TIP3    H273991   4.044   1.429   2.875  0.8797 -0.7715  0.3043
17526TIP3   OH273992   6.187   6.582   3.067 -0.5479 -0.6105 -0.2580
17526TIP3    H173993   6.155   6.493   3.081 -0.3470 -0.9207 -1.6979
17526TIP3    H273994   6.255   6.572   3.000 -1.4293  0.7888 -1.3817
17527TIP3   OH273995   5.496   1.818   4.512  0.2518  0.2300 -0.0483
17527TIP3    H173996   5.515   1.881   4.442  1.4755  1.0449  1.0039
17527TIP3    H273997   5.411   1.847   4.547 -0.3281 -0.1322 -1.1371
17528TIP3   OH273998   5.940   6.078   0.485 -0.1543  0.5002  0.1283
17528TIP3    H173999   5.901   6.155   0.445 -1.8864 -0.2142  0.3921
17528TIP3    H274000   5.954   6.103   0.576 -1.0978  0.3869  0.3149
17529TIP3   OH274001   0.071   0.978   3.551 -0.0710  0.0289 -0.0116
17529TIP3    H174002   0.007   1.042   3.519 -1.6760 -1.5012  0.0627
17529TIP3    H274003   0.105   1.017   3.632 -1.4566  0.5309  0.3477
17530TIP3   OH274004   1.054   3.112   5.009 -0.3173  0.2382 -0.3368
17530TIP3    H174005   1.001   3.127   5.088  1.4573  0.3462  0.8706
17530TIP3    H274006   1.042   3.192   4.957 -2.0181 -0.1042 -0.5012
17531TIP3   OH274007   5.716   4.617   4.047 -0.2741  0.4048 -0.2766
17531TIP3    H174008   5.658   4.540   4.051  2.1376 -1.4045  0.7431
17531TIP3    H274009   5.710   4.646   3.956 -1.0551 -1.1060 -0.7289
17532TIP3   OH274010   4.902   5.170   4.869  0.3827 -0.3469  0.1157
17532TIP3    H174011   4.902   5.166   4.965  0.8346  0.7104  0.1658
17532TIP3    H274012   4.854   5.092   4.842 -1.8402  0.6004  1.2589
17533TIP3   OH274013   2.371   2.312   3.785 -0.1903 -0.1000  0.4503
17533TIP3    H174014   2.346   2.349   3.870  0.5933  1.7588 -0.0948
17533TIP3    H274015   2.290   2.273   3.752 -1.5196  2.5861  0.3393
17534TIP3   OH274016   0.168   1.926   5.014 -0.0965 -0.2033  0.2279
17534TIP3    H174017   0.206   1.843   5.043 -0.6810 -0.3507  0.5790
17534TIP3    H274018   0.160   1.978   5.094 -1.9640 -0.7112  0.3844
17535TIP3   OH274019   6.225   2.428   4.500  0.5357  0.0562  0.0156
17535TIP3    H174020   6.237   2.411   4.407  0.0979 -0.2995  0.0241
17535TIP3    H274021   6.131   2.417   4.515  1.0790 -3.5093  1.2356
17536TIP3   OH274022   2.777   4.235   1.410  0.0167  0.2266 -0.5109
17536TIP3    H174023   2.730   4.206   1.488 -0.9015  1.2098 -0.6875
17536TIP3    H274024   2.762   4.165   1.346 -0.7279  0.2628 -0.3807
17537TIP3   OH274025   2.388   2.826   5.594 -0.0200  0.0901 -0.6026
17537TIP3    H174026   2.353   2.755   5.541  1.1237 -0.8203 -0.1686
17537TIP3    H274027   2.313   2.885   5.609 -0.4021  0.2422 -2.9829
17538TIP3   OH274028   6.988   4.914   2.903 -0.4339 -0.6360  0.0433
17538TIP3    H174029   6.984   4.833   2.852 -0.9650 -0.4944 -0.1444
17538TIP3    H274030   6.950   4.891   2.988  1.5343 -1.1812  0.8020
17539TIP3   OH274031   2.026   3.663   5.895  0.4403  0.0086 -0.4524
17539TIP3    H174032   2.028   3.571   5.922  0.6186  0.3269  0.6605
17539TIP3    H274033   2.099   3.703   5.943  1.0611  0.5048 -1.7840
17540TIP3   OH274034   7.014   3.074   4.051 -0.3492  0.3681 -0.2216
17540TIP3    H174035   7.085   3.069   3.988 -0.5944  0.4215 -0.5029
17540TIP3    H274036   7.057   3.088   4.135 -0.1074  2.1063 -0.6287
17541TIP3   OH274037   3.169   1.294   4.979 -0.8629 -0.1138  0.4784
17541TIP3    H174038   3.258   1.305   4.946 -1.2473 -0.6453 -0.7379
17541TIP3    H274039   3.123   1.374   4.952 -0.7815  0.1248  1.0361
17542TIP3   OH274040   0.489   6.044   4.646 -0.7232  0.5639  0.0531
17542TIP3    H174041   0.528   6.009   4.726 -0.9117  1.0523  0.3609
17542TIP3    H274042   0.449   6.126   4.673 -1.0399  0.5877 -0.4867
17543TIP3   OH274043   3.918   3.801   4.625 -0.2010 -0.0826 -0.3992
17543TIP3    H174044   4.007   3.767   4.623 -0.0947  0.1983 -0.3981
17543TIP3    H274045   3.922   3.883   4.576 -0.6186 -0.4440 -1.0506
17544TIP3   OH274046   1.828   3.812   5.580 -0.1149  0.1298  0.4337
17544TIP3    H174047   1.840   3.728   5.625  2.8427  1.0246  1.3929
17544TIP3    H274048   1.849   3.793   5.488 -1.2077 -0.5586  0.3150
17545TIP3   OH274049   4.396   6.350   4.407  0.0619 -0.1070  0.0871
17545TIP3    H174050   4.339   6.376   4.479 -0.8506  0.2615 -0.7587
17545TIP3    H274051   4.455   6.425   4.395  0.5179 -0.3572  0.7503
17546TIP3   OH274052   5.136   6.170   4.741  0.1269  0.3122 -0.1983
17546TIP3    H174053   5.110   6.204   4.655 -0.8273  1.1752  0.4278
17546TIP3    H274054   5.134   6.075   4.731  0.1200  0.4131 -1.1674
17547TIP3   OH274055   6.320   1.898   4.366 -0.2433  0.2576 -0.1040
17547TIP3    H174056   6.284   1.985   4.347 -2.0906 -0.3059  0.7120
17547TIP3    H274057   6.304   1.885   4.459 -2.9775 -2.2453 -0.8256
17548TIP3   OH274058   0.054   0.670   4.949 -0.1951  0.0287  0.0228
17548TIP3    H174059   0.050   0.717   4.866 -1.4473 -0.6248 -0.3140
17548TIP3    H274060  -0.012   0.601   4.940  1.7626 -1.9392  0.4019
17549TIP3   OH274061   4.976   1.306   4.501 -0.0554 -0.3621 -0.3315
17549TIP3    H174062   4.954   1.353   4.581 -0.2387 -0.0581 -0.5601
17549TIP3    H274063   4.913   1.338   4.436 -0.4064 -1.1756 -0.4028
17550TIP3   OH274064   6.313   3.585   3.990  0.0883  0.0937  0.8872
17550TIP3    H174065   6.224   3.617   4.004  0.1817 -0.0582  1.9080
17550TIP3    H274066   6.351   3.646   3.927  0.0345  1.5732  2.2494
17551TIP3   OH274067   1.244   1.505   5.375 -0.2393 -0.4734 -0.2636
17551TIP3    H174068   1.257   1.590   5.417 -0.3320  0.3366 -1.8427
17551TIP3    H274069   1.215   1.448   5.446 -0.2367  0.8223  0.8089
17552TIP3   OH274070   7.085   4.309   4.865 -0.1928 -0.0976  0.0497
17552TIP3    H174071   7.092   4.376   4.932  0.4753 -0.1301  0.0178
17552TIP3    H274072   7.152   4.244   4.888 -1.0265 -0.9007  0.2496
17553TIP3   OH274073   4.679   5.721   5.475 -0.0365  0.3151  0.5495
17553TIP3    H174074   4.690   5.783   5.403  0.9106 -0.2486  0.2068
17553TIP3    H274075   4.754   5.662   5.468  0.5885  0.8432  2.6057
17554TIP3   OH274076   3.448   2.805   0.947 -0.2264  0.2288  0.9076
17554TIP3    H174077   3.515   2.809   0.879  1.7853  0.7918  2.8395
17554TIP3    H274078   3.379   2.863   0.916 -0.8091 -2.0257 -2.1245
17555TIP3   OH274079   6.260   2.167   4.323 -0.0215  0.6132 -0.3231
17555TIP3    H174080   6.281   2.248   4.276  0.1067  0.2068 -0.9786
17555TIP3    H274081   6.175   2.183   4.362  1.0496  1.9374  1.5556
17556TIP3   OH274082   2.917   2.999   4.664 -0.3642  0.3836  0.0720
17556TIP3    H174083   2.865   3.034   4.736 -0.9966 -0.9484  0.2837
17556TIP3    H274084   3.008   3.005   4.695 -0.3863  2.6386 -0.2764
17557TIP3   OH274085   6.012   0.634   0.691  0.0198 -0.6289  0.7772
17557TIP3    H174086   6.055   0.550   0.707 -1.4137 -1.9878 -2.1958
17557TIP3    H274087   5.918   0.614   0.696 -0.3376  0.8086  0.0385
17558TIP3   OH274088   6.406   3.421   2.822 -0.1769 -0.4338  0.6801
17558TIP3    H174089   6.327   3.461   2.784 -0.0259 -0.1461  0.6759
17558TIP3    H274090   6.401   3.329   2.793 -0.1714 -0.2658  0.1379
17559TIP3   OH274091   1.477   2.966   3.184 -0.5128 -0.5686  0.3967
17559TIP3    H174092   1.497   3.030   3.252 -0.6421  0.2306 -0.3059
17559TIP3    H274093   1.509   2.883   3.218 -1.5444 -0.3653  1.8987
17560TIP3   OH274094   3.975   2.967   3.765 -0.2326 -0.3235 -0.2623
17560TIP3    H174095   3.937   3.022   3.696  0.6814 -0.5498 -0.9543
17560TIP3    H274096   4.041   3.023   3.807  0.2407 -0.6712 -0.5396
17561TIP3   OH274097   1.020   4.666   1.950 -0.4623  0.0069 -0.0040
17561TIP3    H174098   1.088   4.644   1.887 -0.0447 -0.5948  0.6450
17561TIP3    H274099   1.060   4.649   2.035 -0.6744  1.7644  0.4722
17562TIP3   OH274100   1.958   2.123   3.461 -0.5164 -0.3024  0.2546
17562TIP3    H174101   1.923   2.077   3.385 -0.2519  1.3168 -0.8647
17562TIP3    H274102   1.886   2.179   3.490  0.1314  0.8237 -0.2490
17563TIP3   OH274103   0.057   5.673   4.481 -0.4400 -0.0312  0.5724
17563TIP3    H174104   0.036   5.610   4.549  0.0573  0.5801  1.2963
17563TIP3    H274105   0.134   5.719   4.513 -0.2110  0.2770 -0.3903
17564TIP3   OH274106   2.771   0.287   0.428  0.5951 -0.1648 -1.0467
17564TIP3    H174107   2.693   0.342   0.440 -0.3202 -1.4228 -1.1671
17564TIP3    H274108   2.839   0.330   0.481 -0.4328  0.4010 -0.1644
17565TIP3   OH274109   6.623   6.259   5.731 -0.8350  0.6715 -0.0975
17565TIP3    H174110   6.568   6.319   5.679 -1.7215 -1.2300 -1.4382
17565TIP3    H274111   6.585   6.172   5.714 -0.0317 -0.1965  2.3730
17566TIP3   OH274112   7.106   1.570   1.755 -0.7868 -0.6093 -0.3202
17566TIP3    H174113   7.140   1.600   1.840  1.0099  0.2351 -1.3206
17566TIP3    H274114   7.042   1.637   1.730 -0.6832 -0.4052 -0.0407
17567TIP3   OH274115   1.173   4.771   5.617  0.5650 -1.0564 -0.2169
17567TIP3    H174116   1.252   4.725   5.589  0.9130 -0.6211  0.0378
17567TIP3    H274117   1.164   4.843   5.556  0.6438 -0.8160  0.0535
17568TIP3   OH274118   6.554   5.287   5.496  0.3886  0.1071 -0.3281
17568TIP3    H174119   6.633   5.295   5.442  0.6787 -0.7477 -0.0329
17568TIP3    H274120   6.585   5.254   5.580 -0.2763 -0.1984 -0.1993
17569TIP3   OH274121   3.024   5.747   4.682  0.3703 -0.1729 -0.1747
17569TIP3    H174122   3.054   5.702   4.761 -1.0341  1.6189  1.4303
17569TIP3    H274123   2.935   5.714   4.668  0.3141  0.1234 -0.5158
17570TIP3   OH274124   2.433   4.266   5.304 -0.2133 -0.4725 -0.2342
17570TIP3    H174125   2.434   4.258   5.400 -1.8350  0.2397 -0.1320
17570TIP3    H274126   2.432   4.175   5.273 -1.6799 -0.7279  0.4915
17571TIP3   OH274127   0.265   4.795  15.415  0.3677  1.1076 -0.3782
17571TIP3    H174128   0.227   4.873  15.374 -0.7834  0.3455 -0.7583
17571TIP3    H274129   0.191   4.750  15.454  0.8840 -0.3386 -1.0406
17572TIP3   OH274130   1.669   6.107   3.500 -0.6153 -0.1541 -0.4934
17572TIP3    H174131   1.689   6.112   3.406 -0.4720 -0.3361 -0.4738
17572TIP3    H274132   1.705   6.188   3.537  0.0393 -0.4503 -0.4668
17573TIP3   OH274133   0.459   3.778   5.675  0.0313 -0.0675 -0.1010
17573TIP3    H174134   0.438   3.730   5.756  0.6784  0.2219  0.2482
17573TIP3    H274135   0.539   3.827   5.697  0.3696 -0.2046 -1.0002
17574TIP3   OH274136   1.440   4.971   3.770  0.7881 -0.2441  0.2432
17574TIP3    H174137   1.482   5.057   3.771  0.4664 -0.0873  0.5846
17574TIP3    H274138   1.511   4.909   3.788  0.5629  0.1767  2.7553
17575TIP3   OH274139   3.460   1.592   4.092  0.1845 -0.3386 -0.1982
17575TIP3    H174140   3.542   1.591   4.042 -0.2932 -0.0196 -0.9979
17575TIP3    H274141   3.471   1.664   4.154  1.4820 -1.8458  1.3625
17576TIP3   OH274142   5.119   5.643  14.570  0.0017  0.5767  0.6997
17576TIP3    H174143   5.026   5.628  14.557  0.1445 -0.9129  1.2479
17576TIP3    H274144   5.162   5.596  14.499  0.4239 -0.8446  1.8599
17577TIP3   OH274145   0.712   2.258   4.742 -0.2885 -0.0222 -0.3501
17577TIP3    H174146   0.698   2.166   4.718 -1.0252 -0.1382  0.4758
17577TIP3    H274147   0.756   2.254   4.827 -1.4873  0.3900  0.2985
17578TIP3   OH274148   6.201   3.921   0.454  0.3571 -0.0223  0.0691
17578TIP3    H174149   6.170   3.880   0.534 -0.8623  1.8706  0.6027
17578TIP3    H274150   6.137   3.894   0.387  0.3196 -0.0995  0.1361
17579TIP3   OH274151   1.270   3.559   5.329  0.3683  0.3873  0.2723
17579TIP3    H174152   1.300   3.635   5.380  1.6845 -0.6425  1.0714
17579TIP3    H274153   1.235   3.499   5.394 -0.9317  0.4171 -0.3913
17580TIP3   OH274154   0.507   2.620   5.676 -0.5022  0.5876  0.0998
17580TIP3    H174155   0.531   2.529   5.693 -3.0350 -0.1735 -0.2859
17580TIP3    H274156   0.591   2.664   5.659  0.7183 -1.7244 -0.0193
17581TIP3   OH274157   2.491   2.667   2.090  0.0860 -0.2301  0.3248
17581TIP3    H174158   2.572   2.716   2.076 -0.5799  0.7447 -0.2531
17581TIP3    H274159   2.494   2.596   2.026 -0.6242  1.2492 -1.3892
17582TIP3   OH274160   0.712   5.454   3.524  0.0749  0.4517 -0.0367
17582TIP3    H174161   0.762   5.536   3.513  0.3668  0.4776  1.3649
17582TIP3    H274162   0.687   5.429   3.435  1.5417  1.1047 -0.6502
17583TIP3   OH274163   6.896   3.831   4.604  0.1893 -0.5462  0.2341
17583TIP3    H174164   6.848   3.914   4.606  0.6902 -0.2290 -0.8328
17583TIP3    H274165   6.986   3.854   4.626  0.6281 -0.5844 -1.4589
17584TIP3   OH274166   2.796   3.768   4.001 -0.1502  0.4293 -0.5445
17584TIP3    H174167   2.822   3.699   4.062  0.8633 -0.3702 -1.8480
17584TIP3    H274168   2.713   3.738   3.965 -0.6572  0.8138  0.2964
17585TIP3   OH274169   0.643   3.003   5.044  0.0474 -0.0902  0.2565
17585TIP3    H174170   0.548   2.990   5.043 -0.2416  1.8570  0.1771
17585TIP3    H274171   0.669   2.996   4.952 -0.0734 -0.3258  0.2409
17586TIP3   OH274172   0.425   5.363   5.073 -0.1208  0.1039 -0.7060
17586TIP3    H174173   0.421   5.418   5.152 -0.0868  0.0293 -0.6533
17586TIP3    H274174   0.519   5.356   5.053 -0.1664  0.8141 -1.2319
17587TIP3   OH274175   2.367   2.707   2.741 -0.0634 -0.0625 -0.0746
17587TIP3    H174176   2.385   2.621   2.778  0.4087 -0.2774 -0.7933
17587TIP3    H274177   2.442   2.761   2.766 -0.9106  0.4689  1.3758
17588TIP3   OH274178   4.082   6.465   3.038  0.3632  0.2538  0.0014
17588TIP3    H174179   4.127   6.425   3.112 -0.8188 -1.8122 -0.3432
17588TIP3    H274180   4.136   6.442   2.962 -0.8622 -1.6545 -0.3276
17589TIP3   OH274181   2.335   0.719   5.705  0.5083  0.0312  0.0674
17589TIP3    H174182   2.408   0.744   5.761  0.5312  1.8776 -0.7430
17589TIP3    H274183   2.258   0.726   5.761  0.4241  2.7561 -0.3224
17590TIP3   OH274184   5.676   5.728   4.924  0.0096  0.1654  0.0399
17590TIP3    H174185   5.599   5.700   4.975 -0.1645 -1.4775 -1.0948
17590TIP3    H274186   5.745   5.739   4.990 -0.8207  0.3030  0.9040
17591TIP3   OH274187   5.125   0.730   4.747 -0.6771  0.3533 -0.3347
17591TIP3    H174188   5.207   0.747   4.700  0.2854 -1.8925  0.4605
17591TIP3    H274189   5.105   0.812   4.792 -0.1348  1.6599 -2.4237
17592TIP3   OH274190   5.034   5.910   2.872  0.5105  0.2916 -0.2272
17592TIP3    H174191   5.010   5.963   2.947 -0.4363  1.0825 -1.0882
17592TIP3    H274192   4.960   5.915   2.813 -1.0025 -4.4882  0.9783
17593TIP3   OH274193   0.359   6.022  14.672 -0.2481 -0.3715 -0.1755
17593TIP3    H174194   0.354   5.943  14.726  0.0702  0.0612  0.4865
17593TIP3    H274195   0.280   6.019  14.618 -0.6868 -0.6886  0.4782
17594TIP3   OH274196   1.994   2.800   4.642 -0.0445 -0.1715  0.2762
17594TIP3    H174197   2.041   2.765   4.718  1.2036 -0.4572 -0.6036
17594TIP3    H274198   1.989   2.894   4.657 -0.8793 -0.3739  1.2912
17595TIP3   OH274199   6.165   4.617   5.465  0.6156 -0.0010 -0.4960
17595TIP3    H174200   6.217   4.685   5.507 -0.2632 -0.5652  1.5665
17595TIP3    H274201   6.079   4.622   5.508 -0.2413 -0.7481 -2.0729
17596TIP3   OH274202   6.336   1.550   4.035  0.1041  0.1245 -0.0330
17596TIP3    H174203   6.257   1.594   4.068  0.3457  0.4421  0.1239
17596TIP3    H274204   6.395   1.622   4.013  0.7555 -0.1380  0.8419
17597TIP3   OH274205   0.199   3.471   3.511  0.1880 -0.4135 -0.1160
17597TIP3    H174206   0.207   3.396   3.570 -1.1036 -1.1983 -0.9058
17597TIP3    H274207   0.239   3.441   3.429 -0.6117 -0.3610 -0.5319
17598TIP3   OH274208   4.762   2.364   3.953  0.0004 -0.2171  0.0940
17598TIP3    H174209   4.694   2.298   3.940  0.3592 -0.2341 -1.8604
17598TIP3    H274210   4.730   2.418   4.025 -1.9014 -0.4693 -0.5329
17599TIP3   OH274211   0.057   6.001   5.286  0.3003  0.1045 -0.4838
17599TIP3    H174212   0.020   6.089   5.299  0.2761 -0.2057  1.7380
17599TIP3    H274213   0.132   5.998   5.346 -1.8984 -2.6909  2.2881
17600TIP3   OH274214   2.708   2.039   3.221 -0.1427  0.4756 -0.1986
17600TIP3    H174215   2.797   2.069   3.204 -0.2313  0.3365 -0.9345
17600TIP3    H274216   2.677   2.006   3.136  0.2859 -2.6023  0.7840
17601TIP3   OH274217   2.271   2.657   3.362  0.6367  0.0792  0.2051
17601TIP3    H174218   2.178   2.640   3.377  0.6063 -0.6308 -0.7309
17601TIP3    H274219   2.314   2.573   3.377  0.8217 -0.2037 -1.6971
17602TIP3   OH274220   1.135   5.854   2.564  0.8669  0.0459 -0.3199
17602TIP3    H174221   1.223   5.834   2.596  0.9280  1.0030  0.1350
17602TIP3    H274222   1.143   5.855   2.469  1.0732 -1.1082 -0.3154
17603TIP3   OH274223   6.062   1.625   4.409  0.2421  0.1576  0.2454
17603TIP3    H174224   6.143   1.618   4.460 -0.6958 -0.1385  1.7098
17603TIP3    H274225   6.002   1.564   4.452 -0.7081  0.2579 -0.9436
17604TIP3   OH274226   2.634   2.964   5.564  0.0215  0.3713  0.1525
17604TIP3    H174227   2.661   2.971   5.656 -1.1894 -1.7947  0.7090
17604TIP3    H274228   2.571   2.891   5.563  1.1072 -0.5739 -2.6488
17605TIP3   OH274229   6.694   5.388   4.592 -0.5722 -0.2996  0.2447
17605TIP3    H174230   6.744   5.466   4.569  0.5842 -1.1165 -0.0863
17605TIP3    H274231   6.609   5.421   4.621  0.1498  1.1127  0.7945
17606TIP3   OH274232   2.841   0.303   3.389 -0.3708 -0.5112 -0.2607
17606TIP3    H174233   2.832   0.379   3.447 -1.2320 -0.3301 -0.6319
17606TIP3    H274234   2.933   0.305   3.361 -0.6727  1.0573 -1.1859
17607TIP3   OH274235   2.643   1.076   5.520  0.6321  0.2107 -0.4770
17607TIP3    H174236   2.583   1.098   5.592  1.0450 -1.5728  0.4306
17607TIP3    H274237   2.671   1.161   5.486 -1.6948  1.0727 -0.3318
17608TIP3   OH274238   4.050   1.598   2.936 -0.0897 -0.1794  0.0872
17608TIP3    H174239   3.985   1.639   2.879  0.3201 -1.4722 -1.3530
17608TIP3    H274240   4.133   1.610   2.890  0.6201  0.9526  1.6346
17609TIP3   OH274241   1.245   2.796   5.488  0.6151  0.4987 -0.1975
17609TIP3    H174242   1.196   2.748   5.421  0.6254 -0.9819  0.8219
17609TIP3    H274243   1.226   2.748   5.569  0.9591  1.9927  0.7836
17610TIP3   OH274244   1.151   2.873   5.912 -0.3199 -0.8373 -0.2396
17610TIP3    H174245   1.151   2.967   5.931  0.2082 -0.9205  0.1808
17610TIP3    H274246   1.224   2.838   5.963  0.0220 -1.3426 -1.0690
17611TIP3   OH274247   1.308   0.558   3.597 -0.2561 -0.3989  0.2141
17611TIP3    H174248   1.261   0.481   3.566 -0.6284  0.1699 -0.6932
17611TIP3    H274249   1.239   0.619   3.622 -0.1381  1.2194 -3.0232
17612TIP3   OH274250   6.034   2.615   2.987  0.4506  0.4590  0.6292
17612TIP3    H174251   5.957   2.574   3.026  0.5644 -0.7602 -0.3982
17612TIP3    H274252   6.004   2.700   2.955 -0.7470 -0.5103 -0.8418
17613TIP3   OH274253   0.398   1.277   5.073  0.0571 -0.3393  0.0574
17613TIP3    H174254   0.486   1.267   5.111  0.1350 -0.2212 -0.0910
17613TIP3    H274255   0.360   1.189   5.079 -0.8017  0.1651  2.4996
17614TIP3   OH274256   0.621   4.760   5.194  0.1127  0.5010 -0.0644
17614TIP3    H174257   0.647   4.792   5.108 -2.1942  1.4554 -0.4420
17614TIP3    H274258   0.630   4.665   5.188  2.7322  0.7189 -0.3825
17615TIP3   OH274259   1.800   2.011   5.643 -1.3681  0.1345 -0.2661
17615TIP3    H174260   1.852   1.962   5.707 -0.7617  0.9400 -0.1307
17615TIP3    H274261   1.849   2.003   5.561 -1.1869  0.6562 -0.2056
17616TIP3   OH274262   3.604   0.151   3.152 -0.0857  0.1275 -0.1062
17616TIP3    H174263   3.599   0.109   3.066  0.0429 -0.6521  0.2618
17616TIP3    H274264   3.594   0.079   3.214 -1.8614  0.9052  0.5268
17617TIP3   OH274265   1.816   0.030   2.981 -0.4754  0.1698  0.5251
17617TIP3    H174266   1.830  -0.054   2.936 -2.0934 -0.0103  0.3369
17617TIP3    H274267   1.898   0.077   2.968  0.4193 -1.3300  0.5168
17618TIP3   OH274268   0.983   6.123   3.476 -0.4290  0.3051  0.1056
17618TIP3    H174269   1.034   6.044   3.456 -2.3717 -1.0503  0.4162
17618TIP3    H274270   0.958   6.114   3.568  0.2575  1.8335  0.4638
17619TIP3   OH274271   5.110   0.193   3.756  1.0032 -0.2998  0.0239
17619TIP3    H174272   5.141   0.122   3.699 -0.2195 -0.4390 -0.4916
17619TIP3    H274273   5.108   0.270   3.700  1.1687 -0.1232  0.2606
17620TIP3   OH274274   6.093   1.541   3.240  0.2553  0.1339  0.2774
17620TIP3    H174275   6.108   1.635   3.231  0.4867 -0.0504 -1.5090
17620TIP3    H274276   6.005   1.527   3.204  1.4606 -0.7501 -2.4769
17621TIP3   OH274277   0.518   3.002   4.777  0.1914 -0.1443  0.6325
17621TIP3    H174278   0.475   2.920   4.754  0.3061 -0.6757  2.3093
17621TIP3    H274279   0.481   3.066   4.715 -0.9500 -1.1519  0.2520
17622TIP3   OH274280   0.490   3.964   5.974 -0.4602 -0.3237  0.5466
17622TIP3    H174281   0.500   3.889   6.031 -2.8839 -0.6709  0.5584
17622TIP3    H274282   0.528   3.936   5.890  1.3432 -0.4780  1.3919
17623TIP3   OH274283   4.988   3.819   5.510 -0.3096 -0.0206  0.2000
17623TIP3    H174284   5.014   3.829   5.419  1.6170 -1.9656  0.4813
17623TIP3    H274285   4.896   3.796   5.508 -0.2015 -0.3310 -1.2765
17624TIP3   OH274286   1.535   3.628   5.713  0.1369 -0.5546  0.0660
17624TIP3    H174287   1.489   3.544   5.712 -0.8045 -0.0371  0.0069
17624TIP3    H274288   1.628   3.604   5.709  0.0997 -1.7585  4.2223
17625TIP3   OH274289   3.404   2.694   2.208 -0.2647  0.0246 -0.2020
17625TIP3    H174290   3.491   2.698   2.167 -0.0598  0.1257  0.2358
17625TIP3    H274291   3.352   2.758   2.160 -0.6046 -1.2857 -1.6326
17626TIP3   OH274292   1.830   1.661   5.011  0.3689 -0.2013  0.2786
17626TIP3    H174293   1.800   1.613   4.934  0.6220  0.3041 -0.1366
17626TIP3    H274294   1.847   1.750   4.979 -0.8308  0.3876  1.1910
17627TIP3   OH274295   0.948   4.030   2.318 -0.4493 -0.1837 -0.0776
17627TIP3    H174296   0.874   3.996   2.267  0.5286 -2.4663  0.0078
17627TIP3    H274297   0.925   4.010   2.408 -0.3894  0.4109  0.0697
17628TIP3   OH274298   0.344   2.508   5.248  0.6319  0.1178  0.3741
17628TIP3    H174299   0.421   2.470   5.206 -0.1756  0.7843 -1.8272
17628TIP3    H274300   0.278   2.439   5.245  0.8554 -0.1454  1.4194
17629TIP3   OH274301   5.246   1.078   3.622  0.3561  0.0323 -0.3779
17629TIP3    H174302   5.226   0.993   3.583  0.8699  0.0928 -0.7798
17629TIP3    H274303   5.264   1.059   3.714 -1.1057 -0.0783 -0.1009
17630TIP3   OH274304   3.696   3.772   4.313  0.5912  0.1116 -0.2673
17630TIP3    H174305   3.788   3.744   4.314  1.1560  1.7884 -1.5088
17630TIP3    H274306   3.677   3.797   4.403  1.3984 -0.1638 -0.0170
17631TIP3   OH274307   4.435   4.524   5.297 -0.0211 -0.1926  0.4951
17631TIP3    H174308   4.484   4.516   5.215 -2.1559 -0.8925 -0.7599
17631TIP3    H274309   4.493   4.575   5.354  2.2926 -1.2798 -0.7806
17632TIP3   OH274310   3.260   2.743   2.781  0.8003 -0.3721 -0.1921
17632TIP3    H174311   3.342   2.693   2.774  1.4876  0.8751 -1.1883
17632TIP3    H274312   3.208   2.714   2.706  1.1702  0.3621 -0.7297
17633TIP3   OH274313   3.229   1.826   4.630 -0.5107 -0.2728  0.3486
17633TIP3    H174314   3.213   1.920   4.627 -0.0249 -0.2057 -0.3670
17633TIP3    H274315   3.317   1.817   4.667  0.0497 -0.3703 -0.9924
17634TIP3   OH274316   0.331   5.673   4.861 -0.5538 -0.0002 -0.0164
17634TIP3    H174317   0.251   5.636   4.900 -0.8206  0.9199  0.3240
17634TIP3    H274318   0.370   5.725   4.931 -0.1674  0.3322 -0.4750
17635TIP3   OH274319   1.738   0.429   5.251 -0.6315  0.2721 -1.1902
17635TIP3    H174320   1.707   0.434   5.341 -1.6150  0.7102 -1.5486
17635TIP3    H274321   1.729   0.337   5.228  2.1602 -0.3603  0.0304
17636TIP3   OH274322   5.669   5.687   2.881 -0.0970  0.3235  0.3173
17636TIP3    H174323   5.613   5.638   2.820 -0.8624 -0.2637  1.4764
17636TIP3    H274324   5.749   5.635   2.885 -0.4221 -0.1666  0.5679
17637TIP3   OH274325   4.489   6.704   3.610 -0.8028  0.1707 -0.7941
17637TIP3    H174326   4.558   6.645   3.639 -0.5673  0.7093 -0.2435
17637TIP3    H274327   4.407   6.656   3.625 -0.6044 -0.0747 -0.5053
17638TIP3   OH274328   6.601   6.644   5.654  0.4360  0.4274  0.4013
17638TIP3    H174329   6.659   6.635   5.730  0.4029 -0.0081  0.3760
17638TIP3    H274330   6.659   6.655   5.579  0.4967 -0.5185  0.3078
17639TIP3   OH274331   0.671   6.371   3.258  0.0511 -0.0677 -0.5566
17639TIP3    H174332   0.591   6.381   3.206  0.9164 -0.6647 -2.0448
17639TIP3    H274333   0.730   6.438   3.224  0.4416 -0.1159  0.0211
17640TIP3   OH274334   1.436   6.682   5.832  0.3337  0.4926  0.0404
17640TIP3    H174335   1.391   6.757   5.872  1.7630  1.2540  0.2766
17640TIP3    H274336   1.378   6.608   5.848 -1.2808  1.6120 -0.5188
17641TIP3   OH274337   6.691   4.516   0.283 -0.3006  0.1747 -0.0140
17641TIP3    H174338   6.732   4.437   0.320 -0.7640  0.4538  1.1347
17641TIP3    H274339   6.759   4.554   0.228 -0.2565 -1.3172 -1.0271
17642TIP3   OH274340   4.784   4.223   4.749 -0.2339  0.3885  0.4172
17642TIP3    H174341   4.875   4.217   4.779  0.0463  0.4755 -0.3767
17642TIP3    H274342   4.747   4.137   4.766 -0.3582  0.7181  1.8396
17643TIP3   OH274343   1.240   1.919   5.059 -0.0660  0.1618 -0.1319
17643TIP3    H174344   1.175   1.972   5.105  0.9098  0.8162  0.5149
17643TIP3    H274345   1.321   1.932   5.108  0.3992 -1.1973 -0.5216
17644TIP3   OH274346   1.709   4.932   5.115 -0.2076  0.3863  0.7679
17644TIP3    H174347   1.644   4.950   5.183 -1.4645  4.2418 -1.2860
17644TIP3    H274348   1.678   4.851   5.074 -2.3732  0.8144  1.4600
17645TIP3   OH274349   4.117   5.399   4.714 -0.4476 -0.4195 -0.1034
17645TIP3    H174350   4.080   5.318   4.680 -2.0110  1.5063 -3.3530
17645TIP3    H274351   4.070   5.415   4.796 -1.1965 -2.0381 -0.2020
17646TIP3   OH274352   0.906   1.077   6.235  0.3364 -0.1916  0.2783
17646TIP3    H174353   0.817   1.047   6.216  1.0628 -1.5915 -1.0059
17646TIP3    H274354   0.944   1.007   6.287  0.9282  0.0812  0.2132
17647TIP3   OH274355   2.186   2.646   4.440 -0.0617 -0.1635 -0.0393
17647TIP3    H174356   2.248   2.580   4.470  1.2328  0.7935 -0.5560
17647TIP3    H274357   2.184   2.710   4.511  1.0146  0.7716 -0.8234
17648TIP3   OH274358   2.050   6.770   4.947 -0.1091  0.0687 -0.6687
17648TIP3    H174359   1.974   6.797   4.895  0.0231  0.5729 -0.6072
17648TIP3    H274360   2.013   6.738   5.029 -0.3505 -1.2026 -1.2690
17649TIP3   OH274361   7.112   3.849   5.287  0.2715  0.1297  0.1295
17649TIP3    H174362   7.191   3.798   5.273  0.3282 -0.1777  1.4827
17649TIP3    H274363   7.142   3.940   5.289  0.6047  0.0076  0.7146
17650TIP3   OH274364   1.188   5.164   5.165  0.1825  0.5003 -0.5122
17650TIP3    H174365   1.254   5.134   5.228 -0.4457 -0.2444 -0.2054
17650TIP3    H274366   1.238   5.182   5.085  0.5860 -1.3348 -0.6906
17651TIP3   OH274367   5.882   3.300   2.678 -0.4480 -0.3525  0.3040
17651TIP3    H174368   5.792   3.328   2.694 -0.3890 -0.0999  0.1973
17651TIP3    H274369   5.932   3.381   2.672 -0.0382 -0.5250  1.3700
17652TIP3   OH274370   0.745   5.852   3.623 -0.3205  0.1545  0.5182
17652TIP3    H174371   0.739   5.778   3.563 -0.0764  0.8118 -0.3170
17652TIP3    H274372   0.839   5.867   3.634 -0.3733  0.5286  0.4619
17653TIP3   OH274373   0.453   3.916   3.967  0.0845  0.0659  0.3113
17653TIP3    H174374   0.363   3.901   3.995 -0.1887 -0.0002 -0.5712
17653TIP3    H274375   0.451   3.899   3.873  0.8192  0.9652  0.1309
17654TIP3   OH274376   1.430   5.166   1.814 -0.8899  0.1409 -0.2813
17654TIP3    H174377   1.448   5.257   1.790 -1.2004 -0.5517 -3.3539
17654TIP3    H274378   1.514   5.122   1.806 -0.6444  0.2303  1.6677
17655TIP3   OH274379   0.116   6.151   4.797  0.5695  0.1470  0.1974
17655TIP3    H174380   0.115   6.241   4.763  2.7794 -0.3422 -1.2288
17655TIP3    H274381   0.103   6.096   4.720  1.8290 -0.8467  0.6761
17656TIP3   OH274382   3.508   3.073   4.092  0.3661 -0.2148  0.5070
17656TIP3    H174383   3.530   3.025   4.013 -0.3510  0.0063  0.1684
17656TIP3    H274384   3.502   3.006   4.160  1.9432 -0.2886  0.5826
17657TIP3   OH274385   3.735   2.111   4.083 -0.3135  0.7253  0.2448
17657TIP3    H174386   3.656   2.165   4.079 -0.3547  0.6166 -0.5145
17657TIP3    H274387   3.728   2.063   4.165  0.3331  2.8194  1.5777
17658TIP3   OH274388   3.433   3.516   4.592 -0.1035  0.2497 -0.1526
17658TIP3    H174389   3.437   3.428   4.553 -0.4366  0.4874 -0.7309
17658TIP3    H274390   3.522   3.550   4.582  0.9055 -1.2634  3.0338
17659TIP3   OH274391   4.631   1.654   5.869 -0.2530 -0.0262  0.5648
17659TIP3    H174392   4.663   1.586   5.928 -0.8814  0.0434  0.9821
17659TIP3    H274393   4.550   1.685   5.909 -1.1137 -0.5546 -0.7745
17660TIP3   OH274394   1.583   4.255   5.183 -0.1574  0.5496 -0.0486
17660TIP3    H174395   1.496   4.282   5.155 -1.2299 -1.7772  0.8410
17660TIP3    H274396   1.570   4.167   5.220  2.3314  0.6901  1.3183
17661TIP3   OH274397   3.138   1.080   4.805  0.3520 -1.0125 -0.6439
17661TIP3    H174398   3.046   1.058   4.789  0.1479 -1.0787  0.5589
17661TIP3    H274399   3.135   1.150   4.869  1.1393 -0.7189 -0.9220
17662TIP3   OH274400   4.464   2.226   5.243  0.3421  0.5728 -0.3639
17662TIP3    H174401   4.389   2.261   5.194 -1.1108 -0.0891  1.3403
17662TIP3    H274402   4.438   2.233   5.335  1.2066 -2.1904  0.1591
17663TIP3   OH274403   0.492   2.655   4.759  0.7114  0.2021 -0.1010
17663TIP3    H174404   0.462   2.669   4.849  0.8745  0.1493 -0.0373
17663TIP3    H274405   0.452   2.572   4.734 -0.0282  0.6403 -0.3805
17664TIP3   OH274406   4.082   3.213   4.192  0.3018  0.2129  0.2512
17664TIP3    H174407   3.993   3.232   4.162  0.7263 -0.0480 -1.2452
17664TIP3    H274408   4.071   3.169   4.276 -1.0130 -0.6062 -0.3377
17665TIP3   OH274409   5.736   1.753   2.118  0.1347  0.0661 -0.2541
17665TIP3    H174410   5.652   1.708   2.114  0.4172 -0.4137 -0.8309
17665TIP3    H274411   5.719   1.830   2.172  0.0691 -1.6506  2.2917
17666TIP3   OH274412   1.640   3.176   5.410 -0.3979  0.1996  0.1210
17666TIP3    H174413   1.631   3.270   5.396  1.1393  0.5296  1.2314
17666TIP3    H274414   1.732   3.164   5.435 -1.0531 -1.3532  1.8832
17667TIP3   OH274415   1.095   1.667   1.205 -0.2791 -0.0508 -0.0458
17667TIP3    H174416   1.173   1.703   1.164 -0.1870  1.3594  1.3433
17667TIP3    H274417   1.067   1.597   1.146  1.2671  0.3099 -1.2227
17668TIP3   OH274418   1.203   1.323   2.861  0.3946  0.1080 -0.0817
17668TIP3    H174419   1.284   1.309   2.911  0.0680 -0.8324  0.1909
17668TIP3    H274420   1.141   1.261   2.899 -1.1080  2.3382  1.1677
17669TIP3   OH274421   2.300   4.404   4.769 -0.0410  0.0546  0.0038
17669TIP3    H174422   2.229   4.402   4.833 -0.9509  0.5429 -0.9924
17669TIP3    H274423   2.307   4.313   4.738 -1.3947  0.3594 -1.1878
17670TIP3   OH274424   5.735   4.793   5.444 -0.0178  0.1314 -0.2527
17670TIP3    H174425   5.651   4.772   5.484 -0.9674  0.8539 -1.8059
17670TIP3    H274426   5.776   4.855   5.503 -0.2367 -0.7937  0.8878
17671TIP3   OH274427   6.772   0.536   3.479 -0.1063  0.8530 -0.1004
17671TIP3    H174428   6.683   0.571   3.486 -0.4465 -0.3233  1.7661
17671TIP3    H274429   6.816   0.566   3.558  0.8988  0.7286 -0.6096
17672TIP3   OH274430   3.501   3.784   1.958  0.3253  0.6745  0.2491
17672TIP3    H174431   3.416   3.758   1.993  0.1201  2.3457  1.0092
17672TIP3    H274432   3.481   3.834   1.879  0.7289 -1.4597 -1.2626
17673TIP3   OH274433   5.955   0.460   5.341  0.3446  0.6371 -0.2518
17673TIP3    H174434   5.913   0.378   5.364 -0.7483  0.8722 -1.3577
17673TIP3    H274435   5.911   0.489   5.261  1.9238  1.3984 -0.8862
17674TIP3   OH274436   3.650   5.782   3.508  0.1657  0.4537 -0.5568
17674TIP3    H174437   3.567   5.771   3.554 -0.3964 -0.1158 -1.6963
17674TIP3    H274438   3.626   5.787   3.416  1.3448  0.9395 -0.8503
17675TIP3   OH274439   4.282   3.006   3.975  0.0465  0.1922  0.0244
17675TIP3    H174440   4.318   2.919   3.959  0.8923  0.6522 -0.6397
17675TIP3    H274441   4.272   3.011   4.070  0.3243 -0.4955  0.0906
17676TIP3   OH274442   0.316   3.960   4.302 -0.0707 -0.0450  0.0319
17676TIP3    H174443   0.285   3.995   4.219 -1.6316 -1.2267  0.0928
17676TIP3    H274444   0.267   4.008   4.369 -0.5638 -0.7602  0.1889
17677TIP3   OH274445   0.399   1.430   4.596  0.2900 -0.5429 -0.0294
17677TIP3    H174446   0.363   1.499   4.651 -1.0901 -0.6213 -0.7936
17677TIP3    H274447   0.461   1.384   4.652 -0.1424  0.1670  1.0494
17678TIP3   OH274448   4.834   0.101   5.081  0.5202  0.1488 -0.0264
17678TIP3    H174449   4.876   0.025   5.041 -0.5322  0.1836 -1.2257
17678TIP3    H274450   4.789   0.065   5.158  0.2757 -0.4004 -0.4229
17679TIP3   OH274451   2.683   3.399   5.212 -0.2660  0.1382  0.1040
17679TIP3    H174452   2.772   3.434   5.206  0.0126 -0.6456 -0.3195
17679TIP3    H274453   2.627   3.477   5.205  0.3445  0.4820 -1.0902
17680TIP3   OH274454   3.111   4.537   0.855  0.5977 -0.0304  0.0036
17680TIP3    H174455   3.081   4.494   0.935  2.3442 -0.4057  0.4800
17680TIP3    H274456   3.073   4.486   0.784 -2.2718  1.2457  0.5701
17681TIP3   OH274457   0.555   0.620   3.397  0.5469  0.7002 -0.0369
17681TIP3    H174458   0.570   0.610   3.492 -1.3652  1.5085  0.3735
17681TIP3    H274459   0.559   0.714   3.382  3.2946  0.4339 -1.2296
17682TIP3   OH274460   5.057   2.534   3.539 -0.5457 -0.3031  0.3814
17682TIP3    H174461   4.967   2.560   3.519 -0.2307  0.4991 -0.0181
17682TIP3    H274462   5.093   2.504   3.455 -0.6206 -1.1762  0.6563
17683TIP3   OH274463   2.173   1.279   5.517 -0.3390  0.0390  0.2324
17683TIP3    H174464   2.216   1.363   5.501  0.7664 -0.7576 -1.0678
17683TIP3    H274465   2.209   1.250   5.602  0.1509  0.3442  0.1323
17684TIP3   OH274466   1.014   4.259   5.189  0.7494  0.4491  0.2887
17684TIP3    H174467   0.989   4.180   5.143  2.4100  0.1388 -0.1160
17684TIP3    H274468   1.034   4.230   5.278  1.7913  0.3320  0.0214
17685TIP3   OH274469   2.342   1.745   5.101 -0.0839 -0.1038 -0.1873
17685TIP3    H174470   2.396   1.695   5.162 -0.7785 -0.7522 -0.0959
17685TIP3    H274471   2.253   1.735   5.135 -0.2911  0.7667 -0.4623
17686TIP3   OH274472   1.731   1.796   1.622  0.6701  0.0349  0.4532
17686TIP3    H174473   1.640   1.828   1.624  0.5744 -0.1975 -0.0998
17686TIP3    H274474   1.734   1.727   1.688 -0.0801 -1.3444 -0.9314
17687TIP3   OH274475   4.815   2.566   1.836  0.2734  0.4052  0.1545
17687TIP3    H174476   4.885   2.629   1.852 -0.1130  1.5410 -2.3758
17687TIP3    H274477   4.854   2.481   1.851  1.7010  1.1106  0.4809
17688TIP3   OH274478   6.422   2.342   2.002  0.2416 -0.3203 -0.6514
17688TIP3    H174479   6.375   2.329   1.920  1.1157 -0.5689 -1.1116
17688TIP3    H274480   6.353   2.343   2.069 -0.3879 -1.1714 -1.2741
17689TIP3   OH274481   6.635   1.293   4.816 -0.0705 -0.3749  0.1913
17689TIP3    H174482   6.668   1.220   4.762 -0.2157 -0.5396  0.3250
17689TIP3    H274483   6.546   1.308   4.784  0.1753  0.1564 -0.2599
17690TIP3   OH274484   1.821   1.435   4.255  0.4304  0.3532 -0.2262
17690TIP3    H174485   1.834   1.340   4.246  0.4892  0.4505 -1.2425
17690TIP3    H274486   1.736   1.443   4.299  0.6101 -0.1735  0.2272
17691TIP3   OH274487   3.117   2.478   5.619 -0.5896 -0.8502 -0.0077
17691TIP3    H174488   3.092   2.497   5.529 -0.6621  0.1620  0.2116
17691TIP3    H274489   3.176   2.550   5.643 -0.2814 -1.3046  0.6335
17692TIP3   OH274490   0.946   1.470   4.949 -0.1530  0.6885  0.1118
17692TIP3    H174491   1.007   1.438   4.883 -1.1440 -2.3220  0.5759
17692TIP3    H274492   0.986   1.551   4.982  0.3416  2.2915 -4.1040
17693TIP3   OH274493   2.512   2.624   2.987  0.7617 -0.1938  0.3887
17693TIP3    H174494   2.422   2.654   2.998  0.6972 -0.5803  0.9480
17693TIP3    H274495   2.552   2.640   3.073  1.1318 -0.3335  0.2383
17694TIP3   OH274496   3.830   5.184   3.798 -0.2777 -0.4440  0.2930
17694TIP3    H174497   3.832   5.088   3.807  1.8648 -0.3484  1.3344
17694TIP3    H274498   3.755   5.211   3.851  0.3656 -1.4190  1.7643
17695TIP3   OH274499   5.219   1.722   4.429  0.3132 -0.5807 -0.1566
17695TIP3    H174500   5.202   1.814   4.449 -0.6620 -0.8067  0.0952
17695TIP3    H274501   5.270   1.724   4.348 -0.9320  0.1415 -0.9457
17696TIP3   OH274502   3.148   6.419   2.289  0.3882  0.5882 -0.1262
17696TIP3    H174503   3.166   6.491   2.229 -0.1063  0.7072 -0.1339
17696TIP3    H274504   3.233   6.381   2.308  0.6627  1.2371 -0.0520
17697TIP3   OH274505   1.740   4.218   4.408  0.0854 -0.4716 -0.0221
17697TIP3    H174506   1.821   4.184   4.369  0.0933  0.0382 -0.4642
17697TIP3    H274507   1.765   4.241   4.497  0.5652  0.1376 -0.3008
17698TIP3   OH274508   3.012   3.490   3.827 -0.4364  0.1017 -0.4754
17698TIP3    H174509   2.924   3.462   3.852  0.6716 -2.6132  0.5457
17698TIP3    H274510   3.021   3.461   3.736 -0.2438 -0.5491 -0.2535
17699TIP3   OH274511   1.839   4.703   1.712 -0.1336  0.5519  0.4281
17699TIP3    H174512   1.831   4.709   1.617  0.5581 -1.5921  0.2192
17699TIP3    H274513   1.887   4.782   1.736  2.2902 -0.3004 -1.3600
17700TIP3   OH274514   7.044   4.096   4.074 -0.2625 -0.5389 -0.9183
17700TIP3    H174515   7.138   4.081   4.060 -0.2113 -1.3429  0.1905
17700TIP3    H274516   7.039   4.184   4.110  0.2749 -1.2700  1.0067
17701TIP3   OH274517   3.560   2.482   5.007  0.1274 -0.1585  0.3662
17701TIP3    H174518   3.537   2.571   5.032  1.6405  0.1354  0.7583
17701TIP3    H274519   3.531   2.428   5.080  0.4987  0.1839  0.7664
17702TIP3   OH274520   5.039   6.662   3.487  0.7608 -0.3192  1.2227
17702TIP3    H174521   5.120   6.646   3.536  1.5395 -0.1622  0.0222
17702TIP3    H274522   4.983   6.711   3.547  1.6657 -0.2169  1.9820
17703TIP3   OH274523   5.777   6.408   3.614 -0.1227  0.5238 -0.2538
17703TIP3    H174524   5.814   6.496   3.618  0.5177  0.3284 -1.6499
17703TIP3    H274525   5.813   6.363   3.691  0.2413  1.2076 -0.0197
17704TIP3   OH274526   5.400   0.276   1.868 -0.4007 -0.5334  0.6176
17704TIP3    H174527   5.434   0.351   1.820 -0.9600 -2.2042 -2.4895
17704TIP3    H274528   5.311   0.302   1.892 -0.5369 -0.1155 -0.3010
17705TIP3   OH274529   4.828   4.963   5.949  0.0665  0.5469 -0.4421
17705TIP3    H174530   4.812   5.056   5.932  2.4521  1.0445 -0.2012
17705TIP3    H274531   4.869   4.962   6.036 -1.0381 -0.8621  0.0796
17706TIP3   OH274532   6.457   3.282   3.822  0.4609 -0.0723 -0.0916
17706TIP3    H174533   6.398   3.223   3.776  3.3332 -1.3304 -2.3046
17706TIP3    H274534   6.469   3.356   3.763 -1.5499  1.8466  1.8229
17707TIP3   OH274535   1.434   1.673   4.952  0.3312  0.0611 -0.0894
17707TIP3    H174536   1.475   1.759   4.946 -0.2738  0.3251 -0.5783
17707TIP3    H274537   1.343   1.691   4.973  0.0688 -0.4259 -0.7693
17708TIP3   OH274538   0.891   1.930   5.720 -0.3279 -0.5179  0.6151
17708TIP3    H174539   0.905   2.023   5.739 -1.0569 -0.6199  1.6533
17708TIP3    H274540   0.979   1.891   5.728  0.4955  0.5363 -2.5782
17709TIP3   OH274541   4.334   0.520   4.055  0.3755 -0.0334 -0.0037
17709TIP3    H174542   4.339   0.436   4.100 -1.0626  0.5407  1.2776
17709TIP3    H274543   4.245   0.552   4.073 -0.7187 -0.3795 -4.3373
17710TIP3   OH274544   0.793   0.743   2.382  0.4176 -0.0311  0.2002
17710TIP3    H174545   0.887   0.762   2.386  0.1796  1.1108  0.9226
17710TIP3    H274546   0.756   0.793   2.455 -0.7311 -0.6132  0.0339
17711TIP3   OH274547   6.385   3.760   6.136  0.7609  0.0333 -0.0601
17711TIP3    H174548   6.469   3.765   6.182  0.3691  1.4597  0.5363
17711TIP3    H274549   6.347   3.676   6.163  2.0067 -0.6287 -0.3591
17712TIP3   OH274550   2.721   2.494   6.129 -0.6384  0.1033 -0.7985
17712TIP3    H174551   2.810   2.511   6.161 -0.1371 -1.2557 -1.4185
17712TIP3    H274552   2.696   2.575   6.083  0.3147  0.4611 -0.7012
17713TIP3   OH274553   7.023   3.198   3.126  0.0652 -0.0405 -0.1849
17713TIP3    H174554   6.928   3.204   3.133 -0.0849 -0.8214 -1.3970
17713TIP3    H274555   7.047   3.124   3.181 -0.0577  0.0036 -0.0732
17714TIP3   OH274556   4.025   4.579   4.725 -0.1473  0.1852 -0.4283
17714TIP3    H174557   3.996   4.489   4.736 -1.6570  0.7023 -0.0383
17714TIP3    H274558   3.973   4.629   4.788  1.0520  1.2578 -0.2528
17715TIP3   OH274559   5.248   4.432   2.808  0.2542  0.2952  0.1272
17715TIP3    H174560   5.195   4.355   2.829  0.3111 -0.4993 -2.4654
17715TIP3    H274561   5.271   4.469   2.893 -0.3518 -2.1653  1.4149
17716TIP3   OH274562   1.038   3.188   4.417 -0.2543  0.3605 -0.0400
17716TIP3    H174563   1.125   3.152   4.402 -0.9497 -0.6414 -1.8715
17716TIP3    H274564   0.978   3.120   4.386 -1.7239  0.6508  2.0445
17717TIP3   OH274565   5.219   0.248   4.957  0.5632 -0.2109  0.4651
17717TIP3    H174566   5.136   0.226   4.915 -0.3086  0.1848  1.9541
17717TIP3    H274567   5.194   0.303   5.032  2.1888  0.1997  0.7164
17718TIP3   OH274568   5.782   2.937   0.874 -0.2029  0.0236  0.3148
17718TIP3    H174569   5.802   2.857   0.827 -3.9645 -0.7467 -0.1554
17718TIP3    H274570   5.731   2.909   0.950 -0.1094  1.8265  1.0826
17719TIP3   OH274571   6.801   2.311   2.297  0.0594 -0.1201 -0.5259
17719TIP3    H174572   6.808   2.316   2.393  0.1319 -2.6598 -0.3711
17719TIP3    H274573   6.706   2.314   2.280  0.0321  0.0085 -0.3541
17720TIP3   OH274574   0.503   3.075   2.799  0.2363  0.2617 -0.4727
17720TIP3    H174575   0.572   3.119   2.750 -1.0347  1.3851 -1.3031
17720TIP3    H274576   0.465   3.013   2.737 -0.0194  0.2182 -0.2768
17721TIP3   OH274577   2.305   1.968   5.309 -0.7481 -0.8192  0.3725
17721TIP3    H174578   2.388   1.955   5.355 -0.8348 -2.0167  0.1982
17721TIP3    H274579   2.325   1.947   5.218 -0.9476  0.0912  0.1109
17722TIP3   OH274580   2.957   2.356   1.745  0.1526 -0.3376 -0.1714
17722TIP3    H174581   2.963   2.379   1.837 -0.2783 -0.2790 -0.1567
17722TIP3    H274582   2.879   2.403   1.713  0.4008 -0.2164 -0.6026
17723TIP3   OH274583   4.452   3.936   3.106 -0.2534 -0.2840  0.7572
17723TIP3    H174584   4.493   3.940   3.192 -0.3964  1.1720  0.7728
17723TIP3    H274585   4.413   4.022   3.095  0.2212 -0.2785 -0.9891
17724TIP3   OH274586   3.938   6.489   4.131  0.4919 -0.3932 -0.2774
17724TIP3    H174587   3.893   6.408   4.106  0.2738 -0.3383 -0.0703
17724TIP3    H274588   4.030   6.465   4.135  0.4190 -0.6536 -0.1240
17725TIP3   OH274589   6.517   2.326  15.555  0.3509 -0.0009 -0.1951
17725TIP3    H174590   6.558   2.408  15.526 -0.7314  0.3413 -0.7591
17725TIP3    H274591   6.591   2.268  15.574  1.1502  1.5609  1.5826
17726TIP3   OH274592   6.605   2.731   4.779  0.2082 -0.3711 -0.1641
17726TIP3    H174593   6.685   2.752   4.731  0.4875 -0.4154  0.2857
17726TIP3    H274594   6.574   2.650   4.739 -0.7676  0.7660 -1.7756
17727TIP3   OH274595   5.412   6.005   5.404  0.5422  0.1526 -0.4001
17727TIP3    H174596   5.414   5.924   5.455  0.7595  1.2201  1.2990
17727TIP3    H274597   5.326   6.003   5.361  0.3023 -0.6942  0.1011
17728TIP3   OH274598   5.659   3.334   4.720 -0.0082  0.2883 -0.2837
17728TIP3    H174599   5.572   3.320   4.681 -0.2394  0.1954  0.2640
17728TIP3    H274600   5.709   3.377   4.650 -0.7869  1.2402 -0.2755
17729TIP3   OH274601   2.264   7.156   5.455 -0.3257  0.1133 -0.0928
17729TIP3    H174602   2.239   7.095   5.524 -0.1610  0.2098  0.0509
17729TIP3    H274603   2.190   7.155   5.394 -0.4523  0.0005  0.0648
17730TIP3   OH274604   5.406   3.480   2.824  0.6787  0.2606  0.5241
17730TIP3    H174605   5.395   3.393   2.864 -0.0626 -0.3486 -0.9722
17730TIP3    H274606   5.336   3.533   2.864  1.3369  0.2769  1.6861
17731TIP3   OH274607   4.859   6.161   5.062 -0.0848 -0.5983 -0.0689
17731TIP3    H174608   4.843   6.254   5.048  1.0809 -0.6096 -1.5313
17731TIP3    H274609   4.772   6.124   5.080 -0.6291  0.6538 -0.1180
17732TIP3   OH274610   5.326   6.069   3.487  0.1759 -0.6678 -0.0898
17732TIP3    H174611   5.235   6.043   3.496  0.2579 -1.3693 -1.1967
17732TIP3    H274612   5.328   6.121   3.406  1.3869 -3.8255 -2.2160
17733TIP3   OH274613   5.871   6.328   4.621  0.0114 -0.3240 -0.2876
17733TIP3    H174614   5.812   6.347   4.694 -0.8683  0.6455 -1.2471
17733TIP3    H274615   5.953   6.302   4.663  0.0240  1.8248  1.0507
17734TIP3   OH274616   2.411   2.643   5.881  0.8832  0.3717 -0.6077
17734TIP3    H174617   2.407   2.706   5.809  0.7883  1.3566  0.2396
17734TIP3    H274618   2.485   2.672   5.934  0.3690  0.2327  0.2037
17735TIP3   OH274619   4.074   1.269   5.111  0.1706  0.1347  0.8350
17735TIP3    H174620   4.152   1.245   5.161  0.7330  0.1467 -0.0279
17735TIP3    H274621   4.052   1.191   5.061  2.1588  1.4158 -2.1696
17736TIP3   OH274622   1.569   0.699   5.887 -0.7418  0.4722 -0.1255
17736TIP3    H174623   1.610   0.642   5.821 -1.2192  1.5368 -1.3765
17736TIP3    H274624   1.482   0.662   5.899 -0.6879  0.3301 -0.1700
17737TIP3   OH274625   0.162   3.923   5.589 -0.1629  0.3240  0.0378
17737TIP3    H174626   0.233   3.860   5.572 -0.5637  0.6457 -3.2536
17737TIP3    H274627   0.207   4.002   5.618  0.8009  0.3115 -1.3618
17738TIP3   OH274628   0.359   1.656   4.773 -0.2831  0.4555  0.7998
17738TIP3    H174629   0.452   1.671   4.793  0.2790 -3.7767  1.9690
17738TIP3    H274630   0.316   1.658   4.859 -0.6144 -1.3752  0.6916
17739TIP3   OH274631   2.757   1.331   5.513 -0.3893  0.3020  0.4855
17739TIP3    H174632   2.836   1.343   5.566 -0.4033  1.4215  0.2642
17739TIP3    H274633   2.720   1.419   5.504 -1.4231 -0.1465  0.2088
17740TIP3   OH274634   5.215   5.655   3.988  0.3415  0.5066  0.0090
17740TIP3    H174635   5.124   5.686   3.984  0.1988  0.2972  1.3251
17740TIP3    H274636   5.209   5.560   3.997  0.7206  0.3737 -1.0738
17741TIP3   OH274637   0.919   3.361   3.810 -0.2143 -0.6101  0.1431
17741TIP3    H174638   1.011   3.388   3.813  0.1976 -1.7796 -1.3457
17741TIP3    H274639   0.870   3.443   3.806  0.7055  0.0512  1.7984
17742TIP3   OH274640   2.733   3.177   6.479 -0.3379  0.0133 -0.1254
17742TIP3    H174641   2.719   3.224   6.396 -1.4918 -0.3135 -0.1226
17742TIP3    H274642   2.652   3.190   6.528 -0.0787 -0.7184  0.5057
17743TIP3   OH274643   3.472   3.635   4.201 -0.0861  0.0519  0.5240
17743TIP3    H174644   3.465   3.657   4.108 -0.6339  1.9643  0.9964
17743TIP3    H274645   3.557   3.670   4.227 -0.2376  0.1278  0.9085
17744TIP3   OH274646   1.117   2.079   3.385 -0.0761 -0.0082 -0.6110
17744TIP3    H174647   1.148   2.095   3.474 -2.2539  3.6398 -0.4032
17744TIP3    H274648   1.040   2.023   3.397 -0.0175 -0.0145 -0.2487
17745TIP3   OH274649   1.838   0.534   4.830  0.3009  0.5944 -0.2790
17745TIP3    H174650   1.807   0.584   4.755  1.1499  1.1153 -0.2981
17745TIP3    H274651   1.804   0.581   4.906 -0.1998  0.3149 -0.3339
17746TIP3   OH274652   4.935   2.908   5.272  0.4891  0.2087 -0.4593
17746TIP3    H174653   4.910   2.882   5.184  1.5001 -1.5009 -0.2518
17746TIP3    H274654   5.021   2.869   5.286  1.2918  2.2259  0.5109
17747TIP3   OH274655   3.089   0.316   4.962 -0.3426  0.1749 -0.3712
17747TIP3    H174656   3.132   0.366   5.031 -0.0607  0.2048 -0.5669
17747TIP3    H274657   3.156   0.304   4.896 -0.1502 -1.2594  0.0792
17748TIP3   OH274658   6.498   5.143   4.356 -0.2037  0.2559 -0.6359
17748TIP3    H174659   6.424   5.149   4.416 -1.2432  1.0071 -1.9754
17748TIP3    H274660   6.512   5.233   4.327  0.5586 -0.0483 -1.2090
17749TIP3   OH274661   1.687   4.035   5.548 -0.4069 -0.0717  0.6044
17749TIP3    H174662   1.747   3.962   5.563 -1.8487 -1.4649 -0.2529
17749TIP3    H274663   1.617   4.023   5.613 -0.2170  1.0610  1.0428
17750TIP3   OH274664   2.282   3.597   3.674  0.1141 -0.8173  0.3246
17750TIP3    H174665   2.262   3.669   3.735  1.5889  0.5526 -0.7769
17750TIP3    H274666   2.312   3.526   3.731 -2.1190 -0.8659  1.5002
17751TIP3   OH274667   6.858   2.413   3.068 -0.2411 -0.4487  0.3573
17751TIP3    H174668   6.896   2.483   3.014 -1.2441  0.7794  1.2112
17751TIP3    H274669   6.826   2.349   3.005 -0.4281  0.4664 -0.4966
17752TIP3   OH274670   5.301   1.529   3.984 -0.0647  0.0117  0.3936
17752TIP3    H174671   5.346   1.446   3.973 -2.2168 -1.0615 -0.5582
17752TIP3    H274672   5.277   1.556   3.895 -0.6515  0.9204  0.8123
17753TIP3   OH274673   1.614   3.288   3.928 -0.2742  0.1788  0.0058
17753TIP3    H174674   1.617   3.197   3.900  1.9349  0.1059  0.3982
17753TIP3    H274675   1.547   3.291   3.996  0.7798 -1.4767  1.1280
17754TIP3   OH274676   2.270   4.425   3.888 -0.1964 -0.3390  0.1138
17754TIP3    H174677   2.354   4.387   3.914  0.5620  1.0244 -0.3028
17754TIP3    H274678   2.249   4.488   3.957 -0.7382 -0.4551  0.0626
17755TIP3   OH274679   4.796   3.698   5.247 -0.4341  0.3459 -0.0899
17755TIP3    H174680   4.787   3.669   5.156  0.6948  1.1708 -0.4673
17755TIP3    H274681   4.816   3.618   5.296  0.3199  0.1204 -0.7726
17756TIP3   OH274682   0.086   0.016   2.461 -0.2726  0.1498  0.0113
17756TIP3    H174683   0.149   0.064   2.407  1.5468  0.0311  1.9735
17756TIP3    H274684   0.008   0.072   2.461 -0.1711  0.3468 -2.3594
17757TIP3   OH274685   3.441   0.640   2.214 -0.2666 -0.3911  0.4935
17757TIP3    H174686   3.503   0.635   2.142  0.1476 -0.1506  0.8254
17757TIP3    H274687   3.355   0.640   2.173 -0.0454 -0.7616  0.0313
17758TIP3   OH274688   6.361   6.176   2.975 -0.3296  0.0560  0.0432
17758TIP3    H174689   6.307   6.179   2.895  0.4927 -0.0581 -0.5236
17758TIP3    H274690   6.309   6.125   3.037 -0.0710 -1.7088 -1.1326
17759TIP3   OH274691   1.127   6.801   3.987 -0.7737  0.3229 -0.4513
17759TIP3    H174692   1.126   6.724   4.043 -0.1850 -0.4254 -1.4457
17759TIP3    H274693   1.219   6.813   3.963 -1.1538 -0.0861 -2.2039
17760TIP3   OH274694   2.613   0.071   6.485 -1.0393 -0.0215  0.5831
17760TIP3    H174695   2.645   0.027   6.564 -2.1428 -1.1003  0.4467
17760TIP3    H274696   2.543   0.015   6.453 -1.5258  1.1196 -0.4050
17761TIP3   OH274697   3.178   2.982   4.785  1.3053 -0.5622  0.5968
17761TIP3    H174698   3.117   2.982   4.859  0.7930  0.2725  0.1800
17761TIP3    H274699   3.252   2.929   4.815  0.5548 -1.2486  1.2527
17762TIP3   OH274700   3.385   4.314   2.950  0.2352  0.2325 -0.2759
17762TIP3    H174701   3.335   4.371   2.892  0.6684  0.7658 -0.1307
17762TIP3    H274702   3.474   4.348   2.945  0.1051  0.8817  1.4440
17763TIP3   OH274703   2.821   6.840   0.577 -0.3155 -0.9699  0.2059
17763TIP3    H174704   2.762   6.769   0.551 -0.6798 -1.1909  1.6246
17763TIP3    H274705   2.767   6.898   0.631  0.4571 -0.5617  0.5485
17764TIP3   OH274706   3.987   2.855   5.412  0.3147  0.7538  0.6855
17764TIP3    H174707   3.985   2.777   5.467 -1.1917  0.7617  0.6642
17764TIP3    H274708   3.943   2.922   5.465  3.5463  2.2442  1.6400
17765TIP3   OH274709   1.377   0.341   5.255  0.4231  0.2484  0.6657
17765TIP3    H174710   1.364   0.377   5.343  0.1891 -0.3784  0.8891
17765TIP3    H274711   1.470   0.319   5.252  0.1846 -0.8962  1.2092
17766TIP3   OH274712   2.489   2.038   1.661  0.1355  0.0368  0.4476
17766TIP3    H174713   2.515   1.946   1.649 -2.2070 -0.5150 -0.8946
17766TIP3    H274714   2.393   2.035   1.656  0.0876  2.6906 -0.5049
17767TIP3   OH274715   1.354   3.075   4.016 -0.8806 -0.2785  0.6385
17767TIP3    H174716   1.289   3.029   3.963 -0.6147  0.6870 -0.5213
17767TIP3    H274717   1.438   3.041   3.986 -0.7402  0.0926  0.6140
17768TIP3   OH274718   4.534   5.606   4.188 -0.4557 -0.0393  0.5799
17768TIP3    H174719   4.519   5.621   4.282  0.4467  0.6704  0.6160
17768TIP3    H274720   4.472   5.665   4.145 -1.6013 -1.1189  0.7166
17769TIP3   OH274721   1.899   1.794   5.849  0.0328  0.8816  0.1183
17769TIP3    H174722   1.809   1.808   5.878 -0.1950  0.8971 -0.5772
17769TIP3    H274723   1.905   1.700   5.832 -0.9504  1.3605 -3.3196
17770TIP3   OH274724   0.722   3.955   2.579 -0.5570  0.2496  0.2847
17770TIP3    H174725   0.651   4.018   2.591 -0.8482  0.1997 -1.0267
17770TIP3    H274726   0.681   3.870   2.595 -1.1075  0.1324 -1.6383
17771TIP3   OH274727   1.808   4.546  14.592  0.4767  0.7035 -0.3712
17771TIP3    H174728   1.796   4.452  14.605  1.7881  0.2565 -2.2249
17771TIP3    H274729   1.902   4.560  14.598  0.1580  2.2101  1.7086
17772TIP3   OH274730   0.920   2.889   1.959 -0.1170  0.1093  0.1143
17772TIP3    H174731   0.972   2.910   1.881  1.3067 -0.9296  0.7798
17772TIP3    H274732   0.848   2.836   1.926  1.0698 -1.2292 -0.3561
17773TIP3   OH274733   3.002   4.229   4.433 -0.0081  0.0620  0.1464
17773TIP3    H174734   2.998   4.169   4.508 -0.4810 -1.1662 -0.8288
17773TIP3    H274735   2.913   4.263   4.424  0.1263  0.4681  0.3515
17774TIP3   OH274736   6.485   1.887   1.628  0.5186  0.9599 -0.1198
17774TIP3    H174737   6.400   1.844   1.627  0.6985  0.5644 -2.8058
17774TIP3    H274738   6.478   1.954   1.696 -0.6472 -1.5260  2.2860
17775TIP3   OH274739   2.131   5.057   4.622 -0.0164 -0.0006 -0.2861
17775TIP3    H174740   2.181   4.989   4.667  0.6692  0.4942 -0.2818
17775TIP3    H274741   2.109   5.019   4.537 -1.4050 -0.9783  0.4863
17776TIP3   OH274742   3.005   4.066   3.996  0.1385  0.4439  0.1332
17776TIP3    H174743   3.027   4.018   4.076 -3.2214 -2.1369 -0.4081
17776TIP3    H274744   3.016   4.002   3.926 -1.9951  1.1199 -0.8630
17777TIP3   OH274745   2.959   3.509   5.886 -0.3929  0.0974 -0.3706
17777TIP3    H174746   2.897   3.439   5.907  0.2375 -0.6878 -1.1107
17777TIP3    H274747   2.956   3.567   5.962 -0.9630 -0.6975  0.2238
17778TIP3   OH274748   2.252   0.043   4.951  0.3245 -0.1262 -0.2354
17778TIP3    H174749   2.330   0.080   4.910  0.8986 -0.0334  0.9251
17778TIP3    H274750   2.192   0.025   4.878  1.8042 -1.1050 -1.2193
17779TIP3   OH274751   6.911   4.549   3.981  0.1294 -0.1550 -0.3806
17779TIP3    H174752   6.976   4.479   3.989 -1.3277 -1.4905  0.0877
17779TIP3    H274753   6.877   4.540   3.892 -1.3116 -1.1927  0.2580
17780TIP3   OH274754   5.194   1.988   4.536  0.5596  0.1201  0.2220
17780TIP3    H174755   5.133   2.046   4.490  0.2264 -1.1095 -0.9007
17780TIP3    H274756   5.187   2.015   4.628 -0.5973  0.9522 -0.0928
17781TIP3   OH274757   3.249   3.231   5.811  0.9215 -0.9840  0.7525
17781TIP3    H174758   3.161   3.194   5.809  0.5749 -0.2932  2.3355
17781TIP3    H274759   3.276   3.234   5.719 -1.3560  0.3175  0.0764
17782TIP3   OH274760   4.276   1.831   2.595 -0.3099  0.1061  0.0095
17782TIP3    H174761   4.260   1.761   2.658 -1.3080 -0.2032 -0.5742
17782TIP3    H274762   4.354   1.876   2.628  1.2499 -2.2050 -0.4168
17783TIP3   OH274763   5.909   3.432   5.373  0.0210 -0.3823 -0.2690
17783TIP3    H174764   5.972   3.500   5.352  0.2333 -0.7798 -0.9356
17783TIP3    H274765   5.852   3.472   5.439  0.3684  0.3091 -0.3813
17784TIP3   OH274766   0.388   6.189   1.747 -0.5755  0.2268 -0.1202
17784TIP3    H174767   0.412   6.100   1.721 -0.7542  0.6106 -1.6977
17784TIP3    H274768   0.416   6.243   1.673 -1.4455  1.3358  0.3518
17785TIP3   OH274769   1.588   4.033   4.182 -0.6232 -0.3922  0.4012
17785TIP3    H174770   1.677   4.066   4.198 -0.9356  1.0446 -0.6917
17785TIP3    H274771   1.593   3.991   4.096 -1.4476  1.5110 -0.6141
17786TIP3   OH274772   4.733   2.369   3.665  0.4831 -0.3851 -0.5437
17786TIP3    H174773   4.699   2.348   3.752  0.9172  0.4212 -0.1755
17786TIP3    H274774   4.826   2.350   3.671  1.4377  4.0706  0.6330
17787TIP3   OH274775   2.949   6.166   2.130  0.4366  0.9077 -0.2774
17787TIP3    H174776   2.897   6.210   2.063  2.2110  0.1946 -2.1963
17787TIP3    H274777   2.936   6.218   2.209 -2.9100  0.8930 -0.7622
17788TIP3   OH274778   4.487   0.268   3.607 -0.6085  0.4714  0.0328
17788TIP3    H174779   4.405   0.313   3.629 -0.1343  1.2980  0.1275
17788TIP3    H274780   4.555   0.319   3.651 -0.0723 -0.4246  0.2565
17789TIP3   OH274781   6.584   2.577   3.472 -0.0964 -0.0153  0.0426
17789TIP3    H174782   6.525   2.646   3.444  1.0250  1.3951  1.1085
17789TIP3    H274783   6.595   2.522   3.394 -0.4533  1.3902 -1.0151
17790TIP3   OH274784   2.765   2.714   4.984  0.3660 -0.2200  0.2104
17790TIP3    H174785   2.856   2.688   5.002  0.9670  0.3187 -1.8456
17790TIP3    H274786   2.759   2.714   4.888 -1.9970 -0.8367  0.3322
17791TIP3   OH274787   3.525   1.596   5.875 -0.4606  0.1801 -0.3796
17791TIP3    H174788   3.504   1.530   5.941 -0.2725  0.7990  0.3051
17791TIP3    H274789   3.530   1.678   5.924 -0.1052  0.6075 -1.1261
17792TIP3   OH274790   0.359   1.730   2.583  0.3573 -0.0935  0.6517
17792TIP3    H174791   0.329   1.800   2.524 -1.4179 -1.7261 -0.4384
17792TIP3    H274792   0.367   1.654   2.527  2.0111 -0.8598  1.8934
17793TIP3   OH274793   3.145   2.093   3.604 -0.1821  0.5999 -0.0439
17793TIP3    H174794   3.059   2.127   3.630 -0.4419 -1.0964  1.4333
17793TIP3    H274795   3.129   2.044   3.524 -0.7219 -0.2556  0.5823
17794TIP3   OH274796   2.420   2.359   5.870  0.5169  0.2385 -0.9328
17794TIP3    H174797   2.378   2.372   5.785  1.4525  0.2964 -1.3939
17794TIP3    H274798   2.395   2.435   5.922  1.0760  0.8969 -1.6230
17795TIP3   OH274799   1.835   2.914   3.726  0.4310  0.3509  0.4026
17795TIP3    H174800   1.743   2.888   3.730  0.9564 -1.4898  1.4990
17795TIP3    H274801   1.878   2.840   3.682  1.4230  1.0787  0.1491
17796TIP3   OH274802   0.207   3.724   3.667  0.1397  0.0513 -0.1089
17796TIP3    H174803   0.143   3.780   3.623  0.8955  0.2474 -0.9688
17796TIP3    H274804   0.208   3.643   3.616 -0.6342 -0.6043  0.8823
17797TIP3   OH274805   3.584   5.117   4.947  0.8286 -0.3391 -0.3917
17797TIP3    H174806   3.559   5.039   4.997 -1.3954  0.3674 -0.3062
17797TIP3    H274807   3.620   5.083   4.865  1.4280 -1.4671  0.3260
17798TIP3   OH274808   3.006   2.110   5.823 -0.8039 -0.2071 -0.0969
17798TIP3    H174809   2.918   2.142   5.843  0.2674  3.0867 -0.3386
17798TIP3    H274810   3.051   2.111   5.907 -0.0632  1.3512 -0.4820
17799TIP3   OH274811   4.255   2.997   5.427  0.9805 -0.6766  0.7217
17799TIP3    H174812   4.240   3.070   5.367 -0.0091 -1.0781  0.4681
17799TIP3    H274813   4.173   2.948   5.426  1.9655 -2.3838  0.0744
17800TIP3   OH274814   0.574   5.951   4.400 -0.2471 -0.2283  0.2241
17800TIP3    H174815   0.562   6.012   4.473  0.1466  0.8795 -0.6199
17800TIP3    H274816   0.594   5.867   4.442  0.2386  0.4530  1.3844
17801TIP3   OH274817   0.889   3.180   5.213 -0.1721 -0.2110 -0.5333
17801TIP3    H174818   0.805   3.210   5.178 -0.5026 -1.0252 -0.4524
17801TIP3    H274819   0.905   3.235   5.289  1.0139  2.2328 -2.4826
17802TIP3   OH274820   2.111   3.273   4.792 -0.1748 -0.2617 -0.2858
17802TIP3    H174821   2.028   3.287   4.838 -1.1066 -1.1977 -1.6408
17802TIP3    H274822   2.168   3.343   4.824 -0.7711 -0.8973  2.2834
17803TIP3   OH274823   3.072   0.585   2.319  0.1282  1.4470  0.1494
17803TIP3    H174824   2.991   0.564   2.365  1.2706 -0.5291  1.3898
17803TIP3    H274825   3.140   0.578   2.387  1.3870  2.6667 -0.9469
17804TIP3   OH274826   2.713   2.154   5.519  0.3959  0.0215 -0.5808
17804TIP3    H174827   2.650   2.212   5.478 -1.1433 -0.1349  1.4805
17804TIP3    H274828   2.775   2.212   5.563 -0.2047  0.1387  0.1177
17805TIP3   OH274829   3.552   3.841   5.203 -0.0276 -0.0649 -0.2783
17805TIP3    H174830   3.502   3.799   5.133  0.8874  1.0969 -1.6628
17805TIP3    H274831   3.595   3.769   5.249 -0.9760 -0.8673 -0.6328
17806TIP3   OH274832   4.011   3.020   4.591 -0.0602 -0.3401 -0.2069
17806TIP3    H174833   4.091   3.050   4.547  0.8093 -1.3114  0.6778
17806TIP3    H274834   3.993   3.088   4.656  0.2540 -0.2876 -0.1713
17807TIP3   OH274835   1.484   2.627   5.424 -0.8419  0.2677  0.5226
17807TIP3    H174836   1.432   2.707   5.430 -0.5581  0.4764  0.2652
17807TIP3    H274837   1.537   2.626   5.504  0.3265  1.1787 -0.2052
17808TIP3   OH274838   3.141   5.220   5.192  0.0067  0.5655  0.3230
17808TIP3    H174839   3.076   5.159   5.159 -0.3055 -0.7348  3.1802
17808TIP3    H274840   3.212   5.164   5.224  0.5315  1.7542  1.2952
17809TIP3   OH274841   5.330   5.617   5.347 -0.3469 -0.3588  0.7329
17809TIP3    H174842   5.369   5.668   5.418 -1.2525  0.8826  0.3586
17809TIP3    H274843   5.306   5.534   5.388  0.0043 -0.0111  1.6535
17810TIP3   OH274844   0.481   1.724   5.212 -0.3368 -0.3883  0.6134
17810TIP3    H174845   0.453   1.810   5.243  0.5812 -0.6498  2.2532
17810TIP3    H274846   0.491   1.672   5.292 -0.0298 -1.7611 -0.2943
17811TIP3   OH274847   2.356   2.426   4.518  0.7238  0.6001 -0.9242
17811TIP3    H174848   2.448   2.435   4.492  1.9139 -0.0949  2.7315
17811TIP3    H274849   2.339   2.332   4.511  0.4226  0.6826 -1.2566
17812TIP3   OH274850   4.396   6.757   4.595  0.0981  0.2002 -0.2824
17812TIP3    H174851   4.368   6.827   4.535 -2.3825 -0.2042  0.3478
17812TIP3    H274852   4.417   6.803   4.676 -1.9449  0.2092  0.2661
17813TIP3   OH274853   6.552   3.315   4.554  0.2458 -0.0661 -0.5921
17813TIP3    H174854   6.642   3.306   4.584  1.0408 -0.7416 -3.0199
17813TIP3    H274855   6.550   3.398   4.506 -0.8491  0.7441  0.8221
17814TIP3   OH274856   2.214   3.338   2.014  0.6371  0.2601  0.4950
17814TIP3    H174857   2.218   3.299   1.926 -0.0506 -0.0020  0.5820
17814TIP3    H274858   2.154   3.412   2.004 -1.0723 -1.0122  1.2238
17815TIP3   OH274859   6.641   2.035   4.529  0.0592 -0.2991  0.1516
17815TIP3    H174860   6.717   2.092   4.544 -0.1264 -0.5740  2.2585
17815TIP3    H274861   6.584   2.086   4.472  0.8198  0.8112  0.3688
17816TIP3   OH274862   2.310   2.118   5.547 -0.2451 -0.4040  0.3750
17816TIP3    H174863   2.305   2.091   5.455  0.1039  0.2202  0.1692
17816TIP3    H274864   2.364   2.197   5.545  1.7328 -1.6927  1.3762
17817TIP3   OH274865   3.790   5.150   5.782 -0.3711 -0.1472  0.0607
17817TIP3    H174866   3.852   5.083   5.810 -0.8868 -0.4442  0.5063
17817TIP3    H274867   3.740   5.107   5.712  0.8996  0.5836 -1.3350
17818TIP3   OH274868   5.251   3.017   2.392 -0.1182 -0.2344  0.1956
17818TIP3    H174869   5.207   3.102   2.395 -0.0133 -0.1936  0.6869
17818TIP3    H274870   5.186   2.957   2.355  0.5233  0.4727 -2.1183
17819TIP3   OH274871   3.943   4.695   5.183 -0.2254  0.1529 -0.1699
17819TIP3    H174872   3.950   4.729   5.094 -2.0874 -1.6695 -1.0593
17819TIP3    H274873   4.010   4.627   5.188 -0.3263  0.0429 -0.2945
17820TIP3   OH274874   2.793   1.143   3.687 -0.2807 -0.5160 -0.3391
17820TIP3    H174875   2.705   1.175   3.667  0.2211 -0.7108 -3.0672
17820TIP3    H274876   2.785   1.048   3.683 -0.1424 -0.5564  0.3337
17821TIP3   OH274877   2.448   2.379   6.147  0.6342 -0.2492 -0.2656
17821TIP3    H174878   2.435   2.340   6.061  0.6347 -0.4522 -0.1728
17821TIP3    H274879   2.542   2.392   6.154  0.7869 -1.6317  0.3204
17822TIP3   OH274880   1.314   5.445   1.510 -0.0425  0.2598 -0.2804
17822TIP3    H174881   1.409   5.438   1.517  0.0343  3.7544  4.6746
17822TIP3    H274882   1.280   5.385   1.576 -1.2714 -0.1751 -1.2938
17823TIP3   OH274883   1.719   2.226   2.763  0.1100 -0.0019  0.2454
17823TIP3    H174884   1.640   2.181   2.732  0.8700 -0.2142 -1.4763
17823TIP3    H274885   1.782   2.213   2.692  1.3832  0.9813  1.1899
17824TIP3   OH274886   6.997   2.597   5.469  0.3129 -0.0677  0.3800
17824TIP3    H174887   7.029   2.511   5.495  0.9150  0.1222  0.2853
17824TIP3    H274888   6.983   2.644   5.552 -1.2544 -0.6881  0.4775
17825TIP3   OH274889   0.007   3.666   5.745 -0.5576 -0.2141 -0.5146
17825TIP3    H174890   0.022   3.739   5.805  0.1488 -0.4908 -0.3535
17825TIP3    H274891   0.023   3.588   5.798 -2.4474 -0.5237 -0.3616
17826TIP3   OH274892   2.626   5.382   2.557  0.4102  0.0347 -0.7255
17826TIP3    H174893   2.623   5.477   2.567 -1.3408 -0.1380  0.8728
17826TIP3    H274894   2.604   5.349   2.644 -2.1458 -1.7868 -1.9878
17827TIP3   OH274895   6.119   2.573   2.612 -0.1935  0.0372  0.2267
17827TIP3    H174896   6.138   2.553   2.704 -0.9217 -0.1840  0.3345
17827TIP3    H274897   6.035   2.618   2.615  0.7801  1.8964 -0.1434
17828TIP3   OH274898   3.452   4.550   5.206 -0.0695  0.0114  0.3566
17828TIP3    H174899   3.419   4.492   5.138  0.1438 -1.3751  1.3951
17828TIP3    H274900   3.375   4.595   5.239 -0.5045 -0.9466  0.6826
17829TIP3   OH274901   6.869   2.997   5.566  0.2628 -0.2200  0.1416
17829TIP3    H174902   6.956   3.002   5.526 -0.0074 -2.2390 -0.7618
17829TIP3    H274903   6.826   3.078   5.539  0.4749 -1.0219 -2.7551
17830TIP3   OH274904   0.742   2.880   5.261  0.3686  0.0734 -0.7175
17830TIP3    H174905   0.743   2.945   5.331  0.8919 -0.4963 -0.1856
17830TIP3    H274906   0.729   2.930   5.181 -0.0588  0.7491 -0.2250
17831TIP3   OH274907   1.139   4.271   2.850 -0.0768 -0.0301  0.1576
17831TIP3    H174908   1.153   4.179   2.828 -1.2620 -0.3490  0.7235
17831TIP3    H274909   1.049   4.276   2.882 -0.4613  1.5564 -1.0698
17832TIP3   OH274910   2.632   4.340   4.147  0.2896  0.2105  0.0312
17832TIP3    H174911   2.642   4.345   4.052 -0.4248 -0.9878 -0.1194
17832TIP3    H274912   2.542   4.311   4.160 -0.4934  3.0372  1.1519
17833TIP3   OH274913   3.130   6.350   4.142 -0.1714  0.6905  0.3420
17833TIP3    H174914   3.172   6.267   4.118 -2.6085  0.5390 -3.9320
17833TIP3    H274915   3.090   6.332   4.227  0.3442 -2.1497  0.0619
17834TIP3   OH274916   2.102   5.962   1.745  0.1161  0.2505 -0.0408
17834TIP3    H174917   2.058   5.982   1.663 -2.8775  2.0078  1.8840
17834TIP3    H274918   2.167   6.031   1.756  0.4336  0.0817 -0.8459
17835TIP3   OH274919   6.698   0.096   3.339 -0.2831  0.3728  0.3216
17835TIP3    H174920   6.616   0.124   3.298  0.6668  1.4997 -0.8505
17835TIP3    H274921   6.742   0.178   3.363  1.7910 -0.1307 -1.6447
17836TIP3   OH274922   5.374   3.683   0.788 -0.0659  0.0290  0.3431
17836TIP3    H174923   5.317   3.755   0.812 -0.5696 -0.6904  1.3272
17836TIP3    H274924   5.348   3.662   0.698 -0.6962  0.3383  0.4472
17837TIP3   OH274925   1.848   5.164   4.861 -0.2579  0.7493 -0.0317
17837TIP3    H174926   1.800   5.213   4.928 -1.4655  0.4612 -0.6771
17837TIP3    H274927   1.937   5.158   4.895 -0.4286  2.1940  0.6937
17838TIP3   OH274928   0.992   1.058   4.748  0.0017 -0.1115  0.3194
17838TIP3    H174929   0.907   1.078   4.788  0.6040  1.6473  0.7844
17838TIP3    H274930   0.970   1.012   4.667 -1.4051  0.2453  0.4776
17839TIP3   OH274931   4.861   2.294   4.886  0.3013 -0.2305  0.7552
17839TIP3    H174932   4.777   2.299   4.841  0.4993 -0.4549  0.3557
17839TIP3    H274933   4.838   2.281   4.978 -0.0854 -1.6680  0.4668
17840TIP3   OH274934   1.479   6.461   4.918 -0.1728  0.2809  0.0623
17840TIP3    H174935   1.412   6.528   4.923 -0.1742  0.2891 -0.0527
17840TIP3    H274936   1.501   6.441   5.009  0.9776  1.5785  0.0747
17841TIP3   OH274937   3.868   1.750   2.214 -0.3762  0.1280 -0.2372
17841TIP3    H174938   3.949   1.723   2.258  1.5228  1.9399 -2.4301
17841TIP3    H274939   3.856   1.841   2.240 -2.5031 -0.5185  1.1406
17842TIP3   OH274940   0.325   3.645   2.892 -0.2369  0.2503 -0.3103
17842TIP3    H174941   0.344   3.598   2.973 -0.0574  0.2252 -0.3671
17842TIP3    H274942   0.230   3.635   2.879 -0.3548  0.7138  0.1855
17843TIP3   OH274943   1.289   6.592   5.516 -0.6628  0.6336 -0.0274
17843TIP3    H174944   1.297   6.541   5.597  0.7616  0.0576 -0.5157
17843TIP3    H274945   1.295   6.683   5.544  0.1704  0.4283  0.4854
17844TIP3   OH274946   4.999   1.772   4.867  0.3924  0.0304 -0.3593
17844TIP3    H174947   4.960   1.847   4.823 -0.6531  0.4674  1.2563
17844TIP3    H274948   5.056   1.811   4.934  0.6950 -0.6161 -0.2346
17845TIP3   OH274949   4.982   3.193   5.201  0.2678 -0.4137 -0.6708
17845TIP3    H174950   5.046   3.201   5.272 -0.2558 -0.2469 -0.2120
17845TIP3    H274951   4.943   3.106   5.214  1.0005 -0.8658 -1.4600
17846TIP3   OH274952   1.764   2.284   4.113 -0.0125  0.3681  0.2163
17846TIP3    H174953   1.688   2.272   4.169 -0.6564  1.3250 -0.4499
17846TIP3    H274954   1.794   2.373   4.131  0.6564  0.1655  0.1231
17847TIP3   OH274955   3.765   1.771   5.101 -0.4446  0.1226  0.2028
17847TIP3    H174956   3.750   1.819   5.019 -1.0465  0.0642  0.2792
17847TIP3    H274957   3.721   1.823   5.168 -2.1748 -1.1823  0.1007
17848TIP3   OH274958   2.495   0.062   4.391  0.1200 -0.7339 -0.0405
17848TIP3    H174959   2.457  -0.024   4.370  0.8172 -1.2502  0.7753
17848TIP3    H274960   2.420   0.122   4.390 -0.2777 -1.2295 -1.2454
17849TIP3   OH274961   5.407   1.474   5.899  0.0165 -0.0592 -0.1205
17849TIP3    H174962   5.383   1.409   5.834  1.2098  0.1491 -0.7966
17849TIP3    H274963   5.484   1.437   5.942  0.0584  0.4229  0.2215
17850TIP3   OH274964   6.322   0.767   3.028  0.1204  0.1527 -0.0213
17850TIP3    H174965   6.386   0.793   2.963  2.5500 -1.5941  1.5600
17850TIP3    H274966   6.286   0.849   3.061  1.0432  1.1404 -1.4174
17851TIP3   OH274967   4.096   5.246   2.212 -0.1977 -0.1116  0.1822
17851TIP3    H174968   4.090   5.158   2.250 -1.9350  0.4391  1.2516
17851TIP3    H274969   4.083   5.233   2.118 -1.0804 -0.9242  0.4128
17852TIP3   OH274970   0.733   4.481   4.364 -0.0898  0.3768 -0.0622
17852TIP3    H174971   0.811   4.450   4.410 -0.7960 -0.2044  0.7697
17852TIP3    H274972   0.683   4.528   4.430 -0.1993  1.1903 -0.7203
17853TIP3   OH274973   2.041   3.149   2.928 -0.3925 -0.0601  0.2743
17853TIP3    H174974   1.998   3.097   2.860 -0.4544 -1.2910  1.2613
17853TIP3    H274975   2.097   3.088   2.975 -0.1086  0.8515  1.1524
17854TIP3   OH274976   4.003   6.235   2.272  0.0917 -0.0910  0.0539
17854TIP3    H174977   4.050   6.302   2.323 -0.1929  0.3020 -0.2029
17854TIP3    H274978   3.966   6.176   2.338  1.4454 -0.7457  0.2491
17855TIP3   OH274979   6.628   4.265   4.129  0.7739 -0.3952  0.2196
17855TIP3    H174980   6.646   4.219   4.047 -1.3543 -1.5668  0.3662
17855TIP3    H274981   6.670   4.212   4.196 -0.4485 -1.3929  0.2291
17856TIP3   OH274982   7.075   3.151   5.385 -0.0767  0.3881 -0.2848
17856TIP3    H174983   7.051   3.141   5.293 -1.4426  1.8910 -0.1075
17856TIP3    H274984   7.035   3.233   5.412  1.4572  0.6568  1.2953
17857TIP3   OH274985   2.741   2.917   0.800  0.9415  0.0749 -0.5094
17857TIP3    H174986   2.686   2.907   0.878  1.8698 -2.8149 -0.1780
17857TIP3    H274987   2.696   2.865   0.733 -0.3629  3.3069 -2.2257
17858TIP3   OH274988   1.004   5.500   4.127  0.0623 -0.4461 -0.8833
17858TIP3    H174989   0.934   5.537   4.181  0.6317  0.3926 -0.7070
17858TIP3    H274990   0.966   5.420   4.090 -0.6717 -0.4899 -0.0522
17859TIP3   OH274991   7.081   2.994   2.910 -0.0879  0.2680 -0.6414
17859TIP3    H174992   7.130   3.049   2.971  1.2043 -1.8652  0.3001
17859TIP3    H274993   6.999   3.041   2.896  0.8636  2.2812  0.3425
17860TIP3   OH274994   6.512   1.977   5.111 -0.0750 -0.5192 -0.2355
17860TIP3    H174995   6.489   1.903   5.167  0.8355 -2.0691 -1.8397
17860TIP3    H274996   6.431   1.999   5.065 -0.4438 -0.2742  0.5331
17861TIP3   OH274997   3.498   2.287   5.231 -0.0341 -0.0248 -0.1175
17861TIP3    H174998   3.571   2.282   5.292  1.1792  1.6121 -1.3736
17861TIP3    H274999   3.474   2.196   5.214 -1.6134 -0.5227  4.1450
17862TIP3   OH275000   5.087   4.703   5.703 -0.5562  0.6034  0.2100
17862TIP3    H175001   5.170   4.744   5.725 -1.2044  1.7217  0.6355
17862TIP3    H275002   5.077   4.718   5.609  1.2403 -2.3771 -0.5136
17863TIP3   OH275003   2.600   6.021   4.886 -0.0037  0.0152 -0.1595
17863TIP3    H175004   2.621   5.994   4.796  0.8542  0.1321  0.0123
17863TIP3    H275005   2.663   5.975   4.941 -1.3259 -1.0496  0.5070
17864TIP3   OH275006   5.045   4.183   5.538 -0.0584 -0.0002  0.1291
17864TIP3    H175007   5.125   4.177   5.591 -0.4878  0.6945  0.8690
17864TIP3    H275008   4.981   4.224   5.596 -0.7337  0.1560 -0.7154
17865TIP3   OH275009   1.102   1.830  15.476 -0.1638 -0.7093  0.4975
17865TIP3    H175010   1.029   1.867  15.525 -1.0262 -0.0569 -1.2236
17865TIP3    H275011   1.097   1.736  15.491 -1.7862 -0.7399 -0.1553
17866TIP3   OH275012   3.387   5.440   3.723 -0.4429  0.0141 -0.5175
17866TIP3    H175013   3.361   5.388   3.799  0.8843 -0.1518 -0.1670
17866TIP3    H275014   3.452   5.386   3.678  0.1841  0.9213 -0.7230
17867TIP3   OH275015   6.068   3.924   4.343 -0.1922  0.5604 -0.2754
17867TIP3    H175016   6.162   3.912   4.331  0.3040  3.9304 -0.2812
17867TIP3    H275017   6.053   3.903   4.436  0.4295 -0.6870 -0.4569
17868TIP3   OH275018   2.116   3.028   4.351  0.1213  0.0866 -0.0908
17868TIP3    H175019   2.110   3.091   4.279  2.6170  0.7500  0.2339
17868TIP3    H275020   2.118   2.943   4.308  1.5578  0.4765 -0.8316
17869TIP3   OH275021   4.776   2.332   3.389 -0.1090 -0.4338 -0.4056
17869TIP3    H175022   4.868   2.346   3.367 -0.4312  1.3947 -0.6276
17869TIP3    H275023   4.771   2.347   3.483  0.0159 -1.6628 -0.1906
17870TIP3   OH275024   3.337   3.987   4.214  0.2362 -0.1805  0.2427
17870TIP3    H175025   3.329   4.080   4.193  1.1120 -0.1536 -0.0036
17870TIP3    H275026   3.397   3.985   4.289 -0.7617 -0.4608  1.0372
17871TIP3   OH275027   5.620   1.607   3.187  0.2107  0.3766  0.4365
17871TIP3    H175028   5.546   1.666   3.202 -0.8763 -0.8808  0.1611
17871TIP3    H275029   5.635   1.611   3.093  1.8021  2.1433  0.7461
17872TIP3   OH275030   5.533   6.405   3.481  0.0802 -0.1064  0.4466
17872TIP3    H175031   5.598   6.367   3.540 -1.5857 -0.2308  2.2529
17872TIP3    H275032   5.550   6.499   3.484  1.2890 -0.2804 -0.4767
17873TIP3   OH275033   2.540   4.967   5.280  0.4807  0.1351 -0.6714
17873TIP3    H175034   2.556   5.061   5.275  0.2981  0.2565  0.7410
17873TIP3    H275035   2.527   4.950   5.374 -2.1929 -0.8507 -1.1963
17874TIP3   OH275036   4.266   1.580   5.311 -0.1141 -0.1465  0.4519
17874TIP3    H175037   4.296   1.658   5.358 -3.3148  0.0504  2.3500
17874TIP3    H275038   4.296   1.507   5.365  0.3483 -0.1006  0.2545
17875TIP3   OH275039   4.009   0.079   5.339 -0.3184 -0.4924 -0.0351
17875TIP3    H175040   4.032   0.140   5.410  0.7650 -1.1617  0.2025
17875TIP3    H275041   4.056  -0.001   5.360  0.7328 -0.4134 -1.9780
17876TIP3   OH275042   6.132   2.537   5.671  0.1865  0.2259 -0.3976
17876TIP3    H175043   6.224   2.517   5.689  0.1565 -1.5360 -1.9743
17876TIP3    H275044   6.134   2.592   5.592 -0.0665  1.2210  0.2789
17877TIP3   OH275045   6.583   4.422   0.713 -0.3072 -0.2374 -0.2607
17877TIP3    H175046   6.632   4.500   0.687  0.2029 -1.3053 -2.6994
17877TIP3    H275047   6.562   4.436   0.805  2.3310  1.4310  0.1394
17878TIP3   OH275048   4.479   2.537   4.079 -0.4113 -0.2097  0.2765
17878TIP3    H175049   4.535   2.469   4.118  0.7009  0.4191 -0.2025
17878TIP3    H275050   4.391   2.515   4.110  0.0219 -1.4884  0.6704
17879TIP3   OH275051   4.894   0.772   2.634 -0.8136 -0.3203 -0.2920
17879TIP3    H175052   4.823   0.808   2.580 -1.3334  1.0542  1.2553
17879TIP3    H275053   4.851   0.740   2.713  0.1923 -0.2288  0.3080
17880TIP3   OH275054   0.686   1.975   3.389  0.3428  0.4833  0.1648
17880TIP3    H175055   0.718   2.057   3.353  1.1119  0.1302  0.0261
17880TIP3    H275056   0.650   1.999   3.475  0.6992  0.9381  0.1870
17881TIP3   OH275057   4.449   5.486   3.180  0.8294 -0.0288  0.2632
17881TIP3    H175058   4.449   5.581   3.192  1.1318  0.0482 -0.3269
17881TIP3    H275059   4.359   5.464   3.157  1.4537  0.5632 -2.9756
17882TIP3   OH275060   5.805   1.012   4.870  0.6513 -0.6031  0.8272
17882TIP3    H175061   5.890   1.011   4.825  0.1225 -0.7478 -0.1866
17882TIP3    H275062   5.762   1.090   4.837  0.9442  0.2401  2.4132
17883TIP3   OH275063   6.853   2.497   5.749  0.3968  0.5052 -0.2093
17883TIP3    H175064   6.895   2.420   5.788 -0.4993  0.3135  0.3866
17883TIP3    H275065   6.920   2.565   5.754  1.4985 -0.4496 -1.4978
17884TIP3   OH275066   4.389   2.392   5.459  0.5548 -0.3903  0.3250
17884TIP3    H175067   4.307   2.402   5.507 -0.3565 -0.3249 -1.2087
17884TIP3    H275068   4.410   2.480   5.429  1.1461 -0.4190  0.6580
17885TIP3   OH275069   1.122   4.450   0.889 -0.9151 -0.4089  0.0702
17885TIP3    H175070   1.028   4.446   0.907 -0.3368  0.6698  3.8280
17885TIP3    H275071   1.144   4.543   0.897  0.6958 -0.8266  0.7630
17886TIP3   OH275072   4.146   3.490   2.353  0.5014  0.4513 -0.4422
17886TIP3    H175073   4.236   3.521   2.345  0.2850  1.0986 -0.3616
17886TIP3    H275074   4.110   3.539   2.426  0.8609 -1.6385  1.1910
17887TIP3   OH275075   2.286   2.945   3.327 -0.1189 -0.2140 -0.2935
17887TIP3    H175076   2.279   2.853   3.355  0.3757 -0.4340 -0.8953
17887TIP3    H275077   2.380   2.961   3.320 -0.1829  0.5700  0.5602
17888TIP3   OH275078   2.603   5.016   4.260 -0.0186  0.1642  0.2756
17888TIP3    H175079   2.618   4.990   4.351 -0.5912 -0.2658  0.2525
17888TIP3    H275080   2.516   5.055   4.261 -0.4423 -0.7478 -0.2638
17889TIP3   OH275081   4.712   6.882   3.281  0.2301 -0.2628  0.0472
17889TIP3    H175082   4.653   6.861   3.354 -0.0134  1.6175  0.4166
17889TIP3    H275083   4.713   6.803   3.227 -0.3322 -1.3422  1.5927
17890TIP3   OH275084   6.545   5.742   1.779  0.0169  0.2397 -0.1697
17890TIP3    H175085   6.580   5.803   1.713 -1.2742  0.0531 -1.0463
17890TIP3    H275086   6.552   5.656   1.737  1.4183 -0.1798  0.8913
17891TIP3   OH275087   4.121   4.513   3.044 -0.2441  0.1499  0.3594
17891TIP3    H175088   4.184   4.446   3.071 -0.1971 -0.0155 -0.1517
17891TIP3    H275089   4.043   4.495   3.096 -0.6949 -1.1223 -0.7269
17892TIP3   OH275090   3.102   1.024   4.461  0.0837 -0.1484 -0.5184
17892TIP3    H175091   3.091   0.948   4.518  2.1286 -0.5288 -0.5972
17892TIP3    H275092   3.013   1.053   4.443 -0.7008 -1.9798  0.2462
17893TIP3   OH275093   1.904   5.088   5.639 -0.3485 -0.3067  0.8195
17893TIP3    H175094   1.941   5.001   5.659  4.1548  1.4059  0.5228
17893TIP3    H275095   1.943   5.146   5.705 -1.2202  1.9382 -0.6029
17894TIP3   OH275096   6.624   3.299   4.185  0.3497 -0.0304  0.5011
17894TIP3    H175097   6.590   3.388   4.180 -0.4871 -0.1508  3.0532
17894TIP3    H275098   6.717   3.307   4.166  0.0664  1.2084 -0.3850
17895TIP3   OH275099   1.762   2.361   4.518  0.0103 -0.4994  0.0465
17895TIP3    H175100   1.765   2.308   4.598  4.8267 -2.4936 -1.3035
17895TIP3    H275101   1.849   2.400   4.512 -1.3145  2.2534 -2.5906
17896TIP3   OH275102   6.315   3.328   5.463  0.0845  0.2495 -0.1475
17896TIP3    H175103   6.347   3.287   5.544  0.0130  0.0582 -0.2151
17896TIP3    H275104   6.255   3.396   5.492 -2.3084 -1.8058 -0.1138
17897TIP3   OH275105   2.759   3.576   3.624  0.2724  0.2975 -0.0516
17897TIP3    H175106   2.711   3.553   3.545  0.3740  2.5437 -0.8232
17897TIP3    H275107   2.814   3.501   3.643 -0.8775 -0.8636 -1.2378
17898TIP3   OH275108   4.805   0.887   2.323 -0.5041 -0.1804  0.6416
17898TIP3    H175109   4.739   0.930   2.269  0.7135  0.0697 -0.6624
17898TIP3    H275110   4.826   0.950   2.391 -1.3886 -0.1537  0.9038
17899TIP3   OH275111   4.609   6.495   5.214 -0.1396  0.7999  0.1033
17899TIP3    H175112   4.667   6.568   5.235  2.8434  0.1296 -4.9951
17899TIP3    H275113   4.648   6.420   5.259  0.9935  1.0306 -0.4646
17900TIP3   OH275114   3.493   4.884   1.685 -0.6446 -0.0851 -0.5176
17900TIP3    H175115   3.569   4.860   1.738 -1.0231 -0.0936  0.0301
17900TIP3    H275116   3.459   4.963   1.727 -0.2931  0.5504 -1.4135
17901TIP3   OH275117   3.664   3.179   5.738  0.0970 -0.0216  0.0377
17901TIP3    H175118   3.658   3.194   5.832 -1.4713  0.0300 -0.0639
17901TIP3    H275119   3.711   3.255   5.705  0.1481  0.2421  0.7070
17902TIP3   OH275120   2.193   1.818   1.316 -0.3444 -0.2812 -0.3048
17902TIP3    H175121   2.197   1.732   1.275 -1.5101 -0.1146 -0.7952
17902TIP3    H275122   2.115   1.815   1.371 -0.1502  0.3155  0.0100
17903TIP3   OH275123   2.976   0.752   3.763 -0.5605 -0.1005 -0.0182
17903TIP3    H175124   2.904   0.793   3.716 -1.3016 -0.4000  0.8488
17903TIP3    H275125   3.051   0.762   3.704 -1.5638 -0.8612 -1.4549
17904TIP3   OH275126   3.892   3.102   5.117 -0.2677 -0.1433  0.1691
17904TIP3    H175127   3.811   3.111   5.066 -1.5637 -1.4155  1.9423
17904TIP3    H275128   3.960   3.136   5.060 -2.3697  3.2188 -0.4533
17905TIP3   OH275129   6.140   2.138   2.818  0.5682  0.4664  0.4529
17905TIP3    H175130   6.197   2.103   2.749  1.4320 -0.5222  1.6402
17905TIP3    H275131   6.197   2.146   2.895 -0.8138 -0.3215  1.5992
17906TIP3   OH275132   2.595   6.687   4.555  0.3003  0.2068  0.0093
17906TIP3    H175133   2.563   6.699   4.645 -0.0922  0.4011 -0.1557
17906TIP3    H275134   2.543   6.615   4.520 -0.7155  1.2205 -0.6134
17907TIP3   OH275135   4.244   1.400   4.486  0.0601 -0.6050 -0.4237
17907TIP3    H175136   4.201   1.327   4.441  0.6252 -0.0708 -1.8479
17907TIP3    H275137   4.256   1.467   4.419  2.2080 -0.3481  0.1765
17908TIP3   OH275138   2.981   1.783   5.872 -0.1299 -0.4801 -0.2536
17908TIP3    H175139   2.975   1.871   5.910 -1.0652  0.8011 -3.2000
17908TIP3    H275140   3.072   1.757   5.884  0.4950  1.4974 -0.5466
17909TIP3   OH275141   3.811   4.890   3.778 -0.5468 -0.3902 -0.0048
17909TIP3    H175142   3.780   4.817   3.724 -0.6773  0.3794 -0.9970
17909TIP3    H275143   3.873   4.850   3.839 -0.2559 -1.2532 -0.8432
17910TIP3   OH275144   1.595   0.856  14.812 -0.1392  0.3921  0.0650
17910TIP3    H175145   1.648   0.837  14.890  0.8299  0.7137 -0.4994
17910TIP3    H275146   1.659   0.882  14.746 -1.0562  1.2182 -0.5073
17911TIP3   OH275147   5.709   4.800   4.882 -0.2057 -0.4158 -0.5042
17911TIP3    H175148   5.698   4.756   4.966 -1.6788  0.0593 -0.4288
17911TIP3    H275149   5.662   4.745   4.820  1.8103 -1.3492 -1.2277
17912TIP3   OH275150   1.716   3.165   3.584 -0.6139 -0.2827 -0.4346
17912TIP3    H175151   1.741   3.097   3.522 -1.1761 -1.6779  0.8275
17912TIP3    H275152   1.771   3.149   3.661 -0.8785  0.5749 -0.0562
17913TIP3   OH275153   2.130   0.635   5.538  0.4579  0.2574 -0.4033
17913TIP3    H175154   2.196   0.700   5.561 -0.0086  0.1515  1.3582
17913TIP3    H275155   2.090   0.611   5.622 -0.7372 -0.8318 -1.2562
17914TIP3   OH275156   5.272   0.067   5.580 -0.3698  0.7912  0.5265
17914TIP3    H175157   5.363   0.061   5.549 -0.7218 -0.6342 -0.2864
17914TIP3    H275158   5.252   0.160   5.578  1.6337  1.3237  2.3697
17915TIP3   OH275159   6.026   3.208   4.050 -0.4184 -0.1161 -0.5217
17915TIP3    H175160   6.121   3.207   4.052 -0.4246  0.9290  1.4804
17915TIP3    H275161   6.000   3.182   4.139 -2.0122 -1.4610 -1.3597
17916TIP3   OH275162   5.613   2.882   4.515  0.1495  0.0754  0.2832
17916TIP3    H175163   5.644   2.792   4.520  0.1970  0.0103 -1.0691
17916TIP3    H275164   5.690   2.935   4.538  0.1728 -0.2190  0.8841
17917TIP3   OH275165   5.962   2.244   4.809 -0.4859  0.2462 -0.1199
17917TIP3    H175166   5.966   2.340   4.801  0.9230  0.3079  1.1138
17917TIP3    H275167   6.052   2.215   4.791 -1.2005 -0.9839 -1.8901
17918TIP3   OH275168   0.578   2.346   4.460  0.3105  0.7504  0.3701
17918TIP3    H175169   0.572   2.402   4.382  0.2845 -0.0799 -0.2254
17918TIP3    H275170   0.624   2.400   4.525 -1.2716  2.1252  0.3900
17919TIP3   OH275171   5.926   1.870  15.179 -0.2967 -0.0176  0.0278
17919TIP3    H175172   5.992   1.832  15.236 -0.3411  1.7416  1.3247
17919TIP3    H275173   5.843   1.856  15.225 -0.5365 -0.1185 -0.4330
17920TIP3   OH275174   1.871   1.419   5.165 -0.6735  0.2173 -0.2174
17920TIP3    H175175   1.842   1.498   5.120 -0.2630  0.2720 -0.3908
17920TIP3    H275176   1.836   1.347   5.113  0.5142  0.2716 -1.1129
17921TIP3   OH275177   4.100   1.706   1.045 -0.6247 -0.3106 -0.0163
17921TIP3    H175178   4.142   1.676   1.126 -0.9222  0.0469  0.2748
17921TIP3    H275179   4.137   1.650   0.977  1.5942  1.1086 -0.0139
17922TIP3   OH275180   5.189   3.871   0.839  0.3651  0.0923  0.2236
17922TIP3    H175181   5.215   3.948   0.889 -0.2634  0.1413  0.4782
17922TIP3    H275182   5.095   3.863   0.855  0.4012 -0.6421  0.0860
17923TIP3   OH275183   0.376   2.099   4.932 -0.2112  0.0769 -0.0325
17923TIP3    H175184   0.309   2.032   4.927 -1.6055  1.3912  0.7131
17923TIP3    H275185   0.456   2.053   4.958 -0.6182 -1.6195 -1.7219
17924TIP3   OH275186   5.182   0.367   5.619  0.0693  0.3349 -0.4537
17924TIP3    H175187   5.100   0.413   5.599 -0.0993  0.0270 -0.4649
17924TIP3    H275188   5.250   0.424   5.583 -0.1427  0.5551 -0.5109
17925TIP3   OH275189   2.507   6.701   2.594  0.1198 -0.1875  0.3525
17925TIP3    H175190   2.584   6.747   2.628 -0.7843  0.8861  0.9891
17925TIP3    H275191   2.542   6.642   2.528  1.3568  1.3022 -0.3701
17926TIP3   OH275192   3.665   4.843  15.340  0.2186 -0.0432  0.2184
17926TIP3    H175193   3.599   4.837  15.410  0.7114  0.7935  0.7488
17926TIP3    H275194   3.633   4.782  15.273  0.9298 -2.6392  2.1280
17927TIP3   OH275195   4.707   1.761   4.719 -0.0934  0.4499  0.2823
17927TIP3    H175196   4.768   1.728   4.653 -0.9226 -1.8391  0.5840
17927TIP3    H275197   4.736   1.720   4.801  0.8626  3.1729  1.3598
17928TIP3   OH275198   4.859   1.161   1.400  0.1639  0.1573 -0.1103
17928TIP3    H175199   4.948   1.189   1.420 -0.0246  1.4648 -1.0289
17928TIP3    H275200   4.860   1.067   1.415  1.1919  0.4331  1.6958
17929TIP3   OH275201   5.831   2.645   3.898 -0.2824 -0.2898  0.4122
17929TIP3    H175202   5.802   2.578   3.959 -1.5514 -0.2588 -0.1504
17929TIP3    H275203   5.796   2.618   3.813 -1.1264  1.2517  0.2359
17930TIP3   OH275204   3.839   5.344   4.165 -0.7827  0.0969 -0.6133
17930TIP3    H175205   3.771   5.350   4.098 -0.4161  1.7441 -0.8567
17930TIP3    H275206   3.821   5.416   4.224 -0.4431 -0.6833  0.4695
17931TIP3   OH275207   5.849   2.433   2.556  0.5836  0.2196 -0.4253
17931TIP3    H175208   5.817   2.365   2.497  3.4040 -0.2436 -1.5275
17931TIP3    H275209   5.843   2.394   2.643 -2.6232  0.5243 -0.4566
17932TIP3   OH275210   0.666   1.585   0.811 -0.4178 -0.1998  0.2283
17932TIP3    H175211   0.638   1.603   0.901  0.4543 -0.0051  0.4584
17932TIP3    H275212   0.680   1.672   0.772 -0.9817 -0.2769 -0.1608
17933TIP3   OH275213   3.121   0.534   3.378  0.2072  0.7763  0.0844
17933TIP3    H175214   3.085   0.520   3.465  0.7848  0.4945  0.2753
17933TIP3    H275215   3.045   0.558   3.324 -0.6881 -2.2873 -0.0900
17934TIP3   OH275216   2.281   1.998   3.031  0.0499  0.3927 -0.2875
17934TIP3    H175217   2.359   1.946   3.012 -0.8656 -0.9943 -0.3099
17934TIP3    H275218   2.230   1.995   2.950 -0.5247  0.4091  0.0687
17935TIP3   OH275219   4.785   4.542   4.308 -0.1317 -0.2341 -0.2742
17935TIP3    H175220   4.761   4.578   4.393 -0.1135  0.5565 -0.5957
17935TIP3    H275221   4.854   4.478   4.327  1.3068  1.3905  0.1223
17936TIP3   OH275222   4.668   3.279   5.212  0.2279  0.3210 -0.4728
17936TIP3    H175223   4.651   3.371   5.192  0.4983  0.0659 -1.9102
17936TIP3    H275224   4.762   3.274   5.225  0.3123  0.0982 -1.1762
17937TIP3   OH275225   6.434   6.323   3.251  0.4875  0.3880 -0.3142
17937TIP3    H175226   6.417   6.318   3.157  2.0390  1.3790 -0.6686
17937TIP3    H275227   6.390   6.246   3.288 -1.5103  0.8574 -1.6263
17938TIP3   OH275228   4.087   1.556   3.415 -0.2072  0.3209  0.0896
17938TIP3    H175229   4.097   1.464   3.436  1.6295  0.5119  0.0700
17938TIP3    H275230   4.051   1.556   3.326 -0.6761 -0.3715  0.2731
17939TIP3   OH275231   6.396   3.152   2.786  0.0433 -0.3129  0.7995
17939TIP3    H175232   6.420   3.087   2.852 -1.2798 -1.1153  0.5275
17939TIP3    H275233   6.424   3.114   2.703  1.9738  0.8283  0.9040
17940TIP3   OH275234   4.917   5.981   5.705  0.4027 -0.3335  0.6270
17940TIP3    H175235   4.938   6.009   5.794 -0.1922  0.0351  0.6556
17940TIP3    H275236   4.881   5.893   5.714  1.2077 -0.6606  0.6567
17941TIP3   OH275237   6.713   4.981   4.213 -0.0162 -0.9958  0.7184
17941TIP3    H175238   6.696   4.892   4.243  1.9528 -0.5219  3.3857
17941TIP3    H275239   6.663   5.036   4.272 -0.8558 -0.2578 -0.6394
17942TIP3   OH275240   1.219   3.919   4.177  0.0359 -0.1881  0.1677
17942TIP3    H175241   1.298   3.876   4.145 -0.3065  0.2804 -1.3447
17942TIP3    H275242   1.221   4.006   4.138 -2.2368 -0.8590 -1.5282
17943TIP3   OH275243   5.127   2.421   4.868  0.5515 -0.3123 -0.3904
17943TIP3    H175244   5.156   2.365   4.797  0.2575  1.3345 -1.8554
17943TIP3    H275245   5.035   2.396   4.883  0.6889 -0.8315 -0.4065
17944TIP3   OH275246   6.558   1.319   1.377 -0.7097 -1.3492  0.2711
17944TIP3    H175247   6.612   1.356   1.446 -1.7976  0.5452  0.1205
17944TIP3    H275248   6.483   1.280   1.423 -0.6145 -1.5294  0.2744
17945TIP3   OH275249   4.831   1.320   2.244  0.3560  0.3270  1.0913
17945TIP3    H175250   4.924   1.343   2.255  0.8497 -0.6626 -0.8341
17945TIP3    H275251   4.804   1.368   2.166 -0.9716  1.1565  2.0306
17946TIP3   OH275252   3.373   4.867   2.820  0.1273  0.1127 -0.1457
17946TIP3    H175253   3.307   4.924   2.860 -1.4563 -1.6896 -0.1134
17946TIP3    H275254   3.407   4.816   2.893 -0.8757 -1.3187 -0.6507
17947TIP3   OH275255   1.803   0.959   1.861  0.3630 -0.2245 -0.0771
17947TIP3    H175256   1.804   0.922   1.950  2.1336  1.2576  0.5678
17947TIP3    H275257   1.712   0.953   1.833  0.2150 -3.0605  0.8274
17948TIP3   OH275258   4.649   4.422   2.611  0.2539 -0.1150  0.1010
17948TIP3    H175259   4.738   4.407   2.642  1.1617  1.5371 -1.5701
17948TIP3    H275260   4.659   4.440   2.517 -1.7791  0.5641 -0.0119
17949TIP3   OH275261   4.139   2.238   3.743 -0.1205 -0.1903 -0.4958
17949TIP3    H175262   4.120   2.195   3.826  1.0862 -0.6421 -0.4427
17949TIP3    H275263   4.190   2.174   3.694  0.3857  0.6067 -1.0215
17950TIP3   OH275264   5.861   3.072   3.450 -0.1366 -0.3701 -0.2557
17950TIP3    H175265   5.780   3.036   3.415  0.0596 -0.2115 -0.8823
17950TIP3    H275266   5.930   3.035   3.395  0.1428  0.1985 -0.2947
17951TIP3   OH275267   1.784   1.606   2.096  0.4164  0.0797 -0.4591
17951TIP3    H175268   1.813   1.689   2.135 -0.0334  0.1457 -0.2681
17951TIP3    H275269   1.865   1.563   2.069  0.5945  1.1075 -1.6281
17952TIP3   OH275270   5.502   4.052   4.065  0.2674  0.0855 -0.1199
17952TIP3    H175271   5.455   4.097   3.995  1.4231  0.4850 -0.6396
17952TIP3    H275272   5.532   3.970   4.024 -0.5722 -0.5087  0.4156
17953TIP3   OH275273   0.492   3.473   0.906  0.3937 -0.1178 -0.9051
17953TIP3    H175274   0.493   3.555   0.856 -0.2642 -0.0915 -0.8798
17953TIP3    H275275   0.415   3.480   0.962  0.5738 -0.5731 -0.5943
17954TIP3   OH275276   3.954   4.327   4.659  0.2501 -0.0605 -0.0503
17954TIP3    H175277   3.937   4.233   4.649  1.5078 -0.2338 -0.6853
17954TIP3    H275278   3.988   4.354   4.574  1.2679  0.6547  0.5737
17955TIP3   OH275279   4.554   2.691   3.065 -0.0917 -0.0328  0.4036
17955TIP3    H175280   4.581   2.608   3.104  1.1734 -0.1280 -0.6117
17955TIP3    H275281   4.501   2.733   3.131  0.4658 -1.0153  1.4929
17956TIP3   OH275282   5.957   2.805   2.801 -0.6046 -0.1117  0.3228
17956TIP3    H175283   5.922   2.886   2.838 -0.1420  0.3526 -0.2444
17956TIP3    H275284   5.921   2.800   2.713  0.6800  0.3442 -0.2488
17957TIP3   OH275285   4.538   6.113   3.436 -0.8794  0.3358 -0.2486
17957TIP3    H175286   4.456   6.122   3.485 -1.1939  0.6722 -0.8230
17957TIP3    H275287   4.558   6.020   3.440 -1.9385  0.0507 -1.1161
17958TIP3   OH275288   4.660   1.898   2.936  0.0042  0.3645 -0.0897
17958TIP3    H175289   4.575   1.933   2.961  0.3378  1.6434 -0.7479
17958TIP3    H275290   4.640   1.832   2.870 -0.4603  0.7690 -0.3549
17959TIP3   OH275291   4.906   4.078   6.104 -0.3449  0.0902  0.8574
17959TIP3    H175292   4.980   4.086   6.164  2.0917 -2.5918 -1.6396
17959TIP3    H275293   4.907   4.160   6.055  1.7751 -0.3767  0.0437
17960TIP3   OH275294   2.723   6.440   4.871  0.1367  0.4971  0.0618
17960TIP3    H175295   2.780   6.511   4.842  1.5205 -0.8412 -0.4951
17960TIP3    H275296   2.757   6.362   4.828  0.0205 -0.9014  2.4256
17961TIP3   OH275297   3.409   1.528   2.740  0.3751 -0.5123  0.1663
17961TIP3    H175298   3.350   1.594   2.705  1.4776 -0.0326 -0.8344
17961TIP3    H275299   3.352   1.464   2.782 -0.8404 -0.0241 -0.7171
17962TIP3   OH275300   6.703   1.674   3.337  0.1283 -1.1956  0.1053
17962TIP3    H175301   6.621   1.722   3.345 -0.5125 -1.3768 -4.1991
17962TIP3    H275302   6.761   1.732   3.287  1.6894 -2.1793  0.7158
17963TIP3   OH275303   4.423   1.081   5.464  0.2952 -0.0843  0.2730
17963TIP3    H175304   4.335   1.091   5.501  0.1765  1.7312 -0.4392
17963TIP3    H275305   4.482   1.099   5.536  0.0661  1.5332  0.0656
17964TIP3   OH275306   6.345   4.398   5.463 -0.4173  0.2714  0.1364
17964TIP3    H175307   6.372   4.465   5.526 -0.2569  1.7344 -1.4241
17964TIP3    H275308   6.258   4.426   5.435 -0.4175 -0.2666 -0.3982
17965TIP3   OH275309   5.018   4.342   5.162 -0.5692 -0.3601  0.0427
17965TIP3    H175310   4.997   4.372   5.250 -0.5333  0.6366 -0.2857
17965TIP3    H275311   4.961   4.267   5.148  0.4519 -1.4323  1.4629
17966TIP3   OH275312   1.588   3.116   1.623  0.4296 -0.0997 -0.3642
17966TIP3    H175313   1.558   3.115   1.533  0.1447 -0.7662 -0.2600
17966TIP3    H275314   1.518   3.073   1.673  0.7633 -0.0890  0.1209
17967TIP3   OH275315   7.069   2.793   4.879  0.1642  0.3607  0.7413
17967TIP3    H175316   7.099   2.716   4.927 -1.1968 -0.6503  0.0246
17967TIP3    H275317   6.979   2.806   4.909  0.3016  1.5351  0.6705
17968TIP3   OH275318   5.965   2.965   5.448 -0.2721  0.1530  0.1348
17968TIP3    H175319   5.966   3.027   5.375  0.8814 -1.7891 -1.5438
17968TIP3    H275320   6.051   2.974   5.489 -1.1311  1.6697  1.6730
17969TIP3   OH275321   4.209   3.570   5.514  0.4683 -0.6301 -0.1525
17969TIP3    H175322   4.140   3.572   5.448  1.8178  0.4485 -1.5822
17969TIP3    H275323   4.163   3.574   5.598 -1.1601  0.9041 -1.0902
17970TIP3   OH275324   3.843   1.387   5.265  0.5855 -0.2468 -0.1669
17970TIP3    H175325   3.892   1.448   5.320 -0.2226  0.5292 -0.2966
17970TIP3    H275326   3.907   1.354   5.202  0.8997  0.8944 -0.4489
17971TIP3   OH275327   2.228   0.530   4.522 -0.4562  0.6963 -1.0118
17971TIP3    H175328   2.256   0.524   4.613 -0.3426 -1.1601 -1.1512
17971TIP3    H275329   2.152   0.588   4.525 -1.1733 -0.2675  0.4585
17972TIP3   OH275330   2.644   7.028   4.158  0.6612  0.0587 -0.7322
17972TIP3    H175331   2.610   7.089   4.092 -0.0231 -1.8241 -2.1841
17972TIP3    H275332   2.566   6.984   4.192  1.2542 -0.9744 -0.6991
17973TIP3   OH275333   6.769   5.403   5.312 -0.2746 -0.2730 -0.0182
17973TIP3    H175334   6.820   5.410   5.232 -0.3630  1.6449  0.0768
17973TIP3    H275335   6.774   5.490   5.352 -0.0556 -1.2580  2.1668
17974TIP3   OH275336   4.819   1.824   6.006  0.0948  0.5493 -0.5475
17974TIP3    H175337   4.758   1.780   5.946  1.8253  0.5468 -2.3460
17974TIP3    H275338   4.807   1.917   5.987  0.0214  0.5984 -0.2641
17975TIP3   OH275339   5.359   4.556   2.112  0.6399  0.8191  0.0859
17975TIP3    H175340   5.352   4.508   2.195 -0.2513 -1.1433 -1.0844
17975TIP3    H275341   5.414   4.500   2.057  0.2442  1.5157 -1.0404
17976TIP3   OH275342   6.567   6.453   2.662 -0.0492 -0.6809  0.2538
17976TIP3    H175343   6.524   6.369   2.650 -0.9380 -0.2954  0.7113
17976TIP3    H275344   6.628   6.439   2.734 -1.3113 -0.5269  1.3701
17977TIP3   OH275345   5.008   0.711   5.677  0.2200 -0.5034  0.3556
17977TIP3    H175346   4.938   0.646   5.672  0.8534 -1.1036 -0.8967
17977TIP3    H275347   4.998   0.750   5.764 -3.5842  1.6257 -0.9047
17978TIP3   OH275348   0.147   2.616   4.673 -0.1357  0.2755 -0.2305
17978TIP3    H175349   0.158   2.707   4.700  0.2492  0.4773 -1.0422
17978TIP3    H275350   0.181   2.564   4.746 -0.8443  0.7695  0.4529
17979TIP3   OH275351   5.171   2.808   3.582 -0.8053  0.2258 -0.5835
17979TIP3    H175352   5.123   2.778   3.659  1.6647  1.5945  1.5582
17979TIP3    H275353   5.184   2.730   3.529 -0.5085 -1.1879  1.5428
17980TIP3   OH275354   6.490   1.305  15.169  0.0733  0.4421  0.1475
17980TIP3    H175355   6.564   1.248  15.191  0.4190  0.8976  0.1507
17980TIP3    H275356   6.443   1.256  15.101 -1.3237 -1.2470  2.2523
17981TIP3   OH275357   0.522   3.221   0.733 -0.5338  0.0663 -0.1312
17981TIP3    H175358   0.483   3.304   0.761 -2.1093 -0.7845  0.2618
17981TIP3    H275359   0.508   3.162   0.807 -0.8994 -1.0123 -1.0489
17982TIP3   OH275360   2.953   4.549   5.202  0.0671 -0.3406  0.1631
17982TIP3    H175361   2.953   4.454   5.194  1.0659 -0.3914  0.5921
17982TIP3    H275362   2.886   4.568   5.268  0.3184 -0.8043  0.5627
17983TIP3   OH275363   4.684   3.085   4.408 -0.1947 -0.1640  0.5252
17983TIP3    H175364   4.698   3.090   4.503  4.3796  1.3488 -0.1317
17983TIP3    H275365   4.736   3.009   4.381 -2.2717 -1.1883 -0.7086
17984TIP3   OH275366   3.419   1.974   5.302 -0.5556 -0.2899  0.7149
17984TIP3    H175367   3.327   2.002   5.312 -0.5359 -0.0853  0.3143
17984TIP3    H275368   3.441   1.997   5.212 -0.1062 -0.3365  0.8156
17985TIP3   OH275369   3.834   3.526   3.237  0.1717  0.5151 -0.6784
17985TIP3    H175370   3.826   3.589   3.165  0.8931  0.9219 -0.4038
17985TIP3    H275371   3.927   3.502   3.237  0.1191  0.3129 -0.0562
17986TIP3   OH275372   2.366   5.488   1.420 -0.0261  0.0874  0.3437
17986TIP3    H175373   2.382   5.582   1.424  1.6500 -0.0893 -1.5613
17986TIP3    H275374   2.326   5.473   1.334 -1.1674 -0.8174  1.0175
17987TIP3   OH275375   4.340   5.700   2.953 -0.0909 -0.5319 -0.7492
17987TIP3    H175376   4.370   5.709   3.043 -0.6979 -0.4782 -0.5449
17987TIP3    H275377   4.409   5.740   2.900 -0.7766  1.5076 -0.1393
17988TIP3   OH275378   6.897   5.185   2.259  0.3451  0.0556 -0.0199
17988TIP3    H175379   6.885   5.265   2.207 -1.8738  0.9907  1.8494
17988TIP3    H275380   6.985   5.195   2.296 -0.4417  2.3355  1.3293
17989TIP3   OH275381   4.259   5.669   5.769  0.5676 -0.1181 -0.2568
17989TIP3    H175382   4.320   5.671   5.843 -0.1893  3.4042  0.4006
17989TIP3    H275383   4.192   5.605   5.794 -0.3984  1.9621  2.8086
17990TIP3   OH275384   4.999   2.313   3.706  0.1783 -0.1671  0.5103
17990TIP3    H175385   5.039   2.383   3.654  0.9561 -1.4649 -0.6833
17990TIP3    H275386   5.070   2.280   3.761 -0.3695  0.4603  1.6131
17991TIP3   OH275387   1.973   0.234   2.429 -0.7903 -0.0632  0.3564
17991TIP3    H175388   2.053   0.182   2.431 -0.0870  0.9900  0.2080
17991TIP3    H275389   1.958   0.259   2.520 -0.6767  0.1516  0.3161
17992TIP3   OH275390   5.012   4.547   5.956  0.2618 -0.0531  0.1876
17992TIP3    H175391   4.966   4.620   5.998 -2.1081 -0.6001 -1.3387
17992TIP3    H275392   5.033   4.580   5.868 -0.4846 -1.0568 -0.3774
17993TIP3   OH275393   2.138   6.358   3.130 -0.0282  0.0643  0.5974
17993TIP3    H175394   2.083   6.417   3.183 -1.7829 -0.5433 -0.4961
17993TIP3    H275395   2.129   6.273   3.172 -1.4110 -0.4149 -0.6173
17994TIP3   OH275396   3.827   6.110   2.002  0.2230  0.0356 -0.3457
17994TIP3    H175397   3.749   6.166   2.002  0.9046  0.9934 -0.6006
17994TIP3    H275398   3.878   6.140   2.077 -0.7453 -2.1700  1.2820
17995TIP3   OH275399   5.687   2.463   1.228  0.2562  0.1940  0.2061
17995TIP3    H175400   5.726   2.535   1.276  1.5619 -0.7885  0.6472
17995TIP3    H275401   5.749   2.390   1.238 -0.7601 -0.8260 -0.6836
17996TIP3   OH275402   5.033   0.014   2.173 -0.1918 -0.0788 -0.3145
17996TIP3    H175403   5.125   0.033   2.151 -0.2858 -0.8385 -1.3974
17996TIP3    H275404   5.004   0.092   2.221  0.7928  0.5054 -0.6340
17997TIP3   OH275405   2.823   2.648   4.269  0.4953 -1.0501 -0.0116
17997TIP3    H175406   2.907   2.694   4.269  0.6018 -1.2347 -1.0088
17997TIP3    H275407   2.778   2.679   4.190 -0.7315 -0.3213  0.9424
17998TIP3   OH275408   5.747   6.111   3.683 -0.3576 -0.8911  0.1963
17998TIP3    H175409   5.752   6.022   3.718  0.9889 -1.4160 -1.2294
17998TIP3    H275410   5.776   6.167   3.755  1.3108 -1.8485  0.3136
17999TIP3   OH275411   5.685   1.982   5.730  0.2675  0.4708  0.2093
17999TIP3    H175412   5.605   2.006   5.682 -0.2849 -2.5034 -0.4493
17999TIP3    H275413   5.656   1.966   5.820  0.6298  2.1005  0.6386
18000TIP3   OH275414   1.185   3.863   2.720 -0.4395 -0.1245  0.3091
18000TIP3    H175415   1.221   3.867   2.808 -1.8998  0.6981  0.8825
18000TIP3    H275416   1.239   3.924   2.669 -0.3709  0.3260  0.9184
18001TIP3   OH275417   4.012   3.123   2.529 -0.2558  0.7360 -0.2179
18001TIP3    H175418   4.081   3.175   2.488 -0.3430  1.2499  0.2800
18001TIP3    H275419   3.945   3.187   2.554 -0.7895  0.2763 -0.4418
18002TIP3   OH275420   1.280   2.635   3.692  0.5331  0.4366 -0.6919
18002TIP3    H175421   1.246   2.580   3.621 -1.5247 -0.7028  1.1047
18002TIP3    H275422   1.254   2.724   3.667 -0.8491 -0.0403 -0.9991
18003TIP3   OH275423   7.010   1.683   4.968 -0.2274  0.7062  0.0119
18003TIP3    H175424   6.971   1.687   5.056  1.5699 -1.6666  0.9426
18003TIP3    H275425   6.954   1.621   4.920 -1.2958  2.1117 -0.6078
18004TIP3   OH275426   0.487   1.284   4.380 -0.1052 -0.0285  0.0502
18004TIP3    H175427   0.490   1.364   4.432 -0.1732 -0.0055  0.0192
18004TIP3    H275428   0.547   1.224   4.424 -0.6946 -0.2526  0.5648
18005TIP3   OH275429   5.933   2.153   4.415  0.6229  0.0562  0.3559
18005TIP3    H175430   5.957   2.060   4.421  1.9969  0.2290 -1.7702
18005TIP3    H275431   5.839   2.152   4.395  0.7592 -0.9165 -0.3019
18006TIP3   OH275432   6.430   6.401   5.620  0.2279 -0.2340  0.2587
18006TIP3    H175433   6.341   6.437   5.615  0.3369  0.0122  0.0402
18006TIP3    H275434   6.485   6.475   5.646  0.4639 -0.2236 -0.2584
18007TIP3   OH275435   5.314   1.664   5.007 -0.1672 -0.0526  0.5755
18007TIP3    H175436   5.251   1.681   5.077 -1.1740 -0.3135 -0.2500
18007TIP3    H275437   5.327   1.749   4.965 -0.5491 -0.1357  0.2807
18008TIP3   OH275438   4.159   2.042   6.272  0.1612 -0.2205 -0.3714
18008TIP3    H175439   4.216   2.065   6.198  0.5246 -0.9128 -0.3109
18008TIP3    H275440   4.110   2.123   6.290  0.2990  0.0475 -1.1574
18009TIP3   OH275441   3.348   0.670   0.149  0.1426  0.6105 -0.1602
18009TIP3    H175442   3.442   0.684   0.136  0.6695 -1.9739  0.5123
18009TIP3    H275443   3.310   0.681   0.063  1.6019 -1.9594 -1.2036
18010TIP3   OH275444   6.419   5.214   2.074  0.2837 -0.2536 -0.1063
18010TIP3    H175445   6.333   5.255   2.083  0.6472 -0.0334  2.8188
18010TIP3    H275446   6.400   5.120   2.074  0.0041 -0.2010  0.2496
18011TIP3   OH275447   5.638   0.719   4.074 -0.4072 -0.6094  0.8884
18011TIP3    H175448   5.708   0.686   4.018 -0.9236 -0.2981  0.0475
18011TIP3    H275449   5.568   0.744   4.013 -0.7178  0.3592  1.6268
18012TIP3   OH275450   5.051   2.124   4.339  0.5240 -0.1831 -0.4221
18012TIP3    H175451   5.127   2.086   4.294 -0.9063 -2.7682 -0.7549
18012TIP3    H275452   5.023   2.196   4.282  2.4229  0.4970 -0.5349
18013TIP3   OH275453   2.399   3.745   3.974  0.4378  0.0314  0.0238
18013TIP3    H175454   2.457   3.675   3.944 -0.5935 -0.7093 -0.2635
18013TIP3    H275455   2.368   3.787   3.894 -0.4464 -0.4177  0.1233
18014TIP3   OH275456   3.269   3.691   3.043 -0.7886  0.1644  0.3403
18014TIP3    H175457   3.333   3.679   3.113 -2.1981  1.3630  1.8897
18014TIP3    H275458   3.186   3.704   3.089 -1.7598  0.9004 -1.5693
18015TIP3   OH275459   4.308   3.773   5.187 -0.1671  0.3012 -0.4254
18015TIP3    H175460   4.355   3.700   5.226  0.6158  0.6533 -0.6810
18015TIP3    H275461   4.375   3.841   5.176 -0.6418  0.6543 -1.1985
18016TIP3   OH275462   5.080   3.300   3.613  0.1650  0.4785  0.3809
18016TIP3    H175463   5.159   3.350   3.633  0.3889  0.6058 -0.7772
18016TIP3    H275464   5.108   3.236   3.548 -0.1870 -0.9788  1.6485
18017TIP3   OH275465   6.595   2.515   5.875 -0.3730  0.1760 -0.1623
18017TIP3    H175466   6.671   2.477   5.831 -0.2143  0.4381 -0.1140
18017TIP3    H275467   6.526   2.515   5.808  0.7518  3.5473 -1.4664
18018TIP3   OH275468   6.491   4.602   5.999 -0.3230  0.4163 -0.5628
18018TIP3    H175469   6.419   4.620   5.939 -1.8589 -1.1711  0.7354
18018TIP3    H275470   6.562   4.569   5.942 -1.2552  0.2554 -1.6538
18019TIP3   OH275471   2.221   2.419   2.534 -0.6833 -0.3272  0.1753
18019TIP3    H175472   2.256   2.494   2.486 -0.4077 -0.6395 -0.1162
18019TIP3    H275473   2.138   2.450   2.570 -0.5547  0.1271  0.0846
18020TIP3   OH275474   4.882   3.268   5.597  0.4174  0.1852  0.2675
18020TIP3    H175475   4.864   3.245   5.688  1.2031  0.8583  0.6106
18020TIP3    H275476   4.799   3.258   5.552 -0.4271  1.7024  1.4644
18021TIP3   OH275477   3.599   4.475   2.898 -0.1069 -0.0637 -0.0821
18021TIP3    H175478   3.559   4.559   2.921 -1.0931 -0.2902 -0.9398
18021TIP3    H275479   3.677   4.470   2.953  0.0055  1.4548 -0.0722
18022TIP3   OH275480   5.479   4.774   3.868  0.3308 -0.9127  0.0117
18022TIP3    H175481   5.475   4.808   3.779 -0.8008 -0.8043  0.0885
18022TIP3    H275482   5.507   4.683   3.859 -0.6329 -1.1556 -0.5209
18023TIP3   OH275483   2.343   2.812   5.109  0.3563 -0.0620  0.0730
18023TIP3    H175484   2.292   2.893   5.104 -0.9070 -0.8339  0.3242
18023TIP3    H275485   2.307   2.765   5.184  2.4715  0.0553  1.2142
18024TIP3   OH275486   6.644   4.354   2.173  0.5470  0.0918 -0.5709
18024TIP3    H175487   6.723   4.397   2.206 -0.7587  2.6204 -0.5942
18024TIP3    H275488   6.575   4.386   2.230 -0.3847 -2.5331 -0.2085
18025TIP3   OH275489   0.295   0.069   5.101 -0.1031 -0.3975 -1.2792
18025TIP3    H175490   0.346  -0.007   5.126 -0.0769  0.0532  0.0676
18025TIP3    H275491   0.323   0.089   5.011  1.4734 -0.6544 -0.8505
18026TIP3   OH275492   3.385   2.290   2.397 -0.4891  0.0026 -0.2005
18026TIP3    H175493   3.429   2.328   2.321  0.2481  1.1775  0.8035
18026TIP3    H275494   3.450   2.294   2.467 -0.6313 -2.5062  0.1037
18027TIP3   OH275495   5.219   0.694   0.785 -0.2989  0.0694  0.6315
18027TIP3    H175496   5.311   0.680   0.763 -0.5933  1.0027 -1.2824
18027TIP3    H275497   5.198   0.622   0.845  0.5746 -2.6184 -2.1352
18028TIP3   OH275498   5.038   2.474   0.429 -0.5350 -0.2817 -0.2650
18028TIP3    H175499   4.997   2.465   0.515 -0.9345 -1.1670 -0.5458
18028TIP3    H275500   4.996   2.551   0.390 -0.9283 -0.3606  0.0067
18029TIP3   OH275501   1.863   3.031   3.406  0.3058 -0.1267  0.5515
18029TIP3    H175502   1.958   3.035   3.393  0.1946 -0.4236 -0.3350
18029TIP3    H275503   1.826   3.051   3.321 -0.4884  3.4745  1.6579
18030TIP3   OH275504   4.803   2.480   2.996  0.0098  0.3976 -0.1431
18030TIP3    H175505   4.749   2.448   3.068 -0.2800  2.8446  0.7723
18030TIP3    H275506   4.873   2.530   3.039  0.8844  0.3509 -1.4805
18031TIP3   OH275507   4.296   2.236   2.515 -0.6086  0.5783  0.7868
18031TIP3    H175508   4.344   2.173   2.568  0.1537 -0.2108 -0.7880
18031TIP3    H275509   4.361   2.272   2.455 -1.6173  0.7650 -0.2277
18032TIP3   OH275510   1.679   3.540   3.784  0.7033  0.3602  0.0609
18032TIP3    H175511   1.643   3.451   3.784  0.7148  0.3553 -0.0033
18032TIP3    H275512   1.743   3.539   3.712  0.1216  0.6542 -0.4653
18033TIP3   OH275513   2.200   2.165   4.973 -0.5284  0.6543 -0.3195
18033TIP3    H175514   2.277   2.213   5.003  0.5077 -1.3834  0.3868
18033TIP3    H275515   2.126   2.208   5.016  0.6754 -0.4869  3.0103
18034TIP3   OH275516   0.910   1.087   4.030 -0.2281 -0.3899 -0.6392
18034TIP3    H175517   0.826   1.069   3.989  0.4692  0.9131 -2.7241
18034TIP3    H275518   0.925   1.180   4.015  1.7880 -0.6963 -0.7018
18035TIP3   OH275519   5.148   3.687   3.966  0.2842 -0.2877 -0.4816
18035TIP3    H175520   5.237   3.702   3.998 -0.2347  1.1615  0.3442
18035TIP3    H275521   5.155   3.698   3.871  1.2997 -1.8555 -0.6017
18036TIP3   OH275522   6.721   5.657   2.454 -0.1957 -0.1365 -0.3597
18036TIP3    H175523   6.773   5.717   2.401  1.8716 -2.0756 -0.5574
18036TIP3    H275524   6.701   5.584   2.396 -0.0658 -1.0917  0.7909
18037TIP3   OH275525   3.320   3.133   3.852 -0.4069  0.4898  1.0072
18037TIP3    H175526   3.382   3.063   3.831 -1.9385 -0.5522 -0.0633
18037TIP3    H275527   3.309   3.181   3.770 -2.0233 -0.1265  0.8479
18038TIP3   OH275528   4.124   7.039   5.102 -0.0266 -0.1786  0.2996
18038TIP3    H175529   4.138   7.037   5.196 -0.0561  2.0231  0.3708
18038TIP3    H275530   4.061   7.109   5.088  1.4972  0.9073 -1.5182
18039TIP3   OH275531   4.909   1.680   4.553 -0.2667 -0.7452  0.2002
18039TIP3    H175532   4.954   1.611   4.504 -2.2067 -1.4285 -0.6940
18039TIP3    H275533   4.923   1.759   4.501  0.1466 -0.8938  0.0844
18040TIP3   OH275534   4.811   5.133   4.570  0.8275 -0.0346 -0.0593
18040TIP3    H175535   4.882   5.159   4.629  1.6687 -2.9520  0.2773
18040TIP3    H275536   4.766   5.062   4.615 -2.3021  1.6497 -0.3283
18041TIP3   OH275537   4.331   4.690   5.044 -0.2018  0.1995 -0.8130
18041TIP3    H175538   4.401   4.624   5.048  0.7265  1.1777 -0.8082
18041TIP3    H275539   4.305   4.704   5.135 -0.2788 -0.0177 -0.7996
18042TIP3   OH275540   3.028   1.737   3.612 -0.6352  1.0886 -0.3611
18042TIP3    H175541   3.010   1.745   3.518  0.2676 -5.0833 -1.2910
18042TIP3    H275542   3.122   1.753   3.621 -0.0834 -1.5753 -1.0994
18043TIP3   OH275543   6.951   2.536   2.160 -0.5267 -0.2325 -0.0470
18043TIP3    H175544   6.948   2.452   2.116  1.0396 -1.3234  1.8083
18043TIP3    H275545   6.914   2.520   2.247 -0.4250  1.0320  0.2556
18044TIP3   OH275546   2.843   5.621   3.566 -0.4477 -0.5321  0.2453
18044TIP3    H175547   2.827   5.552   3.502 -0.7260 -0.6199  0.4060
18044TIP3    H275548   2.898   5.685   3.520  0.8939 -1.4777  0.4993
18045TIP3   OH275549   4.878   3.362   2.178  0.0293  0.7144  0.2747
18045TIP3    H175550   4.922   3.301   2.119 -2.3065  0.6067 -1.4275
18045TIP3    H275551   4.807   3.310   2.217 -0.4610  1.6804  0.6728
18046TIP3   OH275552   6.315   5.272   5.358 -0.1374 -0.0306  0.1602
18046TIP3    H175553   6.404   5.290   5.388 -0.5070  1.1385  0.5682
18046TIP3    H275554   6.302   5.178   5.374  0.6935 -0.0145  0.9333
18047TIP3   OH275555   1.080   1.587   2.810 -0.1873  0.0171 -0.7224
18047TIP3    H175556   1.151   1.524   2.808 -0.4045 -0.3010  0.7845
18047TIP3    H275557   1.002   1.536   2.790 -0.2549 -0.0368 -0.3259
18048TIP3   OH275558   3.665   3.589   5.295 -0.2647  0.2130  0.2354
18048TIP3    H175559   3.702   3.504   5.318  0.0334  0.2855  0.0292
18048TIP3    H275560   3.680   3.645   5.371  1.2117  0.6109 -0.3367
18049TIP3   OH275561   1.136   4.317   4.350  0.5658 -0.3045 -0.3831
18049TIP3    H175562   1.178   4.298   4.434  0.0721 -0.2076 -0.1159
18049TIP3    H275563   1.122   4.411   4.351  1.5904 -0.1335 -1.0564
18050TIP3   OH275564   3.390   1.387   4.683  0.3025 -0.1160  0.3262
18050TIP3    H175565   3.392   1.294   4.661  1.7075  0.4220 -1.9248
18050TIP3    H275566   3.386   1.433   4.599  1.6974  1.8991  1.3004
18051TIP3   OH275567   1.621   1.031   4.540  0.2845  0.0307  0.2322
18051TIP3    H175568   1.645   1.107   4.592 -0.3025 -0.9813  2.0170
18051TIP3    H275569   1.584   0.969   4.603 -0.6413 -1.1372 -1.4084
18052TIP3   OH275570   3.843   2.412   3.890  0.5577  0.0713  0.4794
18052TIP3    H175571   3.813   2.503   3.894 -0.2859 -0.2439  1.8832
18052TIP3    H275572   3.908   2.405   3.961 -0.7076 -0.8712  1.5655
18053TIP3   OH275573   5.430   2.787   3.439 -0.6054  0.2671  0.4829
18053TIP3    H175574   5.447   2.702   3.481 -2.7956  0.9666  2.9250
18053TIP3    H275575   5.382   2.764   3.359 -1.0840 -0.8431  1.0638
18054TIP3   OH275576   2.416   0.118   3.488  0.2670 -0.1378 -0.0577
18054TIP3    H175577   2.417   0.210   3.512  0.0800 -0.1236 -0.1024
18054TIP3    H275578   2.390   0.072   3.568 -1.2999 -0.0109 -0.4826
18055TIP3   OH275579   7.110   3.680   3.833 -1.0127  0.1901 -0.0306
18055TIP3    H175580   7.094   3.713   3.744 -0.9670  0.3071  0.0049
18055TIP3    H275581   7.093   3.755   3.890 -1.6568 -0.0530  0.1044
18056TIP3   OH275582   0.312   1.248   3.973  0.0888 -0.5069 -0.1668
18056TIP3    H175583   0.302   1.277   4.064 -0.6166  2.2221 -1.0744
18056TIP3    H275584   0.383   1.303   3.938  0.6156 -1.7919 -1.1734
18057TIP3   OH275585   1.924   2.795   5.587 -0.0932  0.4737  0.1345
18057TIP3    H175586   1.832   2.770   5.578 -0.2113  0.6999  0.6738
18057TIP3    H275587   1.939   2.799   5.681  0.5918  0.0107  0.0557
18058TIP3   OH275588   5.692   2.879   3.623  0.2045  0.2101 -0.0818
18058TIP3    H175589   5.641   2.909   3.548 -0.8948 -0.3597  0.4273
18058TIP3    H275590   5.626   2.854   3.688  1.1449  0.2253  0.8795
18059TIP3   OH275591   6.810   1.081   4.077  0.0145  0.0521  0.2446
18059TIP3    H175592   6.795   1.050   3.988 -1.5317  1.6373 -0.0694
18059TIP3    H275593   6.723   1.106   4.109  0.5088 -0.7072  2.2859
18060TIP3   OH275594   3.193   2.180   6.036 -0.2552  0.2418 -0.4039
18060TIP3    H175595   3.275   2.155   5.993 -0.8203  0.1105 -1.4023
18060TIP3    H275596   3.213   2.265   6.077  0.7919 -0.4492  0.5572
18061TIP3   OH275597   4.572   5.179   2.100 -0.1977  0.0860  0.0772
18061TIP3    H175598   4.511   5.132   2.042  1.9606 -3.4639  0.5727
18061TIP3    H275599   4.526   5.183   2.184 -0.0724 -2.0236  0.2848
18062TIP3   OH275600   1.638   6.502   5.664 -0.1404  0.0026 -0.9743
18062TIP3    H175601   1.550   6.534   5.679 -0.9601 -2.7687  0.3822
18062TIP3    H275602   1.692   6.545   5.731 -1.2091 -1.3497  0.7902
18063TIP3   OH275603   3.566   1.719   1.512 -0.3196 -0.8355  0.0711
18063TIP3    H175604   3.485   1.704   1.560  0.4478 -3.1374  0.7649
18063TIP3    H275605   3.635   1.706   1.578  0.6114  1.4824 -0.4140
18064TIP3   OH275606   3.234   2.469   2.973 -0.3641 -1.2810  0.3582
18064TIP3    H175607   3.301   2.414   2.933 -0.5509 -2.0111  1.0340
18064TIP3    H275608   3.260   2.558   2.951  1.5452 -1.4775  1.7343
18065TIP3   OH275609   4.175   2.325   5.884 -0.1143  0.3406 -0.0192
18065TIP3    H175610   4.211   2.350   5.799 -0.9486  1.6384  0.0038
18065TIP3    H275611   4.105   2.389   5.900  0.3984  0.4349  1.8802
18066TIP3   OH275612   2.346   2.478   3.990 -0.2607 -0.0473  0.2814
18066TIP3    H175613   2.438   2.487   4.017 -0.1357 -1.0277  0.2146
18066TIP3    H275614   2.302   2.442   4.067 -1.0233  2.3842  1.0261
18067TIP3   OH275615   1.878   1.915   4.915 -0.4296  0.5660  0.1337
18067TIP3    H175616   1.873   1.953   4.827  0.1128 -1.1888 -0.6717
18067TIP3    H275617   1.795   1.939   4.956 -1.0365  0.7024 -1.1450
18068TIP3   OH275618   3.820   5.011   5.047 -0.2748  0.0837  0.1737
18068TIP3    H175619   3.775   5.016   5.132 -0.5944 -0.4252  0.0343
18068TIP3    H275620   3.755   5.041   4.984 -0.2854 -0.2746  0.0176
18069TIP3   OH275621   6.917   6.814   1.127  0.0479 -0.1109 -0.0875
18069TIP3    H175622   6.865   6.871   1.183  0.0486  1.0561 -1.2339
18069TIP3    H275623   6.852   6.758   1.084  0.0085 -0.6869  0.7216
18070TIP3   OH275624   6.554   5.984   4.188 -0.4806  0.0698  0.1536
18070TIP3    H175625   6.625   5.978   4.123 -1.0839 -2.1083 -0.3767
18070TIP3    H275626   6.524   5.893   4.198  0.0600  0.2572  4.0409
18071TIP3   OH275627   1.074   2.352   3.576  0.7373 -0.0450  0.0022
18071TIP3    H175628   1.096   2.347   3.483 -3.7122 -0.3030 -1.1566
18071TIP3    H275629   1.098   2.266   3.611 -0.8760 -1.2935 -1.8042
18072TIP3   OH275630   5.079   3.742   4.747 -0.0771  0.0157  0.0364
18072TIP3    H175631   5.105   3.813   4.687  1.7499  1.1281  2.0621
18072TIP3    H275632   5.087   3.662   4.695  0.5711  1.0350 -1.4753
18073TIP3   OH275633   4.931   5.310   4.271  0.1686 -0.3388 -0.4659
18073TIP3    H175634   4.999   5.244   4.285 -0.0551 -0.3050  0.8675
18073TIP3    H275635   4.959   5.384   4.326  1.5039  1.5051 -3.4901
18074TIP3   OH275636   5.483   3.054   4.003 -0.2513  0.3339 -0.1053
18074TIP3    H175637   5.562   3.011   3.970  0.3538  3.3362 -2.7636
18074TIP3    H275638   5.507   3.084   4.091  1.1257  0.0907 -0.3957
18075TIP3   OH275639   5.022   3.993   3.835 -0.1193  0.3375 -0.6232
18075TIP3    H175640   5.051   4.050   3.906 -1.7659  1.2107 -0.6372
18075TIP3    H275641   4.996   3.912   3.880  2.2694 -0.4681 -0.6117
18076TIP3   OH275642   6.171   0.392   4.854  0.2899 -0.0528  0.1937
18076TIP3    H175643   6.185   0.360   4.765 -1.4604  0.7993 -0.4164
18076TIP3    H275644   6.130   0.319   4.899  0.5810 -0.2591  0.1299
18077TIP3   OH275645   0.042   1.634   4.719 -0.7139 -0.3218 -0.0412
18077TIP3    H175646  -0.028   1.694   4.694 -0.0092  0.1436 -0.9301
18077TIP3    H275647   0.101   1.688   4.773 -0.7634 -0.5649  0.2560
18078TIP3   OH275648   7.073   1.515   2.800 -0.6581  0.8827 -0.2146
18078TIP3    H175649   7.066   1.522   2.704 -3.7631  0.8380 -0.0368
18078TIP3    H275650   7.033   1.431   2.821 -0.4938  1.1457  1.1974
18079TIP3   OH275651   7.089   1.580   3.400 -0.6823 -0.1364  0.3935
18079TIP3    H175652   7.169   1.542   3.437 -0.3531 -0.2081 -0.3877
18079TIP3    H275653   7.086   1.548   3.310  0.7978  3.4220 -1.0372
18080TIP3   OH275654   5.414   1.870   2.624 -0.4973  0.2567 -0.3242
18080TIP3    H175655   5.358   1.798   2.652 -1.0670  1.4744  1.7276
18080TIP3    H275656   5.488   1.867   2.685 -0.1342  0.9323 -0.7309
18081TIP3   OH275657   3.522   5.164   4.600  0.4014 -0.4025 -0.4891
18081TIP3    H175658   3.608   5.136   4.630 -0.1524  0.3648  1.9209
18081TIP3    H275659   3.538   5.249   4.559  0.9054 -0.6098 -0.7240
18082TIP3   OH275660   6.694   0.154   5.229  0.2046  0.1170 -0.6092
18082TIP3    H175661   6.658   0.146   5.318  0.1406 -0.2588 -0.6672
18082TIP3    H275662   6.751   0.077   5.220 -0.1328 -0.0779 -1.0541
18083TIP3   OH275663   6.884   7.137   2.761  0.0734 -0.3360 -0.3396
18083TIP3    H175664   6.857   7.076   2.693  1.2857 -1.6227  0.3152
18083TIP3    H275665   6.979   7.144   2.753  0.1691 -0.0465  0.8388
18084TIP3   OH275666   4.382   2.855   4.713 -0.2972  0.1297  0.3952
18084TIP3    H175667   4.370   2.950   4.717  0.8605  0.2343  2.1417
18084TIP3    H275668   4.467   2.844   4.669 -0.8832 -0.1408 -0.6823
18085TIP3   OH275669   0.169   0.098   4.486  0.4447 -0.5016 -0.1748
18085TIP3    H175670   0.256   0.128   4.513  2.6047 -2.5718 -4.3600
18085TIP3    H275671   0.130   0.173   4.442  1.1772 -0.3538 -0.5714
18086TIP3   OH275672   1.290   3.335   0.633  0.0978  0.0024 -0.1239
18086TIP3    H175673   1.284   3.413   0.687  0.6581  0.6167 -0.9406
18086TIP3    H275674   1.380   3.336   0.599 -0.0184 -0.7743 -0.4732
18087TIP3   OH275675   5.561   2.553   4.832 -0.2843  0.8932 -0.2289
18087TIP3    H175676   5.489   2.554   4.769 -0.8369  0.7152  0.3936
18087TIP3    H275677   5.522   2.518   4.912  0.1670  2.0537  0.5064
18088TIP3   OH275678   0.088   2.224   2.069  0.3828  0.4144 -0.2343
18088TIP3    H175679   0.055   2.293   2.127  1.6792 -0.3132  1.4367
18088TIP3    H275680   0.047   2.144   2.103  1.9875 -0.1669  0.4018
18089TIP3   OH275681   6.521   2.569   4.259 -0.3819  0.0262  0.1595
18089TIP3    H175682   6.508   2.638   4.324  1.9955  0.9461 -0.3057
18089TIP3    H275683   6.526   2.615   4.175 -2.0579 -1.0339 -0.5623
18090TIP3   OH275684   0.133   2.205  15.531 -0.0749  0.0134 -0.4816
18090TIP3    H175685   0.049   2.160  15.529  0.6305 -1.4326  1.3665
18090TIP3    H275686   0.196   2.143  15.494  0.6523 -0.0013  0.7311
18091TIP3   OH275687   0.679   1.800   4.107  0.3384 -0.3511 -0.1664
18091TIP3    H175688   0.748   1.736   4.123  0.2812 -0.4310 -0.2414
18091TIP3    H275689   0.724   1.885   4.108  0.3811 -0.3777  0.1336
18092TIP3   OH275690   4.803   2.703   2.666 -0.3309  0.1253 -0.1735
18092TIP3    H175691   4.749   2.657   2.731 -1.2077  0.1363 -0.8711
18092TIP3    H275692   4.758   2.686   2.583 -0.5221  2.0219 -0.4849
18093TIP3   OH275693   3.361   4.648   4.509  0.7073  0.3547 -0.2908
18093TIP3    H175694   3.334   4.734   4.542  2.8423  1.6042 -1.7071
18093TIP3    H275695   3.293   4.624   4.446 -0.2391  0.6685  0.5847
18094TIP3   OH275696   0.645   3.334   3.698 -0.0326 -0.7667 -0.5048
18094TIP3    H175697   0.573   3.272   3.695 -1.0032  0.1642  1.9547
18094TIP3    H275698   0.680   3.327   3.786 -0.3249  2.3053 -0.0639
18095TIP3   OH275699   0.472   3.114   4.511 -0.0873 -0.0446 -0.2556
18095TIP3    H175700   0.564   3.088   4.511  0.0259  0.3460  0.4553
18095TIP3    H275701   0.467   3.183   4.444  0.2752  0.4001  0.1688
18096TIP3   OH275702   7.016   4.385   4.607  0.1040  0.8638 -0.0347
18096TIP3    H175703   7.063   4.362   4.688 -0.0488  3.0229  0.7092
18096TIP3    H275704   6.933   4.337   4.613  1.2430 -1.1868 -0.2693
18097TIP3   OH275705   6.110   2.706   5.472 -0.1168  0.1559 -0.1278
18097TIP3    H175706   6.031   2.759   5.459 -0.1046  0.2239  0.0623
18097TIP3    H275707   6.164   2.723   5.395  0.0030  0.6292  0.0609
18098TIP3   OH275708   0.913   1.059   5.693 -0.2995  0.6941 -0.9981
18098TIP3    H175709   0.920   0.993   5.624 -1.6000  1.7712 -2.2026
18098TIP3    H275710   0.925   1.142   5.647 -0.3970  1.3854  0.2078
18099TIP3   OH275711   5.711   3.273   5.238  0.1781 -0.4223 -0.2250
18099TIP3    H175712   5.671   3.302   5.156 -3.1066  0.2390  1.5257
18099TIP3    H275713   5.770   3.343   5.262 -1.4499  1.0199 -0.2992
18100TIP3   OH275714   5.836   1.139   2.958 -0.1656 -0.5039 -0.1272
18100TIP3    H175715   5.827   1.054   3.001 -0.2850 -1.7678 -2.5494
18100TIP3    H275716   5.773   1.136   2.886  0.9377  1.0026 -1.1890
18101TIP3   OH275717   7.059   3.750   2.241  0.4059 -0.1173  0.1748
18101TIP3    H175718   7.109   3.685   2.193 -1.7157  1.4347 -4.3616
18101TIP3    H275719   6.989   3.701   2.284  0.9623 -1.2471 -0.1964
18102TIP3   OH275720   6.154   7.017   5.232  0.5590  0.0996 -0.2678
18102TIP3    H175721   6.245   7.010   5.260 -0.0090  0.9770  1.8896
18102TIP3    H275722   6.114   7.077   5.295 -1.7691 -1.1200 -0.5270
18103TIP3   OH275723   4.043   2.108   2.078  0.3350  0.2136  0.0005
18103TIP3    H175724   4.120   2.050   2.080  0.5537  0.4166 -1.6581
18103TIP3    H275725   3.991   2.080   2.153 -0.2783 -3.1750 -1.5701
18104TIP3   OH275726   5.432   2.370   2.871 -0.3068  0.5059  0.4982
18104TIP3    H175727   5.418   2.455   2.828  1.3453  0.5388  0.0161
18104TIP3    H275728   5.362   2.315   2.837  0.2868  0.8629 -1.3638
18105TIP3   OH275729   0.104   0.167   5.544 -0.4683  0.4326 -0.3468
18105TIP3    H175730   0.159   0.127   5.477 -0.5738 -0.3243  0.0140
18105TIP3    H275731   0.114   0.261   5.531  0.7271  0.2958 -0.4282
18106TIP3   OH275732   3.803   6.747   5.261 -0.6719 -0.0121  0.2624
18106TIP3    H175733   3.835   6.768   5.349  3.1186 -0.2411 -0.9807
18106TIP3    H275734   3.791   6.832   5.219  0.2462  0.0322  0.0868
18107TIP3   OH275735   6.967   1.866   5.609  0.3549 -0.5475  0.1790
18107TIP3    H175736   7.060   1.845   5.621 -0.1323 -1.7944  1.9466
18107TIP3    H275737   6.921   1.788   5.639 -1.2644 -0.2270 -1.3664
18108TIP3   OH275738   3.858   2.929   1.874 -0.4341  0.3688 -0.2578
18108TIP3    H175739   3.815   2.998   1.925 -2.2045 -1.0018  0.1584
18108TIP3    H275740   3.797   2.912   1.802 -0.1890 -0.9797 -0.1577
18109TIP3   OH275741   4.302   5.435   1.138  0.7390  0.3682 -0.0589
18109TIP3    H175742   4.309   5.530   1.139  1.1451  0.3544 -1.0245
18109TIP3    H275743   4.279   5.413   1.048  1.1182 -0.4832  0.0442
18110TIP3   OH275744   4.938   1.079   1.676 -0.0353  0.3272  0.8462
18110TIP3    H175745   4.998   1.145   1.712 -0.1360  1.1295 -0.3887
18110TIP3    H275746   4.996   1.010   1.644  0.2909  1.2911 -0.7228
18111TIP3   OH275747   5.097   3.166   5.449 -0.0332 -0.2601  0.7568
18111TIP3    H175748   5.019   3.179   5.503  0.6287 -0.1267  1.6829
18111TIP3    H275749   5.156   3.115   5.504  0.1427 -1.2225 -0.3107
18112TIP3   OH275750   2.489   5.713   5.388 -0.6065  0.6192  0.1045
18112TIP3    H175751   2.473   5.775   5.459  1.4849 -0.8006  1.8519
18112TIP3    H275752   2.541   5.761   5.325 -0.2200  1.0834  0.7756
18113TIP3   OH275753   6.134   3.652   5.262  0.0004  0.0008  0.4174
18113TIP3    H175754   6.142   3.627   5.354  1.1752 -1.8911 -0.1879
18113TIP3    H275755   6.123   3.570   5.215  0.5388  0.8620 -1.2557
18114TIP3   OH275756   5.804   1.700   3.534  0.0869 -0.4278 -0.3887
18114TIP3    H175757   5.710   1.693   3.545 -0.0304 -0.0204 -1.1022
18114TIP3    H275758   5.835   1.610   3.530 -0.4477 -0.5694 -1.5886
18115TIP3   OH275759   0.746   2.874   3.826 -0.2003  0.4368  1.0426
18115TIP3    H175760   0.817   2.934   3.803 -0.4067  0.6074  0.8453
18115TIP3    H275761   0.774   2.833   3.907  1.8978 -2.3859 -1.0348
18116TIP3   OH275762   0.471   4.022   2.894  0.4498  0.2597 -0.0785
18116TIP3    H175763   0.415   4.043   2.969  2.0410  1.2175  0.8769
18116TIP3    H275764   0.522   3.946   2.923  0.7542  0.3570 -0.3649
18117TIP3   OH275765   6.965   2.238   5.784  0.2581 -0.4968 -1.1412
18117TIP3    H175766   6.930   2.194   5.707 -1.2501 -0.2941 -0.5864
18117TIP3    H275767   7.035   2.181   5.815  0.3238 -0.9885 -2.1774
18118TIP3   OH275768   3.073   2.230   2.981  0.4831  0.6038 -0.7141
18118TIP3    H175769   3.130   2.307   2.990  0.7864  0.1347  1.8087
18118TIP3    H275770   2.986   2.266   2.965  0.3535  1.5645  1.9314
18119TIP3   OH275771   3.219   3.501   3.493 -0.5064  0.4498  0.0534
18119TIP3    H175772   3.192   3.592   3.507 -0.4781  0.5075 -0.2644
18119TIP3    H275773   3.137   3.452   3.491 -0.5566  0.5520 -0.3813
18120TIP3   OH275774   2.949   0.631   4.387  0.1020  0.3389 -0.8445
18120TIP3    H175775   2.980   0.667   4.470  0.5684  0.0281 -0.8839
18120TIP3    H275776   2.994   0.547   4.378 -1.6569 -0.6992 -0.3147
18121TIP3   OH275777   6.687   0.658   3.770 -0.3299 -0.0701 -0.3276
18121TIP3    H175778   6.606   0.710   3.779 -0.3387  0.0870 -1.2639
18121TIP3    H275779   6.718   0.647   3.860  1.3911  4.2702 -0.2449
18122TIP3   OH275780   6.093   2.572   3.563  0.6250 -0.6321  0.1336
18122TIP3    H175781   6.175   2.608   3.530  1.3706 -2.4177 -0.0165
18122TIP3    H275782   6.027   2.638   3.540  2.0054  0.8361  0.2953
18123TIP3   OH275783   5.266   2.776   1.161 -0.7086 -0.6556 -0.0782
18123TIP3    H175784   5.248   2.870   1.163  0.5407 -0.4223  0.5440
18123TIP3    H275785   5.285   2.758   1.069 -0.6360 -0.2436 -0.1460
18124TIP3   OH275786   5.957   4.708   4.164  0.0978 -0.0012 -0.5746
18124TIP3    H175787   5.874   4.675   4.129  0.9079 -0.4603 -2.1160
18124TIP3    H275788   6.024   4.665   4.111  1.4771 -1.9869  2.6156
18125TIP3   OH275789   6.751   3.107   4.007 -0.3410  0.7346 -0.7025
18125TIP3    H175790   6.845   3.090   4.002 -0.0362  1.8712  0.6883
18125TIP3    H275791   6.717   3.039   4.064 -0.0570  1.3593  0.2292
18126TIP3   OH275792   7.034   3.206   5.661 -0.1875  0.2469  0.5327
18126TIP3    H175793   7.015   3.282   5.606 -1.9663  0.4770  1.4162
18126TIP3    H275794   7.019   3.237   5.750  0.1080 -0.8407  0.9674
18127TIP3   OH275795   0.904   3.219   4.757  0.2093 -0.3475 -0.4152
18127TIP3    H175796   0.920   3.126   4.774  1.0526 -0.2348 -0.5458
18127TIP3    H275797   0.815   3.234   4.789 -0.5308 -1.5557 -1.8286
18128TIP3   OH275798   3.346   5.276   3.936  0.3870  0.1684  0.0926
18128TIP3    H175799   3.304   5.236   4.012  0.4019 -0.2376 -0.1072
18128TIP3    H275800   3.329   5.214   3.865  0.0659  0.7205 -0.3148
18129TIP3   OH275801   5.869   3.065   2.848 -0.3142 -0.0004 -0.1900
18129TIP3    H175802   5.879   3.148   2.801  1.6158  0.2281  0.5686
18129TIP3    H275803   5.815   3.087   2.924 -2.8202 -0.2176 -1.8590
18130TIP3   OH275804   4.347   1.456   5.815  0.1982 -0.3059  0.0920
18130TIP3    H175805   4.420   1.402   5.784 -2.3053 -2.8628 -1.6520
18130TIP3    H275806   4.271   1.419   5.770 -2.4083  1.1897  3.1665
18131TIP3   OH275807   4.105   2.086   4.356  0.4815 -0.2115  0.9958
18131TIP3    H175808   4.056   2.024   4.303 -0.2667  1.6269 -0.5455
18131TIP3    H275809   4.045   2.112   4.425  0.6008 -0.7770  1.3119
18132TIP3   OH275810   0.789   2.128   3.171 -0.4704  0.8760  0.0308
18132TIP3    H175811   0.869   2.075   3.174 -1.0474 -0.0632 -0.7925
18132TIP3    H275812   0.804   2.190   3.100 -0.9093 -0.0257 -0.8547
18133TIP3   OH275813   0.478   3.214   5.347 -0.9213  0.4622  0.1852
18133TIP3    H175814   0.518   3.293   5.382  0.3397 -0.2613  0.3952
18133TIP3    H275815   0.545   3.146   5.356 -1.7109 -0.4641 -0.6847
18134TIP3   OH275816   3.837   5.292   4.680 -0.8909 -0.3721 -0.6308
18134TIP3    H175817   3.831   5.317   4.772  1.5417  1.9532 -1.0462
18134TIP3    H275818   3.788   5.360   4.633  1.3316  0.7582 -1.3603
18135TIP3   OH275819   4.421   3.755   4.049 -0.3860  0.3040 -0.2436
18135TIP3    H175820   4.345   3.808   4.075 -0.1227  0.4537  0.2263
18135TIP3    H275821   4.477   3.754   4.126  0.6146  1.1184 -0.9333
18136TIP3   OH275822   5.604   3.322   3.480  0.3997 -0.0693 -1.2966
18136TIP3    H175823   5.619   3.282   3.565 -0.2783  1.8960 -0.2287
18136TIP3    H275824   5.692   3.340   3.446  0.6631 -0.4935 -0.8468
18137TIP3   OH275825   4.569   0.001   2.760  0.0296 -0.1749  0.7867
18137TIP3    H175826   4.474   0.013   2.749 -0.0823 -0.7755  1.0616
18137TIP3    H275827   4.578  -0.091   2.786  0.6405  0.0463  1.3462
18138TIP3   OH275828   4.308   3.774   4.893  0.1651  0.5870  0.0514
18138TIP3    H175829   4.343   3.782   4.982 -1.8067  0.7946  0.8449
18138TIP3    H275830   4.278   3.683   4.887  0.4012  0.5407 -0.4536
18139TIP3   OH275831   5.994   6.971   3.083  0.2889  0.5498 -0.0974
18139TIP3    H175832   5.988   6.998   3.174 -2.5252 -0.7991  0.1522
18139TIP3    H275833   5.972   6.878   3.084 -0.6387  0.7256 -2.2737
18140TIP3   OH275834   5.145   2.696   3.819 -0.2604  0.4851  0.4312
18140TIP3    H175835   5.171   2.787   3.838  1.2904  0.6138 -2.0933
18140TIP3    H275836   5.052   2.693   3.840 -0.0440  2.2739  1.8343
18141TIP3   OH275837   2.345   4.079   2.074 -0.1099  0.2682  0.2923
18141TIP3    H175838   2.353   4.166   2.036  1.3446  0.2975  0.6619
18141TIP3    H275839   2.252   4.057   2.062 -0.7699  2.3581  1.2965
18142TIP3   OH275840   5.582   2.086   2.915  0.2843 -0.1480  0.3010
18142TIP3    H175841   5.592   2.017   2.850  1.0332  0.7496 -0.5454
18142TIP3    H275842   5.489   2.110   2.911  0.3225 -0.1120 -0.4165
18143TIP3   OH275843   5.029   1.254   4.063  0.0918  0.6320  0.5884
18143TIP3    H175844   4.976   1.175   4.075  2.4059 -1.0616 -0.1128
18143TIP3    H275845   5.116   1.230   4.095  1.0048  2.6682 -0.3011
18144TIP3   OH275846   1.897   2.648   3.593  0.1465  0.1637  0.3677
18144TIP3    H175847   1.862   2.584   3.655  0.5073  0.0964  0.5022
18144TIP3    H275848   1.992   2.644   3.605  0.3840 -1.3465 -1.6543
18145TIP3   OH275849   2.387   1.409  14.692  0.7301  0.8331 -0.2258
18145TIP3    H175850   2.311   1.408  14.749  1.2123  1.4685  0.4448
18145TIP3    H275851   2.355   1.444  14.609  0.3724  1.4906  0.1829
18146TIP3   OH275852   6.316   0.638   4.897  0.0941  0.6433  0.1328
18146TIP3    H175853   6.260   0.670   4.968 -0.3730  3.8220 -1.5625
18146TIP3    H275854   6.274   0.557   4.868 -1.7643  1.2259  1.1113
18147TIP3   OH275855   0.408   4.331   0.548  0.0350 -0.1221  0.2491
18147TIP3    H175856   0.472   4.342   0.477  0.4582  1.2254  0.8148
18147TIP3    H275857   0.424   4.406   0.606  1.3083 -2.4842  3.0441
18148TIP3   OH275858   0.494   2.705   5.039  1.1481  0.0150 -0.0345
18148TIP3    H175859   0.438   2.770   5.081  0.5905  0.6031 -1.6236
18148TIP3    H275860   0.560   2.684   5.104  0.5511  1.2019  0.9778
18149TIP3   OH275861   2.343   1.187   1.711  0.0625  0.4649 -0.4658
18149TIP3    H175862   2.379   1.264   1.756  0.8588  1.1738 -2.2575
18149TIP3    H275863   2.420   1.144   1.673 -0.5441 -0.3631 -0.7599
18150TIP3   OH275864   4.359   5.556   4.704 -1.0124  0.5731 -0.0195
18150TIP3    H175865   4.277   5.514   4.678 -1.3593  0.5951  1.0313
18150TIP3    H275866   4.335   5.614   4.776  0.0559 -0.0277  0.8321
18151TIP3   OH275867   6.174   2.744   4.272  0.0090  0.1941 -0.1429
18151TIP3    H175868   6.112   2.725   4.343  0.3412  0.3620  0.1912
18151TIP3    H275869   6.122   2.732   4.192 -0.5211  0.5723  0.1407
18152TIP3   OH275870   6.783   5.156   5.401  0.3427  0.3651  0.1641
18152TIP3    H175871   6.772   5.243   5.363 -1.0744  0.7189  1.3139
18152TIP3    H275872   6.865   5.161   5.449  1.0293  0.5901 -1.0206
18153TIP3   OH275873   6.427   2.735   5.643  0.1454  0.8796 -0.0191
18153TIP3    H175874   6.408   2.649   5.680  0.0708  1.4311  1.2496
18153TIP3    H275875   6.514   2.757   5.677  0.6458  0.8335 -1.2304
18154TIP3   OH275876   1.506   1.253   4.876 -0.2390  0.0968  0.0379
18154TIP3    H175877   1.429   1.262   4.932  0.5823  0.9182  1.0685
18154TIP3    H275878   1.540   1.343   4.867  1.7247 -0.4828  1.2520
18155TIP3   OH275879   1.636   4.329  15.525  0.1972  0.2784  1.0361
18155TIP3    H175880   1.696   4.254  15.532 -1.9984 -1.7833 -1.3763
18155TIP3    H275881   1.598   4.338  15.613  1.3534 -0.6656  1.6446
18156TIP3   OH275882   3.648   2.681   3.317  0.5687  0.0997  0.6434
18156TIP3    H175883   3.670   2.589   3.303  1.9156  0.6593 -1.1212
18156TIP3    H275884   3.611   2.710   3.233  1.0334  1.3990  0.8722
18157TIP3   OH275885   5.808   3.524   5.608  0.6747 -0.3860 -0.7084
18157TIP3    H175886   5.755   3.604   5.611 -0.8509 -1.4220  0.2344
18157TIP3    H275887   5.767   3.465   5.672  1.1843 -2.3136 -2.1246
18158TIP3   OH275888   7.001   1.926   0.519  0.3606  0.0216  0.6358
18158TIP3    H175889   7.053   1.869   0.575  0.1319 -1.3891 -0.5276
18158TIP3    H275890   6.925   1.948   0.572  0.2613 -1.0960  0.9849
18159TIP3   OH275891   6.661   4.987   2.701 -0.1805  0.6429  0.3012
18159TIP3    H175892   6.653   5.042   2.778  0.0653  0.5077  0.4251
18159TIP3    H275893   6.637   4.899   2.732 -1.0100  0.7604  0.0003
18160TIP3   OH275894   6.577   1.379  14.316 -0.3866  0.1067 -0.1928
18160TIP3    H175895   6.526   1.377  14.396 -1.6669 -0.2910 -1.0037
18160TIP3    H275896   6.574   1.289  14.283  0.1649  0.2522 -0.6562
18161TIP3   OH275897   6.196   6.966   4.054 -0.5537 -0.0190  0.6882
18161TIP3    H175898   6.153   6.881   4.064 -1.6280  0.6437  1.8710
18161TIP3    H275899   6.155   7.022   4.120  0.2572  1.3825  0.0377
18162TIP3   OH275900   1.838   0.098   4.546 -0.6396 -0.4314 -0.2336
18162TIP3    H175901   1.811   0.122   4.457  2.5221  1.1832 -0.7971
18162TIP3    H275902   1.863   0.180   4.587 -0.0873 -1.4380  1.4861
18163TIP3   OH275903   0.518   5.072   3.478  0.0052 -0.8430 -0.0915
18163TIP3    H175904   0.437   5.063   3.527  1.1871 -0.7798  1.9272
18163TIP3    H275905   0.492   5.114   3.396 -1.7181  0.9229  1.3184
18164TIP3   OH275906   2.556   2.794   3.503  0.3361 -0.7642  0.5207
18164TIP3    H175907   2.572   2.749   3.586 -2.8514 -0.6465  1.2895
18164TIP3    H275908   2.520   2.727   3.445 -0.1583 -0.2341  0.2000
18165TIP3   OH275909   6.751   5.601   5.496  0.1687 -0.7404 -0.0163
18165TIP3    H175910   6.776   5.537   5.562  1.6294  0.1617  0.3376
18165TIP3    H275911   6.679   5.650   5.536  1.3976  0.1486  1.1350
18166TIP3   OH275912   5.893   5.015   2.304 -0.4532  0.1655  0.6640
18166TIP3    H175913   5.873   5.103   2.274  2.3821  0.4705 -0.4951
18166TIP3    H275914   5.960   4.984   2.243 -1.0461 -2.6102  1.3494
18167TIP3   OH275915   5.260   6.425   3.564 -0.3122 -0.0653  0.3446
18167TIP3    H175916   5.352   6.410   3.547 -0.5932  0.4235 -1.6671
18167TIP3    H275917   5.218   6.340   3.552 -0.3965  0.1135 -0.6211
18168TIP3   OH275918   6.312   5.729   5.023  0.2357  0.0934 -0.1604
18168TIP3    H175919   6.386   5.674   5.051  0.4829  0.7571  0.4954
18168TIP3    H275920   6.280   5.686   4.944  1.9091  0.3149 -0.9842
18169TIP3   OH275921   4.801   5.120   5.442  0.4067  0.1755 -0.1578
18169TIP3    H175922   4.816   5.061   5.517  0.4851 -0.4744 -0.6833
18169TIP3    H275923   4.884   5.168   5.433  0.2576  0.5447  0.4279
18170TIP3   OH275924   5.300   2.912   2.736 -0.6706  0.1984 -0.2453
18170TIP3    H175925   5.365   2.876   2.676 -0.5433  1.1062 -0.6599
18170TIP3    H275926   5.219   2.915   2.685 -0.5269  1.1126 -0.4213
18171TIP3   OH275927   5.442   0.264   1.448  0.5273  0.3812  0.4149
18171TIP3    H175928   5.457   0.215   1.529 -1.1088 -1.9790 -0.6847
18171TIP3    H275929   5.357   0.306   1.461  1.1425  1.6059  0.6495
18172TIP3   OH275930   3.446   2.541   4.754 -0.3610 -0.1049 -0.1913
18172TIP3    H175931   3.440   2.630   4.788  0.1268  0.2988 -1.1491
18172TIP3    H275932   3.484   2.491   4.827 -0.4278  0.5076  0.2707
18173TIP3   OH275933   5.428   2.740   4.291 -0.0580 -0.1229  0.0193
18173TIP3    H175934   5.408   2.833   4.303 -1.4484 -0.7085  2.7368
18173TIP3    H275935   5.523   2.736   4.287  0.0294  1.3989  0.1520
18174TIP3   OH275936   4.656   0.251   3.320 -0.3116 -0.6699  0.6841
18174TIP3    H175937   4.703   0.229   3.400  0.8958 -2.0154 -0.3426
18174TIP3    H275938   4.663   0.172   3.266 -2.4450 -0.3389 -0.1255
18175TIP3   OH275939   7.077   0.646   0.284 -0.8539 -0.1293  0.1487
18175TIP3    H175940   7.157   0.679   0.243 -0.6122 -0.0937  0.6541
18175TIP3    H275941   7.077   0.552   0.263  1.1897 -0.8993  3.1707
18176TIP3   OH275942   3.817   5.635   0.836  0.3585  0.1782  0.4146
18176TIP3    H175943   3.724   5.628   0.861  0.4574 -0.1382  0.6955
18176TIP3    H275944   3.823   5.720   0.792 -0.6579 -1.0331 -2.1960
18177TIP3   OH275945   0.632   0.412   4.078  0.2264 -0.0835  0.4985
18177TIP3    H175946   0.583   0.374   4.151  0.6353  0.7652  1.2108
18177TIP3    H275947   0.721   0.378   4.089  1.0073  2.4365  2.1194
18178TIP3   OH275948   1.853   3.510   4.482 -0.4186  0.5294 -0.5876
18178TIP3    H175949   1.859   3.504   4.387  0.6497  1.4948 -0.6063
18178TIP3    H275950   1.941   3.537   4.509 -0.7752  0.4789  0.6514
18179TIP3   OH275951   5.632   5.808   4.102 -0.3297  0.2088  0.0489
18179TIP3    H175952   5.544   5.819   4.139 -0.3972 -0.5715  0.1318
18179TIP3    H275953   5.672   5.895   4.111 -1.1379  0.6078 -0.1271
18180TIP3   OH275954   7.061   4.593   3.011 -0.1491  0.0866 -0.0918
18180TIP3    H175955   7.023   4.634   3.089 -0.9839  0.6102 -0.7638
18180TIP3    H275956   7.104   4.514   3.044 -1.1155 -0.0770  0.7896
18181TIP3   OH275957   5.382   5.777   2.102  0.1029 -0.1362  0.2685
18181TIP3    H175958   5.357   5.862   2.065  0.3130  0.3172  1.1685
18181TIP3    H275959   5.474   5.767   2.079  0.3952  0.4198  1.1754
18182TIP3   OH275960   4.454   7.147   4.931  0.4085 -0.2542  0.3581
18182TIP3    H175961   4.380   7.185   4.884  0.6205  0.6954  0.7760
18182TIP3    H275962   4.523   7.213   4.924  0.9514 -0.7859  0.6553
18183TIP3   OH275963   5.767   4.504   0.316  0.2287 -0.1358  0.1997
18183TIP3    H175964   5.691   4.549   0.279 -0.3082 -0.8327  0.4642
18183TIP3    H275965   5.739   4.414   0.328  1.6346 -0.8053 -1.3050
18184TIP3   OH275966   4.705   4.358   3.215 -0.0407  0.0079 -0.5136
18184TIP3    H175967   4.754   4.284   3.178  0.2479  0.9515 -2.0574
18184TIP3    H275968   4.767   4.400   3.274  0.1751 -0.2957 -0.5204
18185TIP3   OH275969   7.042   4.449   5.888 -0.3544 -0.3088  0.3478
18185TIP3    H175970   7.054   4.539   5.856 -1.1764  0.0919  1.1469
18185TIP3    H275971   7.117   4.401   5.852 -0.3256  0.5152 -0.7358
18186TIP3   OH275972   1.483   2.859   2.154 -0.1071 -0.1461 -0.4883
18186TIP3    H175973   1.521   2.774   2.175 -0.7688 -0.5768 -1.0147
18186TIP3    H275974   1.534   2.922   2.206  0.9724 -0.7633 -0.7858
18187TIP3   OH275975   6.575   0.727   4.939 -0.1864 -0.1879  0.4073
18187TIP3    H175976   6.497   0.674   4.918 -1.0768  1.5814 -0.8508
18187TIP3    H275977   6.647   0.679   4.899 -1.0673 -0.1648 -1.2869
18188TIP3   OH275978   5.047   0.853   3.930  0.4302 -0.2830  0.1333
18188TIP3    H175979   5.047   0.933   3.877 -3.7591 -0.0352  0.3702
18188TIP3    H275980   5.057   0.884   4.020  1.3492 -0.2411  0.0218
18189TIP3   OH275981   0.101   1.178   5.583  0.1710  0.4373  0.0713
18189TIP3    H175982   0.018   1.131   5.583  0.6360 -0.3957 -0.7648
18189TIP3    H275983   0.142   1.155   5.666 -0.2227  0.4900  0.2835
18190TIP3   OH275984   0.700   3.005   2.045  0.1080 -0.4065  0.3462
18190TIP3    H175985   0.674   2.966   2.129  1.1564 -1.7336  0.0751
18190TIP3    H275986   0.777   2.955   2.019  1.8516  2.2860  0.2484
18191TIP3   OH275987   3.098   2.303   1.999 -0.3620 -0.2410  0.0479
18191TIP3    H175988   3.116   2.266   2.086 -1.7671 -0.4909  0.2484
18191TIP3    H275989   3.161   2.374   1.990 -0.2096 -0.2004  1.2848
18192TIP3   OH275990   3.135   6.841   4.102 -0.3092  0.2141 -0.0049
18192TIP3    H175991   3.091   6.825   4.185 -0.5055 -0.4876 -0.2464
18192TIP3    H275992   3.158   6.754   4.070  0.3569  0.5214 -0.3646
18193TIP3   OH275993   4.574   5.834   3.434  0.3565  0.7637 -0.1427
18193TIP3    H175994   4.540   5.752   3.471 -1.5788  1.8712  0.6021
18193TIP3    H275995   4.666   5.836   3.461 -0.4173  0.4362  2.7241
18194TIP3   OH275996   0.473   7.069   3.066 -0.4566  0.2484 -0.2763
18194TIP3    H175997   0.558   7.085   3.024 -1.2932  0.7282 -1.8398
18194TIP3    H275998   0.412   7.126   3.019 -1.7678 -0.5553  0.4154
18195TIP3   OH275999   6.098   0.948   2.807 -0.3305  0.6458 -0.0390
18195TIP3    H176000   6.008   0.968   2.833 -0.1503  1.5065 -0.0551
18195TIP3    H276001   6.112   0.858   2.835 -1.5794  0.1234 -1.0437
18196TIP3   OH276002   2.150   5.134   3.475 -0.3507 -0.1407 -0.1747
18196TIP3    H176003   2.166   5.143   3.381  2.4236 -0.6620  0.2031
18196TIP3    H276004   2.135   5.040   3.488 -2.2429  0.1213 -0.2726
18197TIP3   OH276005   6.171   2.236   1.068  0.1975  0.2154 -0.2865
18197TIP3    H176006   6.122   2.153   1.072  0.3523  0.1012 -0.7947
18197TIP3    H276007   6.190   2.256   1.160  0.5006 -0.5172 -0.1796
18198TIP3   OH276008   4.327   0.833   2.304 -0.4543 -0.6493 -0.5432
18198TIP3    H176009   4.258   0.836   2.371  0.7898  0.4697  0.7269
18198TIP3    H276010   4.294   0.888   2.233 -0.4802  0.7009  0.4806
18199TIP3   OH276011   3.967   1.645   4.923  0.3130 -0.0699  0.4954
18199TIP3    H176012   4.033   1.599   4.975  0.3649 -2.0125 -1.1953
18199TIP3    H276013   3.997   1.736   4.922  2.9487 -0.8827 -0.1396
18200TIP3   OH276014   0.366   1.499   5.696  0.0408 -0.1313  0.2586
18200TIP3    H176015   0.355   1.416   5.741  1.6606 -0.4833  0.0380
18200TIP3    H276016   0.439   1.542   5.741 -0.3537  0.8799 -0.0433
18201TIP3   OH276017   3.397   3.230   5.135 -0.1015 -0.7404 -0.9728
18201TIP3    H176018   3.417   3.269   5.050 -1.6099 -0.0135 -1.0055
18201TIP3    H276019   3.399   3.303   5.196  0.7213 -1.2207 -0.3973
18202TIP3   OH276020   0.615   2.475   5.398  0.0713 -0.4018 -0.1723
18202TIP3    H176021   0.648   2.517   5.318 -2.9667  0.9182 -0.8253
18202TIP3    H276022   0.649   2.528   5.469  0.6721 -0.0252 -0.7342
18203TIP3   OH276023   7.126   2.856   3.387 -0.3044 -0.1184 -0.1359
18203TIP3    H176024   7.071   2.790   3.343  0.8114 -1.4316  0.4193
18203TIP3    H276025   7.173   2.899   3.315  0.0073 -0.8802 -0.3928
18204TIP3   OH276026   0.086   3.482   5.201  0.1004  0.3127 -0.9325
18204TIP3    H176027   0.088   3.530   5.283 -2.0369 -1.4349  0.2080
18204TIP3    H276028   0.154   3.415   5.210  0.5276  0.7370 -0.9917
18205TIP3   OH276029   0.727   1.408   3.475 -0.6174 -0.6839  0.8977
18205TIP3    H176030   0.712   1.499   3.450  0.5703 -0.9686 -0.9596
18205TIP3    H276031   0.639   1.374   3.493 -1.0768  0.7940  1.5311
18206TIP3   OH276032   0.526   1.874   3.662  0.1871 -0.6100  0.1690
18206TIP3    H176033   0.467   1.880   3.737  0.2364  1.3587  0.0696
18206TIP3    H276034   0.474   1.832   3.594 -0.4364 -0.7397  0.7246
18207TIP3   OH276035   0.439   0.164   4.555 -0.1307  0.3780 -0.2214
18207TIP3    H176036   0.460   0.249   4.594 -0.5966  0.9466 -1.1987
18207TIP3    H276037   0.524   0.120   4.548  0.3442  1.4158 -1.2196
18208TIP3   OH276038   0.440   2.498   3.796 -0.0429 -0.0387  0.6227
18208TIP3    H176039   0.352   2.527   3.821  0.1367 -0.1986  1.4712
18208TIP3    H276040   0.447   2.409   3.832  0.1036 -0.4186 -0.3097
18209TIP3   OH276041   5.456   1.385   5.528  0.0981  0.8491  0.0253
18209TIP3    H176042   5.395   1.455   5.551  0.1357  0.7353  0.4812
18209TIP3    H276043   5.445   1.320   5.597  0.9178  0.9448  0.2562
18210TIP3   OH276044   4.033   2.573   5.284  0.1680 -0.0673  0.2558
18210TIP3    H176045   4.009   2.605   5.371  1.1752 -1.6123  1.1315
18210TIP3    H276046   4.070   2.649   5.240  2.3901  0.0638  2.2371
18211TIP3   OH276047   5.471   1.888   3.237 -0.1990  0.1934 -0.4212
18211TIP3    H176048   5.438   1.884   3.147 -0.3343  1.1193 -0.4228
18211TIP3    H276049   5.396   1.919   3.288  0.8901  3.3453 -0.5791
18212TIP3   OH276050   5.972   3.181   5.015  0.1436  0.0250 -0.0249
18212TIP3    H176051   6.027   3.153   4.942 -0.0579  2.0529 -0.9995
18212TIP3    H276052   5.887   3.140   4.999  0.3986 -0.3716 -0.3694
18213TIP3   OH276053   5.467   4.041   1.693  0.1872 -0.1206 -0.7298
18213TIP3    H176054   5.522   4.015   1.767 -0.7467 -0.3779 -0.1180
18213TIP3    H276055   5.479   4.136   1.687  0.0430 -0.0552 -0.0624
18214TIP3   OH276056   6.229   4.858   3.403 -0.0790  0.0854 -0.0453
18214TIP3    H176057   6.241   4.846   3.309 -0.5198  1.1110 -0.2368
18214TIP3    H276058   6.311   4.897   3.433  0.2314 -0.6514  0.0786
18215TIP3   OH276059   4.765   3.879   4.535  0.1490  0.0656  0.1078
18215TIP3    H176060   4.847   3.921   4.559  0.3990  0.3920 -1.3085
18215TIP3    H276061   4.790   3.789   4.515  0.4649  0.6551 -2.1873
18216TIP3   OH276062   6.244   1.667   2.249 -0.1431 -0.4994  0.3512
18216TIP3    H176063   6.272   1.749   2.289  1.4791 -1.0982  0.4996
18216TIP3    H276064   6.318   1.641   2.193 -1.0582 -1.3223 -0.4961
18217TIP3   OH276065   6.102   2.972   3.026  0.2319 -0.4405  0.0190
18217TIP3    H176066   6.190   3.003   3.046  1.0865 -2.0148 -1.1382
18217TIP3    H276067   6.100   2.963   2.931 -0.7346 -1.6320  0.1245
18218TIP3   OH276068   0.184   2.164   4.304 -0.2469 -0.1837 -0.2260
18218TIP3    H176069   0.147   2.237   4.353  1.2929  0.2944  0.2295
18218TIP3    H276070   0.224   2.108   4.371  2.6312  0.9100 -0.9621
18219TIP3   OH276071   6.884   3.786   6.015 -0.1343 -0.6434 -0.0439
18219TIP3    H176072   6.880   3.690   6.018  0.6439 -0.6996 -0.6036
18219TIP3    H276073   6.972   3.805   5.982 -0.7329  0.2323 -1.1667
18220TIP3   OH276074   6.194   1.471   1.609  0.3831  0.5232 -1.1133
18220TIP3    H176075   6.220   1.427   1.527  0.0334  0.5702 -1.2487
18220TIP3    H276076   6.178   1.561   1.584 -0.1607  0.4373 -1.0771
18221TIP3   OH276077   5.718   7.067   3.514 -0.2848 -0.3420  0.3354
18221TIP3    H176078   5.787   7.002   3.525  0.2108 -0.0378 -0.9092
18221TIP3    H276079   5.729   7.126   3.590  0.9050 -0.2244  0.0886
18222TIP3   OH276080   2.283   3.026   3.625  0.4689 -0.0732  0.5633
18222TIP3    H176081   2.307   3.061   3.539  0.6962 -0.9789  0.2524
18222TIP3    H276082   2.196   3.063   3.642  0.9280  1.0500  0.4781
18223TIP3   OH276083   3.919   2.307   4.189  0.5560  0.3197  0.3180
18223TIP3    H176084   3.888   2.220   4.164  0.2023  0.8369 -1.1148
18223TIP3    H276085   3.895   2.316   4.281 -0.2272 -0.7404  0.2204
18224TIP3   OH276086   4.998   4.922   4.985 -0.7212  0.1452  0.5166
18224TIP3    H176087   4.918   4.883   4.951  0.7217 -1.0730 -1.6319
18224TIP3    H276088   5.052   4.847   5.013  0.4674  0.8074  0.0595
18225TIP3   OH276089   4.263   2.769   2.425  0.1041  0.1754 -0.4434
18225TIP3    H176090   4.319   2.695   2.449 -0.4918 -0.2924 -0.4818
18225TIP3    H276091   4.206   2.735   2.356 -1.9683 -0.1136  1.3749
18226TIP3   OH276092   6.633   2.141   4.151  0.1494  0.9107 -0.1116
18226TIP3    H176093   6.566   2.073   4.146 -1.1822  2.3268 -1.7570
18226TIP3    H276094   6.626   2.175   4.240 -0.7094  0.4641 -0.0050
18227TIP3   OH276095   5.867   6.939   5.346  0.0126 -0.2566 -0.4894
18227TIP3    H176096   5.936   6.988   5.391 -0.0965  0.8808 -1.5300
18227TIP3    H276097   5.796   7.002   5.336 -0.7766 -1.1154 -0.3739
18228TIP3   OH276098   6.588   4.787   6.149  0.0642  0.3887 -0.0481
18228TIP3    H176099   6.543   4.720   6.098 -0.6353  0.5350  0.3699
18228TIP3    H276100   6.673   4.798   6.106 -0.1540 -0.1577 -0.6148
18229TIP3   OH276101   5.571   2.512   5.100 -0.0080  0.2018 -0.4059
18229TIP3    H176102   5.615   2.447   5.154  1.0252  2.0681  1.0816
18229TIP3    H276103   5.604   2.596   5.133 -0.2514  1.4284 -3.1779
18230TIP3   OH276104   6.857   1.853   3.159 -0.0814  0.1958  0.2368
18230TIP3    H176105   6.914   1.782   3.129 -2.6769 -2.3599  1.0671
18230TIP3    H276106   6.899   1.886   3.238  0.8983 -0.7440  0.1167
18231TIP3   OH276107   4.891   3.994   2.758  0.4399 -0.4058  0.3962
18231TIP3    H176108   4.960   4.032   2.812  0.6406  2.5528 -1.7914
18231TIP3    H276109   4.810   4.027   2.797  0.4173 -1.1319  0.9662
18232TIP3   OH276110   2.013   4.498   4.607 -0.1904 -0.3269  0.3053
18232TIP3    H176111   2.074   4.453   4.666 -1.7060  0.0747  2.2507
18232TIP3    H276112   1.932   4.447   4.614 -0.0427 -0.9930 -2.4336
18233TIP3   OH276113   0.016   5.488   4.670  0.4453  0.1143  0.3732
18233TIP3    H176114   0.059   5.483   4.756 -1.7845  0.4167  1.5319
18233TIP3    H276115  -0.064   5.436   4.680 -0.0917  0.5697 -1.3809
18234TIP3   OH276116   1.412   3.645   4.135  0.2807  0.7769  0.4404
18234TIP3    H176117   1.439   3.554   4.125 -2.2392 -0.0295  0.7303
18234TIP3    H276118   1.420   3.662   4.229 -1.1083  0.2565  0.6510
18235TIP3   OH276119   1.533   5.666   4.432 -0.7934 -0.1147  0.5231
18235TIP3    H176120   1.461   5.606   4.453 -2.2159  1.7215  1.0469
18235TIP3    H276121   1.520   5.687   4.340  0.9207 -2.1883 -0.2141
18236TIP3   OH276122   0.249   3.016   2.323  0.1958  0.2062  0.3226
18236TIP3    H176123   0.185   2.958   2.364  0.9496 -1.5426 -0.9216
18236TIP3    H276124   0.321   3.020   2.387  0.7060 -1.2899 -0.1401
18237TIP3   OH276125   4.091   4.936   0.673 -0.0235 -0.1210  0.3218
18237TIP3    H176126   4.094   5.019   0.625  1.4152 -0.5604 -0.3646
18237TIP3    H276127   4.182   4.907   0.676 -0.1941 -0.5232  2.5865
18238TIP3   OH276128   2.030   7.158   2.113 -0.4616  0.7080 -0.1912
18238TIP3    H176129   2.085   7.210   2.055  1.0172 -1.2606 -0.5892
18238TIP3    H276130   2.030   7.071   2.075 -2.1903  0.1655  0.9546
18239TIP3   OH276131   3.169   6.558   3.175 -0.2919  0.0434 -0.9487
18239TIP3    H176132   3.245   6.581   3.121 -0.8459  0.1291 -1.7033
18239TIP3    H276133   3.157   6.465   3.160  1.7896 -0.7535  1.9036
18240TIP3   OH276134   7.030   0.091   2.143 -0.5921  0.3021  0.2152
18240TIP3    H176135   6.936   0.072   2.138 -0.4590  0.0058 -1.2031
18240TIP3    H276136   7.035   0.171   2.196 -1.5534 -0.2942  1.2475
18241TIP3   OH276137   6.016   2.016   1.174 -0.2724 -0.0842 -0.1372
18241TIP3    H176138   6.087   1.952   1.168 -0.8521 -0.7629  0.2795
18241TIP3    H276139   5.938   1.964   1.192 -0.7393  0.7431  0.2374
18242TIP3   OH276140   1.933   7.076   2.398 -0.8180 -0.1206 -0.4737
18242TIP3    H176141   2.020   7.115   2.388 -1.6449  1.5372 -1.2897
18242TIP3    H276142   1.916   7.033   2.314 -0.7458 -0.5562 -0.2693
18243TIP3   OH276143   6.572   1.020   1.434 -0.3978  0.3172 -0.0139
18243TIP3    H176144   6.557   1.110   1.463 -0.7772  0.6813 -1.3528
18243TIP3    H276145   6.495   0.972   1.463 -0.3640  0.4852  0.3666
18244TIP3   OH276146   5.332   6.175   3.946 -0.1038  0.4704  0.4236
18244TIP3    H176147   5.253   6.122   3.957  1.0855 -1.0643  1.8366
18244TIP3    H276148   5.378   6.135   3.873  1.0047 -0.7486  1.7645
18245TIP3   OH276149   0.567   1.531   3.066 -0.6887 -0.0087  0.0028
18245TIP3    H176150   0.486   1.515   3.114  0.3336 -0.1879  1.7179
18245TIP3    H276151   0.596   1.617   3.097  0.1417 -0.2587 -0.0672
18246TIP3   OH276152   0.654   0.720   4.395  0.7685  0.0096 -0.1306
18246TIP3    H176153   0.593   0.769   4.450  0.9772 -0.2625  0.3458
18246TIP3    H276154   0.673   0.779   4.322  0.1474  0.2000 -0.1407
18247TIP3   OH276155   4.530   2.785   5.675  0.2239 -0.0876 -0.0196
18247TIP3    H176156   4.514   2.873   5.710 -1.1800 -0.1497 -0.4782
18247TIP3    H276157   4.492   2.787   5.588  0.5758 -1.0249 -0.1972
18248TIP3   OH276158   2.271   3.404   0.222 -0.0756 -0.1676 -0.2324
18248TIP3    H176159   2.186   3.448   0.214 -1.0403 -1.8396  0.5699
18248TIP3    H276160   2.291   3.408   0.315  0.2202 -0.6752 -0.2722
18249TIP3   OH276161   5.999   1.967   5.167  0.8493  0.6076 -0.0351
18249TIP3    H176162   5.926   2.012   5.123 -1.1401 -0.5604  1.9340
18249TIP3    H276163   6.008   2.012   5.250  0.7978 -0.7515  0.7201
18250TIP3   OH276164   6.896   6.695  15.099  0.0832  0.4215 -0.0343
18250TIP3    H176165   6.953   6.651  15.036 -0.2712  0.5985 -0.4806
18250TIP3    H276166   6.808   6.680  15.065 -0.1919 -0.5156  1.0725
18251TIP3   OH276167   6.332   0.551   3.735 -0.4842  0.3117  0.1174
18251TIP3    H176168   6.409   0.594   3.698 -1.0661 -0.4703 -2.0741
18251TIP3    H276169   6.300   0.494   3.665 -2.3711 -0.2702  1.4040
18252TIP3   OH276170   6.585   2.929   5.434 -0.1622  0.8636 -0.1708
18252TIP3    H176171   6.662   2.876   5.456 -1.0565  0.5971  2.4393
18252TIP3    H276172   6.618   3.018   5.426  0.8135  0.3981 -1.4930
18253TIP3   OH276173   4.065   1.758   3.629  0.1084 -0.2868 -0.3610
18253TIP3    H176174   4.156   1.772   3.656 -0.1648  0.6365  0.0924
18253TIP3    H276175   4.071   1.701   3.552  1.2131  1.8606 -1.8906
18254TIP3   OH276176   7.139   2.365   5.460  0.2541  0.3241 -0.0922
18254TIP3    H176177   7.204   2.350   5.392  0.5077 -0.1967  0.2637
18254TIP3    H276178   7.179   2.332   5.540 -0.4178  0.0616  0.1399
18255TIP3   OH276179   5.603   1.298   2.630 -0.2796  0.1828  0.2754
18255TIP3    H176180   5.620   1.205   2.643  0.1031  0.3874  1.2896
18255TIP3    H276181   5.647   1.319   2.548 -0.0586 -0.4502  0.2286
18256TIP3   OH276182   3.493   2.148   4.582 -0.1072 -0.4690  0.1723
18256TIP3    H176183   3.459   2.077   4.528 -0.0297 -0.0151 -0.4755
18256TIP3    H276184   3.478   2.227   4.530  0.4984 -0.0938  0.5607
18257TIP3   OH276185   2.939   5.874   3.475  0.4476  0.1515  1.0995
18257TIP3    H176186   3.028   5.881   3.509 -0.1218  1.4477  2.3880
18257TIP3    H276187   2.885   5.915   3.542 -1.0380  0.0933 -0.0450
18258TIP3   OH276188   5.395   3.275   4.621  0.1015 -0.1675  0.2029
18258TIP3    H176189   5.412   3.181   4.620 -1.0956 -0.3886  0.1967
18258TIP3    H276190   5.301   3.283   4.607  0.5487  1.1361 -2.4440
18259TIP3   OH276191   1.753   6.434   4.899 -0.2947  0.4446  0.2555
18259TIP3    H176192   1.724   6.390   4.979  0.1152  1.2254  0.8324
18259TIP3    H276193   1.672   6.467   4.860 -0.4981  0.0551  0.3474
18260TIP3   OH276194   1.804   4.889   4.775 -0.1258  0.2238 -0.1832
18260TIP3    H176195   1.845   4.968   4.812  0.1895  0.4615 -1.0253
18260TIP3    H276196   1.715   4.890   4.810  0.0520  0.6473  0.2651
18261TIP3   OH276197   4.893   2.137   3.210  0.2485  0.0901 -0.0384
18261TIP3    H176198   4.817   2.193   3.226  0.1504  0.3160 -1.2302
18261TIP3    H276199   4.864   2.049   3.232  0.5350  0.5422  2.2703
18262TIP3   OH276200   6.134   3.435   4.210 -0.4530 -0.0106 -0.3875
18262TIP3    H176201   6.068   3.372   4.240 -0.4371  0.0716 -0.1807
18262TIP3    H276202   6.086   3.518   4.203  0.6361  1.1293  4.2582
18263TIP3   OH276203   2.781   5.563   4.234  0.0907  0.4112  0.4200
18263TIP3    H176204   2.815   5.506   4.303 -0.1858 -1.1757 -0.7164
18263TIP3    H276205   2.848   5.560   4.166 -0.0611  1.2297  0.2340
18264TIP3   OH276206   0.504   0.508   2.048  0.5595 -0.7326  0.3603
18264TIP3    H176207   0.438   0.539   2.110  0.2993  0.3892 -0.4718
18264TIP3    H276208   0.582   0.561   2.066  0.9791 -1.4634  0.7552
18265TIP3   OH276209   0.078   1.810   5.730 -0.0567  0.2403  0.0863
18265TIP3    H176210   0.092   1.727   5.775 -0.8530 -0.2100 -0.4929
18265TIP3    H276211   0.166   1.841   5.709  0.1574 -1.6417 -1.8640
18266TIP3   OH276212   5.186   3.195   3.216 -0.6630  0.4844  0.5065
18266TIP3    H176213   5.268   3.200   3.266 -0.6392  1.3171  0.3932
18266TIP3    H276214   5.208   3.145   3.138 -1.0254 -2.0709  1.9537
18267TIP3   OH276215   6.051   2.345   5.881  0.2481  0.2724  0.5422
18267TIP3    H176216   6.098   2.267   5.851  2.6051  1.1425  1.8331
18267TIP3    H276217   6.069   2.411   5.814 -3.1263 -0.6879 -1.4237
18268TIP3   OH276218   3.071   3.674   1.576 -0.1013 -0.2869  0.0186
18268TIP3    H176219   3.003   3.673   1.643 -1.9354  1.1469 -1.7571
18268TIP3    H276220   3.098   3.583   1.568 -1.3247 -0.7745  1.2368
18269TIP3   OH276221   0.371   5.108   2.174 -0.6201 -0.6037  1.1359
18269TIP3    H176222   0.394   5.196   2.204  1.7593 -0.4173 -1.0364
18269TIP3    H276223   0.454   5.061   2.173 -1.3017 -1.8282 -1.0431
18270TIP3   OH276224   2.830   4.779   3.598 -0.2352  0.4161  0.1209
18270TIP3    H176225   2.735   4.781   3.584 -0.0563  0.0605 -1.2616
18270TIP3    H276226   2.841   4.787   3.692 -1.6611  0.0279  0.3324
18271TIP3   OH276227   1.661   0.367   2.807  0.8067  0.1777 -0.4928
18271TIP3    H176228   1.634   0.308   2.878  2.2556  0.6067  0.4300
18271TIP3    H276229   1.625   0.327   2.728  2.2061 -2.2362  0.0569
18272TIP3   OH276230   1.042   3.956   4.799  0.3492 -0.5496  0.3042
18272TIP3    H176231   0.961   3.946   4.749 -0.9233 -1.4490  2.5044
18272TIP3    H276232   1.061   3.869   4.833  2.0880 -0.2798  0.0971
18273TIP3   OH276233   5.002   4.932   3.614  0.2813 -0.1196 -0.1468
18273TIP3    H176234   4.929   4.960   3.558  0.7764 -0.0501 -0.7619
18273TIP3    H276235   5.080   4.949   3.562  0.7314 -0.3493  0.4481
18274TIP3   OH276236   1.414   4.746   3.075 -0.0710  0.0657  0.2187
18274TIP3    H176237   1.481   4.679   3.085  0.0096  0.3126  1.4595
18274TIP3    H276238   1.458   4.817   3.029 -0.0080 -0.5117 -0.6158
18275TIP3   OH276239   4.204   5.465   2.794 -0.1985 -0.2805 -0.2013
18275TIP3    H176240   4.155   5.503   2.867  1.4569 -0.7393  1.2020
18275TIP3    H276241   4.230   5.540   2.741 -1.9185  0.0143 -0.6653
18276TIP3   OH276242   5.830   0.534   3.249  0.1195  0.4320  0.2674
18276TIP3    H176243   5.752   0.480   3.237 -0.7879  1.6821  0.4334
18276TIP3    H276244   5.897   0.491   3.196 -0.0776 -1.8710  1.8067
18277TIP3   OH276245   0.857   0.081   4.058  0.7351 -0.3391  0.1863
18277TIP3    H176246   0.908   0.002   4.075  0.7074 -0.3214  0.3490
18277TIP3    H276247   0.766   0.051   4.052  0.5515 -0.1216  1.6741
18278TIP3   OH276248   3.210   0.336   5.759  0.5141 -0.4807 -0.1903
18278TIP3    H176249   3.153   0.360   5.832  0.0338 -1.9145 -0.0788
18278TIP3    H276250   3.236   0.246   5.778 -0.5984 -1.2950 -2.3947
18279TIP3   OH276251   2.879   4.372   2.783 -0.0345 -0.5358  0.6153
18279TIP3    H176252   2.864   4.302   2.720 -0.2387  0.1715 -0.1435
18279TIP3    H276253   2.947   4.338   2.841 -0.4516 -1.5275  0.5270
18280TIP3   OH276254   1.435   3.129   5.579 -0.2936  0.1282 -0.3875
18280TIP3    H176255   1.488   3.106   5.503 -0.5856  0.4878 -0.7044
18280TIP3    H276256   1.497   3.140   5.650 -0.0341 -0.3845 -0.5350
18281TIP3   OH276257   6.290   3.251   4.059 -0.7501  0.1128 -0.6389
18281TIP3    H176258   6.255   3.327   4.105  1.6286  1.5458 -1.1405
18281TIP3    H276259   6.304   3.282   3.969  0.6775 -0.7756 -0.7304
18282TIP3   OH276260   0.567   0.106   5.450 -0.1763  0.0562 -0.8910
18282TIP3    H176261   0.566   0.056   5.369 -0.6878 -0.7977 -0.3718
18282TIP3    H276262   0.508   0.058   5.509 -0.2291  0.9537 -0.1900
18283TIP3   OH276263   2.244   0.968   1.013 -0.5413 -0.1679  0.1730
18283TIP3    H176264   2.284   1.054   0.999 -1.7396  0.4425  0.3702
18283TIP3    H276265   2.313   0.915   1.053 -0.3703  1.3017  1.9115
18284TIP3   OH276266   1.714   4.780   5.491 -0.1332  0.9267  0.2903
18284TIP3    H176267   1.659   4.714   5.448  3.3055  0.6225 -3.9726
18284TIP3    H276268   1.764   4.731   5.556 -1.7789  0.4588  1.2348
18285TIP3   OH276269   3.801   1.117   4.989 -0.1621 -0.0367 -1.0978
18285TIP3    H176270   3.752   1.199   4.980 -2.3735 -1.3400 -1.2955
18285TIP3    H276271   3.744   1.061   5.042  2.9071 -0.2080  2.2730
18286TIP3   OH276272   5.815   6.266   4.313  0.3905 -0.6881 -0.6680
18286TIP3    H176273   5.838   6.334   4.376 -0.5374 -0.7958 -0.1935
18286TIP3    H276274   5.719   6.271   4.308  0.2880 -2.1876 -0.3612
18287TIP3   OH276275   5.712   3.143   3.065  0.7273  0.3100 -0.3074
18287TIP3    H176276   5.662   3.090   3.127  0.0173  1.1104 -0.1925
18287TIP3    H276277   5.734   3.222   3.113  1.4499  0.2906 -0.6066
18288TIP3   OH276278   0.697   4.594   3.645 -0.0568  0.2481 -0.2502
18288TIP3    H176279   0.672   4.680   3.610 -0.0660  0.5302  0.4489
18288TIP3    H276280   0.682   4.601   3.739  2.5707  0.4077  0.2017
18289TIP3   OH276281   0.743   4.883   3.624 -0.1470  0.2788  0.3441
18289TIP3    H176282   0.699   4.902   3.541  0.0060 -0.4988  0.0866
18289TIP3    H276283   0.809   4.952   3.632 -0.6269  0.7655  0.1650
18290TIP3   OH276284   1.115   4.774   4.828  0.0661  0.1655 -0.5254
18290TIP3    H176285   1.187   4.715   4.849 -0.1974  0.3882  1.0780
18290TIP3    H276286   1.045   4.748   4.887 -0.4620  1.2874 -0.6480
18291TIP3   OH276287   3.342   6.345   1.453  0.1628 -0.7986 -0.1439
18291TIP3    H176288   3.296   6.325   1.535  2.3419  1.1095  1.6395
18291TIP3    H276289   3.401   6.417   1.477  0.2849  0.3139 -3.6145
18292TIP3   OH276290   6.039   6.366   3.078  0.2122  0.8762  0.2307
18292TIP3    H176291   6.030   6.370   3.173  3.2463 -0.5500  0.6346
18292TIP3    H276292   6.022   6.275   3.055  0.4944  0.9925 -0.4716
18293TIP3   OH276293   1.639   1.059   2.855  0.6885 -0.3111 -0.1742
18293TIP3    H176294   1.580   1.124   2.817  0.0649 -0.7562  0.0291
18293TIP3    H276295   1.654   0.997   2.784  1.5058  0.2008 -0.4542
18294TIP3   OH276296   1.059   2.210   5.525  0.1074  0.0343  0.1956
18294TIP3    H176297   1.137   2.263   5.510  0.1823 -0.3185 -0.6975
18294TIP3    H276298   1.004   2.264   5.582  0.1942  1.0843 -0.6935
18295TIP3   OH276299   1.586   0.645  15.533 -1.2184 -0.0011 -0.0288
18295TIP3    H176300   1.612   0.639  15.625 -0.2070  0.7301 -0.2553
18295TIP3    H276301   1.530   0.569  15.519  0.0780 -1.1291  0.7259
18296TIP3   OH276302   2.121   2.794   4.194  0.6998 -0.3014 -0.0181
18296TIP3    H176303   2.067   2.754   4.126  0.2809 -0.9883  0.7197
18296TIP3    H276304   2.160   2.720   4.240 -0.4473  0.1233  1.6601
18297TIP3   OH276305   6.664   3.990   3.940  0.1669 -0.4468 -0.5301
18297TIP3    H176306   6.719   3.911   3.942 -1.3450 -1.5225 -0.1939
18297TIP3    H276307   6.723   4.060   3.912  1.2524 -1.9241 -2.0428
18298TIP3   OH276308   0.197   4.175   4.628  0.0532 -0.1530  0.4195
18298TIP3    H176309   0.170   4.194   4.718  1.3847  1.2587  0.5560
18298TIP3    H276310   0.289   4.202   4.625  0.0185 -0.1628 -1.3632
18299TIP3   OH276311   1.203   2.687   5.739  0.4015  0.1284  0.3095
18299TIP3    H176312   1.254   2.634   5.801  0.3397 -2.2972 -1.6453
18299TIP3    H276313   1.175   2.762   5.790  1.0210 -1.4051  3.0238
18300TIP3   OH276314   2.181   1.035  15.500  0.8055  0.6972 -0.7523
18300TIP3    H176315   2.160   0.966  15.438  2.3654  0.6917 -1.2820
18300TIP3    H276316   2.115   1.102  15.484 -0.5858 -0.5557 -0.3801
18301TIP3   OH276317   0.741   5.204   3.072  0.1122  0.1613 -0.3362
18301TIP3    H176318   0.766   5.118   3.038 -1.4050 -0.2893 -0.3147
18301TIP3    H276319   0.652   5.218   3.042  0.2738  1.6517 -0.1672
18302TIP3   OH276320   2.063   3.547   1.937 -0.6554 -0.0120 -0.9201
18302TIP3    H176321   2.106   3.619   1.983 -2.0800  1.1898 -1.4233
18302TIP3    H276322   1.970   3.567   1.943 -0.9623 -0.7689 -2.7834
18303TIP3   OH276323   4.815   4.904   2.242 -0.2455 -0.6212  0.2198
18303TIP3    H176324   4.857   4.872   2.322 -1.5318 -0.1698  1.0967
18303TIP3    H276325   4.723   4.881   2.252 -0.6362  0.5521 -0.5638
18304TIP3   OH276326   3.411   2.942   3.264 -0.3807  0.1019 -0.1485
18304TIP3    H176327   3.389   2.853   3.238 -0.6478  0.4144 -1.0306
18304TIP3    H276328   3.419   2.989   3.181  2.9418  0.1543  0.1275
18305TIP3   OH276329   2.171   1.127   0.542 -0.4819 -0.1590  0.1084
18305TIP3    H176330   2.211   1.181   0.474  0.5341 -0.7020  0.2692
18305TIP3    H276331   2.080   1.114   0.512 -0.2497  0.2213 -0.7708
18306TIP3   OH276332   6.775   3.033   4.439 -0.6224 -0.3501 -0.2389
18306TIP3    H176333   6.692   3.065   4.473 -0.8924 -0.2181 -1.0211
18306TIP3    H276334   6.831   3.111   4.433 -1.0005 -0.1573 -1.3276
18307TIP3   OH276335   2.837   6.222   4.053  0.2535  0.0500 -0.1677
18307TIP3    H176336   2.900   6.211   4.124 -1.0097  0.7908  1.1085
18307TIP3    H276337   2.752   6.211   4.095 -0.4849 -0.5063 -1.7747
18308TIP3   OH276338   2.791   3.001   1.757  0.3478  0.6657  0.4399
18308TIP3    H176339   2.824   3.076   1.706 -1.1175  0.5882 -0.6617
18308TIP3    H276340   2.700   3.023   1.774 -0.3677 -1.3002 -0.7199
18309TIP3   OH276341   6.887   2.524   3.566 -0.8111 -0.4667  0.1198
18309TIP3    H176342   6.807   2.569   3.538  0.0525  0.7251 -0.4737
18309TIP3    H276343   6.879   2.519   3.661 -1.6536 -0.4759  0.0567
18310TIP3   OH276344   1.216   3.675   5.726 -0.7742  0.4683  0.2188
18310TIP3    H176345   1.307   3.646   5.736 -1.5875 -0.8919  4.6174
18310TIP3    H276346   1.179   3.614   5.662  0.9688  0.0097 -0.3927
18311TIP3   OH276347   6.553   3.463   5.120  0.2941  0.6080 -0.4730
18311TIP3    H176348   6.596   3.548   5.123  0.0786  0.7197 -0.5758
18311TIP3    H276349   6.507   3.462   5.036 -2.7713  1.8910  1.1047
18312TIP3   OH276350   2.750   6.503   4.252  0.1132  0.9118  0.1490
18312TIP3    H176351   2.748   6.410   4.231 -0.8189  0.9664  0.0073
18312TIP3    H276352   2.663   6.535   4.232  0.3597  1.7735  0.4133
18313TIP3   OH276353   5.978   0.532   1.571  0.2435  0.4899  0.2469
18313TIP3    H176354   6.056   0.543   1.516  0.6540 -1.2906  0.4462
18313TIP3    H276355   6.009   0.550   1.660  0.4123 -0.1555  0.3186
18314TIP3   OH276356   6.338   5.254   4.584 -0.2250 -0.0596 -0.0333
18314TIP3    H176357   6.325   5.164   4.613 -1.0601 -0.1192 -0.5957
18314TIP3    H276358   6.312   5.307   4.659  1.5671 -0.2981  0.8006
18315TIP3   OH276359   5.820   1.767   3.913 -0.7895  0.4996  0.4253
18315TIP3    H176360   5.901   1.733   3.875 -0.1593  2.1059  0.2867
18315TIP3    H276361   5.826   1.745   4.006 -0.2600  0.4884  0.3912
18316TIP3   OH276362   6.913   2.053   4.167 -0.2869  0.1977 -0.3059
18316TIP3    H176363   6.821   2.041   4.193  0.0099 -1.8537 -0.1411
18316TIP3    H276364   6.908   2.088   4.078 -1.2380  2.0676  0.4394
18317TIP3   OH276365   4.726   3.653   3.252 -0.1377 -0.2944 -0.1424
18317TIP3    H176366   4.774   3.610   3.323 -0.9939 -0.1987  0.5046
18317TIP3    H276367   4.713   3.584   3.187 -0.2676 -0.6483  0.2598
18318TIP3   OH276368   3.610   6.079  13.403  0.1887  0.0761  0.3369
18318TIP3    H176369   3.537   6.019  13.415 -0.3217  0.7105  0.4412
18318TIP3    H276370   3.688   6.025  13.414 -0.2551 -0.7514 -0.4939
18319TIP3   OH276371   5.212   5.228   5.675  0.2711  0.0512  0.0845
18319TIP3    H176372   5.192   5.160   5.612  0.6854 -1.7712  1.8667
18319TIP3    H276373   5.131   5.238   5.726  0.4533  0.3522  0.3142
18320TIP3   OH276374   0.904   6.393   5.316 -0.8383  0.0345  0.2148
18320TIP3    H176375   0.903   6.469   5.374 -2.6476  1.5619 -1.7191
18320TIP3    H276376   0.935   6.427   5.232 -0.0065 -1.7511 -0.2432
18321TIP3   OH276377   0.207   3.739   4.910 -0.4509 -0.3567  0.0179
18321TIP3    H176378   0.218   3.761   5.003 -2.5232 -2.5243  0.8148
18321TIP3    H276379   0.225   3.821   4.864  3.3988  0.0667  2.1063
18322TIP3   OH276380   6.258   3.882   5.182 -0.7110 -0.1994 -0.5896
18322TIP3    H176381   6.247   3.801   5.233 -2.0797 -0.1572 -0.8070
18322TIP3    H276382   6.226   3.951   5.240 -0.1628  0.1171 -0.6588
18323TIP3   OH276383   6.316   4.539   4.625 -0.0972  0.5129 -0.2480
18323TIP3    H176384   6.270   4.623   4.626  0.5763  0.8908 -1.2381
18323TIP3    H276385   6.383   4.548   4.558 -1.7071 -1.7109 -2.2841
18324TIP3   OH276386   2.440   5.226   0.591  0.2906 -0.1293 -0.2608
18324TIP3    H176387   2.531   5.228   0.560  0.2405  0.6713 -0.3646
18324TIP3    H276388   2.397   5.295   0.541 -0.1549  0.1387  0.4936
18325TIP3   OH276389   1.788   5.656   5.092 -0.4553  0.2338  0.5721
18325TIP3    H176390   1.857   5.590   5.098 -0.7041 -0.2580 -1.5193
18325TIP3    H276391   1.717   5.622   5.146 -0.4518 -1.0574 -0.2250
18326TIP3   OH276392   3.743   4.793   4.097  0.2548 -0.2550 -0.2786
18326TIP3    H176393   3.667   4.745   4.064 -0.3382 -0.1069  0.8527
18326TIP3    H276394   3.709   4.878   4.123  1.0340  0.2468 -0.8579
18327TIP3   OH276395   3.506   5.039   5.450 -0.1524 -0.2460  0.6528
18327TIP3    H176396   3.565   4.983   5.501 -0.9629 -1.2120  0.5464
18327TIP3    H276397   3.446   5.076   5.514  0.4664  0.5981  0.7393
18328TIP3   OH276398   4.291   5.118   0.854  0.0599 -0.6632 -0.0737
18328TIP3    H176399   4.198   5.096   0.864 -0.1616  0.5649  0.7562
18328TIP3    H276400   4.301   5.143   0.762  0.4216 -4.5604 -1.1831
18329TIP3   OH276401   6.621   0.464   4.848  0.3593  0.0689  1.1479
18329TIP3    H176402   6.627   0.458   4.943 -1.5589  1.0353  1.3536
18329TIP3    H276403   6.661   0.383   4.816  1.5571  0.0098  2.7352
18330TIP3   OH276404   0.080   4.285   5.836  0.0060 -0.5884 -0.3791
18330TIP3    H176405   0.137   4.325   5.771  0.3845 -1.2959 -0.4889
18330TIP3    H276406   0.139   4.234   5.892 -0.3717 -0.3610  0.2353
18331TIP3   OH276407   1.952   0.363   5.555  0.3828 -0.2020 -0.7423
18331TIP3    H176408   1.879   0.404   5.509  1.3834 -0.4725 -2.6236
18331TIP3    H276409   2.013   0.434   5.571  0.6587 -0.3584 -1.0905
18332TIP3   OH276410   6.566   1.079  14.240 -0.6479  0.9267  0.2483
18332TIP3    H176411   6.661   1.080  14.232 -0.5560 -2.1848  0.1626
18332TIP3    H276412   6.535   1.124  14.162  0.7414 -0.4908 -1.1577
18333TIP3   OH276413   4.343   4.945   3.448  0.7614 -0.8960  0.1665
18333TIP3    H176414   4.322   4.961   3.540  1.5602 -0.6680  0.3156
18333TIP3    H276415   4.334   4.850   3.438 -1.0142 -0.7314  0.0383
18334TIP3   OH276416   4.612   4.967   3.521  0.3666  0.1086 -0.5193
18334TIP3    H176417   4.654   4.884   3.543  0.5835  0.2288 -0.4839
18334TIP3    H276418   4.524   4.942   3.492 -0.8676  0.1437  2.9663
18335TIP3   OH276419   7.004   4.180   5.707 -0.2832 -0.2021  0.3438
18335TIP3    H176420   7.051   4.208   5.785 -0.4279  0.1731  0.2972
18335TIP3    H276421   6.992   4.260   5.656  1.5272 -0.7592 -0.9926
18336TIP3   OH276422   1.512   0.015   5.065  0.0507  0.2900  0.3022
18336TIP3    H176423   1.585  -0.044   5.050 -1.5975 -1.6833 -0.2286
18336TIP3    H276424   1.534   0.061   5.146  2.9822  1.5334 -1.1060
18337TIP3   OH276425   3.689   6.265   5.564  0.1796  0.2226 -0.4709
18337TIP3    H176426   3.724   6.349   5.534  2.0510 -1.2245 -2.5403
18337TIP3    H276427   3.713   6.260   5.656  2.2523  0.9123 -0.9506
18338TIP3   OH276428   5.961   3.246   4.315  0.0280  0.5898 -0.0773
18338TIP3    H176429   5.880   3.284   4.350  0.0070  1.7049 -1.3155
18338TIP3    H276430   5.992   3.189   4.385 -2.3702 -0.6475  0.0497
18339TIP3   OH276431   6.448   6.074   4.425 -0.1967  0.2347  0.2830
18339TIP3    H176432   6.471   6.166   4.439 -1.2822  0.5449  0.1166
18339TIP3    H276433   6.493   6.050   4.344  0.9876  0.2886  0.9115
18340TIP3   OH276434   1.931   0.085   5.444  0.3744  0.3566 -0.4261
18340TIP3    H176435   1.965   0.171   5.420 -1.6090  1.3035  0.0817
18340TIP3    H276436   1.847   0.079   5.397 -1.5065  0.4540  2.7968
18341TIP3   OH276437   3.604   6.800   4.887  0.1488  0.4038  0.7671
18341TIP3    H176438   3.597   6.704   4.880  1.0168  0.2235  2.0349
18341TIP3    H276439   3.684   6.813   4.939 -0.0648  1.8144  0.7388
18342TIP3   OH276440   2.372   6.030   5.124 -0.1961 -0.6211 -0.1033
18342TIP3    H176441   2.337   6.115   5.150  2.5365  0.4934  0.1522
18342TIP3    H276442   2.329   5.967   5.183 -1.4072  0.7018  0.4542
18343TIP3   OH276443   4.465   4.849  15.186  0.0007  0.1201  0.4379
18343TIP3    H176444   4.408   4.839  15.263 -0.7052  0.8608  0.0102
18343TIP3    H276445   4.463   4.763  15.144 -0.1649 -0.0872  0.8659
18344TIP3   OH276446   0.596   1.941   0.803  0.8209 -0.4931 -0.1073
18344TIP3    H176447   0.681   1.949   0.761  1.6110  0.5285  1.6112
18344TIP3    H276448   0.563   2.031   0.808  0.1692 -0.7471  0.2750
18345TIP3   OH276449   5.693   7.072   1.810  0.1069 -0.0111  0.5189
18345TIP3    H176450   5.710   7.153   1.762 -0.1074  1.5785  3.0118
18345TIP3    H276451   5.758   7.072   1.880 -1.2018 -0.9602  1.7546
18346TIP3   OH276452   4.573   1.972   3.387  0.1604  0.0584 -0.3652
18346TIP3    H176453   4.599   2.027   3.313  1.5117  2.1566  1.6205
18346TIP3    H276454   4.630   1.896   3.381  0.7775  0.5676 -1.0540
18347TIP3   OH276455   6.771   0.011   3.597  0.3222 -0.9852 -0.4556
18347TIP3    H176456   6.748   0.020   3.505  1.4417  0.5384 -0.6114
18347TIP3    H276457   6.705   0.062   3.644  0.8456 -0.1960 -0.5685
18348TIP3   OH276458   6.960   0.060   2.453 -0.0553  0.8618 -0.5139
18348TIP3    H176459   6.894   0.037   2.388 -0.1532  1.2782 -0.5641
18348TIP3    H276460   6.949   0.154   2.466  0.5994  0.9593 -0.6082
18349TIP3   OH276461   5.351   6.371   2.326  0.1144 -0.5820  0.4398
18349TIP3    H176462   5.438   6.412   2.331 -0.3421  0.9643 -2.9569
18349TIP3    H276463   5.365   6.282   2.357  2.4087  0.3635  2.2517
18350TIP3   OH276464   6.707   5.815   3.745  0.9011 -0.0519 -0.3020
18350TIP3    H176465   6.682   5.905   3.724 -0.7735 -0.5392 -0.4551
18350TIP3    H276466   6.787   5.824   3.797  1.2246  1.4754 -1.0412
18351TIP3   OH276467   0.439   3.804   5.379  0.3003 -0.1922 -0.1673
18351TIP3    H176468   0.452   3.789   5.472  0.8307 -0.2472 -0.2508
18351TIP3    H276469   0.475   3.891   5.363  1.8753 -0.9286 -0.6748
18352TIP3   OH276470   2.155   2.643   5.679  0.0366  0.5175  0.7370
18352TIP3    H176471   2.118   2.631   5.592 -1.0727 -1.4330  1.4451
18352TIP3    H276472   2.179   2.736   5.683 -2.1746  1.1713 -0.7583
18353TIP3   OH276473   1.298   3.239   5.328  0.1399  0.0618  0.2094
18353TIP3    H176474   1.275   3.300   5.258 -0.4564  1.0513  1.2742
18353TIP3    H276475   1.392   3.251   5.340 -0.1064  1.3047  0.9267
18354TIP3   OH276476   4.459   0.864   5.736  0.4947 -0.1607  0.3194
18354TIP3    H176477   4.523   0.802   5.701  1.5824  1.1625 -0.0924
18354TIP3    H276478   4.487   0.949   5.702  0.0309  0.7936  2.2579
18355TIP3   OH276479   0.533   4.055   5.368  0.1799  0.5262  1.2557
18355TIP3    H176480   0.470   4.120   5.336  0.5504  0.4321  0.3060
18355TIP3    H276481   0.589   4.103   5.428  1.1756  1.3824 -0.3255
18356TIP3   OH276482   3.905   2.654   2.705 -0.1167 -0.1376  0.5391
18356TIP3    H176483   3.852   2.718   2.657  0.1885 -0.4057 -0.1550
18356TIP3    H276484   3.946   2.705   2.776 -1.7720 -0.0503  1.4534
18357TIP3   OH276485   6.377   1.565   4.869 -0.1421 -0.6040 -0.1759
18357TIP3    H176486   6.430   1.582   4.792  0.0806  1.3282  0.3745
18357TIP3    H276487   6.308   1.632   4.866 -2.0737 -2.5307 -0.4306
18358TIP3   OH276488   5.360   6.309   0.893  0.2209 -0.1695 -0.7184
18358TIP3    H176489   5.442   6.352   0.920 -0.2251 -0.1816  0.6807
18358TIP3    H276490   5.361   6.225   0.938 -1.5871  0.7234  1.0327
18359TIP3   OH276491   6.935   6.415   4.860 -0.1314  0.1757 -0.4132
18359TIP3    H176492   6.981   6.485   4.813  1.8747 -0.1405  0.9993
18359TIP3    H276493   6.933   6.445   4.951  0.4392 -1.4479  0.1396
18360TIP3   OH276494   1.372   4.667   4.925 -0.0911  0.6760 -0.6978
18360TIP3    H176495   1.450   4.684   4.871 -0.3563 -0.5962 -1.4951
18360TIP3    H276496   1.405   4.668   5.015  0.4694  2.2083 -0.8963
18361TIP3   OH276497   4.157   2.533   1.783 -0.0219 -0.6913  0.2536
18361TIP3    H176498   4.086   2.596   1.770  1.1425  0.7300  0.6748
18361TIP3    H276499   4.114   2.455   1.819 -1.2473  0.4602  1.3361
18362TIP3   OH276500   1.907   1.713   5.403 -1.1140  0.2000  0.8962
18362TIP3    H176501   1.950   1.780   5.348  1.7421 -3.2206 -1.2299
18362TIP3    H276502   1.971   1.693   5.471 -2.6956  0.8788  2.6238
18363TIP3   OH276503   6.157   4.741   2.658  0.2302 -0.2942  0.2244
18363TIP3    H176504   6.114   4.675   2.604  0.3674 -0.1876 -0.0145
18363TIP3    H276505   6.197   4.691   2.730 -0.9344 -0.3140  0.8647
18364TIP3   OH276506   1.344   2.770   4.234 -0.1709  0.1191 -0.0625
18364TIP3    H176507   1.389   2.768   4.150  1.9504  1.0839  1.0148
18364TIP3    H276508   1.367   2.687   4.275 -0.2816  0.1290  0.0193
18365TIP3   OH276509   0.902   0.159   3.678 -0.2040 -0.1084  0.3646
18365TIP3    H176510   0.969   0.223   3.655 -0.7850  0.8538  1.3076
18365TIP3    H276511   0.938   0.110   3.751 -0.0024 -0.4683  0.0267
18366TIP3   OH276512   6.104   4.072   4.902 -0.4458 -0.7165  0.2101
18366TIP3    H176513   6.061   4.127   4.968  0.7647 -0.2756  0.6507
18366TIP3    H276514   6.169   4.023   4.952  2.1530  1.3918 -0.9829
18367TIP3   OH276515   0.276   6.580   5.965  0.3599  0.9702 -0.1843
18367TIP3    H176516   0.229   6.658   5.938 -0.8939  0.6102  0.9133
18367TIP3    H276517   0.213   6.530   6.018  1.2729 -0.5691 -0.5060
18368TIP3   OH276518   1.325   4.972  15.090 -0.1008 -0.1066 -0.6188
18368TIP3    H176519   1.260   4.902  15.094 -0.6673  0.4531  0.2234
18368TIP3    H276520   1.338   4.988  14.996 -0.6518 -0.7131 -0.7976
18369TIP3   OH276521   6.983   2.271   4.308  0.4330 -0.0870 -0.5583
18369TIP3    H176522   6.970   2.193   4.253  1.4924  0.4740 -1.6310
18369TIP3    H276523   6.989   2.343   4.246 -0.2612  0.8284  0.4208
18370TIP3   OH276524   3.109   3.000   4.061 -0.8441 -0.3392 -0.5325
18370TIP3    H176525   3.067   2.939   4.122  1.1151 -1.0704  0.1084
18370TIP3    H276526   3.133   2.946   3.985  1.3517 -0.5050  0.2504
18371TIP3   OH276527   5.469   3.812   2.762 -0.5578  0.0514 -0.2025
18371TIP3    H176528   5.454   3.717   2.755 -2.4995  0.3428 -0.3072
18371TIP3    H276529   5.457   3.845   2.673  0.1069  0.4168 -0.1619
18372TIP3   OH276530   5.038   3.705   1.777  0.2924 -0.6784  0.1331
18372TIP3    H176531   5.034   3.718   1.872 -0.6127  1.7565 -0.1877
18372TIP3    H276532   5.121   3.745   1.751 -1.2028  2.1997 -0.5165
18373TIP3   OH276533   4.842   3.570   1.302 -0.3528  0.2660  0.1246
18373TIP3    H176534   4.918   3.595   1.355  0.3852 -1.4843 -0.0490
18373TIP3    H276535   4.768   3.577   1.361  0.2845 -0.3640  1.0231
18374TIP3   OH276536   5.077   2.204   3.006  0.6450 -0.1938  0.6039
18374TIP3    H176537   5.003   2.181   3.062 -0.0549  0.8535  0.1097
18374TIP3    H276538   5.112   2.285   3.043  0.5522  0.1793 -0.1275
18375TIP3   OH276539   3.320   2.907   0.145  0.2931 -0.4715  0.5101
18375TIP3    H176540   3.240   2.953   0.119  0.0903  0.4866  2.7137
18375TIP3    H276541   3.362   2.965   0.209  1.6532 -1.9284  0.9797
18376TIP3   OH276542   0.228   6.830   5.201  0.2075  0.4445 -0.0203
18376TIP3    H176543   0.200   6.778   5.276 -1.1656 -0.3921 -1.1018
18376TIP3    H276544   0.150   6.879   5.175  0.4281  0.0488 -1.4659
18377TIP3   OH276545   1.266   2.044   4.400  0.3404  0.2438  0.2810
18377TIP3    H176546   1.229   2.109   4.341 -0.0892 -1.7557 -1.7372
18377TIP3    H276547   1.189   1.998   4.435  0.7120 -1.3735 -0.9432
18378TIP3   OH276548   5.825   3.351   1.650  0.0033 -0.1665 -0.1679
18378TIP3    H176549   5.884   3.387   1.717  0.0963 -0.8167  0.1055
18378TIP3    H276550   5.879   3.345   1.572  0.1402 -0.2201 -0.0703
18379TIP3   OH276551   2.361   4.057   5.719 -0.2519  0.4141  0.1117
18379TIP3    H176552   2.415   4.136   5.716  1.0020 -0.4655 -4.0489
18379TIP3    H276553   2.421   3.989   5.751  0.1421  0.1753 -1.0897
18380TIP3   OH276554   6.101   3.075   2.279  0.0833 -0.0714  0.6101
18380TIP3    H176555   6.112   2.994   2.329  1.8386  1.1893  2.3160
18380TIP3    H276556   6.030   3.122   2.324 -0.7726 -0.5448 -0.2356
18381TIP3   OH276557   2.505   3.183   4.251  0.2269  0.3142 -0.7318
18381TIP3    H176558   2.432   3.140   4.294  0.5399  0.8110  0.2948
18381TIP3    H276559   2.580   3.125   4.267  0.0934 -0.1373 -1.6865
18382TIP3   OH276560   2.358   4.990   5.073 -0.0341  0.2655 -0.9182
18382TIP3    H176561   2.413   4.951   5.140  0.7427 -1.0579 -2.2940
18382TIP3    H276562   2.349   4.922   5.006 -1.7871  1.1201 -1.6063
18383TIP3   OH276563   6.548   5.573   5.050  0.0405  0.0236  0.2404
18383TIP3    H176564   6.607   5.619   5.111  0.7240 -1.8550  1.0347
18383TIP3    H276565   6.606   5.518   4.997 -0.8625 -0.8087  0.1015
18384TIP3   OH276566   1.925   4.271   5.206 -0.6949 -0.3631 -0.1834
18384TIP3    H176567   1.971   4.188   5.190 -1.2412 -0.7387  0.1832
18384TIP3    H276568   1.916   4.276   5.301 -1.3118 -0.2300 -0.2506
18385TIP3   OH276569   5.872   5.799   5.107  0.4138 -0.6477 -0.3129
18385TIP3    H176570   5.875   5.711   5.145 -1.8314 -0.1021  1.2563
18385TIP3    H276571   5.931   5.851   5.162 -0.9605 -0.4201  1.0125
18386TIP3   OH276572   1.841   2.375   5.603 -0.2056 -0.2792 -0.0969
18386TIP3    H176573   1.809   2.419   5.682  1.8608 -1.1403  1.2496
18386TIP3    H276574   1.932   2.355   5.621 -0.1980 -2.1632 -1.9853
18387TIP3   OH276575   6.364   2.918   4.157 -0.1136  0.0874  0.3055
18387TIP3    H176576   6.379   2.829   4.126  0.2508  0.6057 -1.0350
18387TIP3    H276577   6.270   2.921   4.177 -0.7159  0.1948 -2.3264
18388TIP3   OH276578   6.756   0.517   3.198  0.5744  0.3207  0.2864
18388TIP3    H176579   6.665   0.541   3.184 -0.0684 -3.1717 -2.0865
18388TIP3    H276580   6.770   0.530   3.292 -3.0109 -1.1403  1.0868
18389TIP3   OH276581   6.217   4.048   2.698 -0.3736 -0.7799 -0.8859
18389TIP3    H176582   6.150   3.990   2.736  0.2672 -0.6269  0.5031
18389TIP3    H276583   6.300   4.005   2.718  0.0080 -0.3547 -1.5513
18390TIP3   OH276584   6.156   2.969   5.644 -0.5637  0.0770 -0.4899
18390TIP3    H176585   6.212   3.030   5.693 -0.7645  1.4268 -1.8824
18390TIP3    H276586   6.145   2.894   5.703 -0.2495  1.3539  1.2594
18391TIP3   OH276587   1.782   4.072   3.655  0.1843 -0.2538 -0.5269
18391TIP3    H176588   1.698   4.107   3.624 -0.1693 -0.3866  0.2653
18391TIP3    H276589   1.766   3.979   3.669  0.3886 -0.2352 -0.1508
18392TIP3   OH276590   2.958   3.434   5.181  0.0617  0.3213  0.8686
18392TIP3    H176591   3.009   3.513   5.198 -1.3506  1.0310  1.7951
18392TIP3    H276592   2.991   3.371   5.246 -1.0655  1.1513  2.2688
18393TIP3   OH276593   0.082   3.073   5.108 -0.5189 -0.1004 -0.6204
18393TIP3    H176594   0.127   3.143   5.155  0.0333  0.0679 -1.4035
18393TIP3    H276595  -0.011   3.092   5.120 -0.3722  0.4170 -0.3141
18394TIP3   OH276596   5.675   1.848   2.698 -1.2285  0.1721 -0.3168
18394TIP3    H176597   5.760   1.833   2.740 -1.8173 -0.0586  0.8278
18394TIP3    H276598   5.689   1.825   2.607  0.1021  0.7141 -0.2706
18395TIP3   OH276599   5.279   3.007   3.042 -0.0387 -0.0373  0.0546
18395TIP3    H176600   5.262   2.976   2.953  0.1191 -0.2885  0.1117
18395TIP3    H276601   5.354   3.066   3.033  0.3159 -0.4744  0.0956
18396TIP3   OH276602   6.677   5.292   3.681  0.0735 -0.0982 -0.3666
18396TIP3    H176603   6.587   5.325   3.684  0.2771  0.4953 -0.6915
18396TIP3    H276604   6.682   5.229   3.753 -0.5519 -0.0017 -0.2387
18397TIP3   OH276605   1.724   1.031   5.343  0.6250 -0.5005 -0.3698
18397TIP3    H176606   1.782   1.107   5.337 -0.5779  0.5131  0.6835
18397TIP3    H276607   1.759   0.969   5.279  2.0383  0.6526 -0.7323
18398TIP3   OH276608   5.634   3.938   3.176  0.0244  0.3533  0.0134
18398TIP3    H176609   5.564   3.873   3.170 -0.3634  0.6442  1.3916
18398TIP3    H276610   5.595   4.011   3.223  0.9585  0.9295 -0.0964
18399TIP3   OH276611   3.544   2.732   4.308  0.6893  0.2121 -0.0175
18399TIP3    H176612   3.537   2.778   4.391 -0.2508  0.2677 -0.1116
18399TIP3    H276613   3.634   2.700   4.304  1.0402  1.1345  0.5246
18400TIP3   OH276614   0.093   0.944   2.606 -0.7741  0.0854 -0.5835
18400TIP3    H176615   0.169   1.003   2.610 -0.3566 -0.5136  0.6093
18400TIP3    H276616   0.054   0.949   2.694 -0.0574 -2.2677 -0.0909
18401TIP3   OH276617   2.387   6.297   1.365  0.0774 -0.0521  0.1438
18401TIP3    H176618   2.321   6.319   1.300  0.3327  2.3846  0.6447
18401TIP3    H276619   2.471   6.307   1.319  0.1866 -0.5509  0.2303
18402TIP3   OH276620   5.433   0.503   0.484 -0.6948 -0.2038 -0.1623
18402TIP3    H176621   5.382   0.529   0.408 -1.0107 -0.5412 -0.0653
18402TIP3    H276622   5.384   0.431   0.523 -0.5125 -0.0609  0.3378
18403TIP3   OH276623   0.278   4.984   4.097  0.2919 -0.4670  0.0990
18403TIP3    H176624   0.199   4.995   4.149  0.9661  0.1729  0.9851
18403TIP3    H276625   0.336   4.931   4.151  0.8183 -0.1946 -0.1908
18404TIP3   OH276626   0.243   2.314   1.816  0.1189 -0.2261 -0.6531
18404TIP3    H176627   0.272   2.247   1.753 -0.4542  0.1893 -1.3741
18404TIP3    H276628   0.219   2.265   1.894  0.3402 -0.8019 -0.9422
18405TIP3   OH276629   0.345   5.724   3.346  0.5208  0.8281 -0.8372
18405TIP3    H176630   0.350   5.690   3.435  1.1180  1.6956 -0.5266
18405TIP3    H276631   0.373   5.651   3.290  1.0754  0.5798 -0.2438
18406TIP3   OH276632   4.237   2.589   4.689 -0.3517 -0.2959  0.3142
18406TIP3    H176633   4.285   2.664   4.654 -1.7780 -0.2129 -1.5456
18406TIP3    H276634   4.145   2.610   4.675 -0.8178 -1.9125  0.7809
18407TIP3   OH276635   6.906   5.989   3.821 -0.0539  0.1641 -0.3681
18407TIP3    H176636   6.979   5.931   3.841 -0.0625  0.1982 -0.2379
18407TIP3    H276637   6.937   6.077   3.842 -0.1332  0.1785 -0.3067
18408TIP3   OH276638   1.311   0.665   5.697 -0.0977 -0.0082 -0.2775
18408TIP3    H176639   1.300   0.586   5.750  1.0590  0.1180  0.1644
18408TIP3    H276640   1.399   0.659   5.662 -0.5874  0.2918 -1.5935
18409TIP3   OH276641   4.786   1.996   4.818 -0.2529 -0.1492  0.9403
18409TIP3    H176642   4.722   2.066   4.804  1.8951  1.5740 -0.5114
18409TIP3    H276643   4.762   1.929   4.754 -0.5285  0.5318  0.3186
18410TIP3   OH276644   3.383   2.812   4.866  0.1991 -0.4457  0.0821
18410TIP3    H176645   3.455   2.854   4.819 -1.0082  0.3347 -1.1225
18410TIP3    H276646   3.416   2.798   4.954  1.7973 -0.0330 -0.4383
18411TIP3   OH276647   6.739   2.751   5.631 -0.5336  0.0298 -0.5554
18411TIP3    H176648   6.795   2.828   5.619 -0.8423  0.7056  2.1476
18411TIP3    H276649   6.795   2.689   5.677 -1.8820  0.6105  1.9326
18412TIP3   OH276650   6.613   4.058   4.368 -0.2701  0.6361 -0.3150
18412TIP3    H176651   6.687   4.029   4.315 -0.7871 -0.0760 -0.6668
18412TIP3    H276652   6.642   4.044   4.458  0.3581  1.2152 -0.4230
18413TIP3   OH276653   2.423   2.683   4.700 -0.2198  0.9333  0.2158
18413TIP3    H176654   2.491   2.744   4.671 -2.3773  2.3508 -2.1073
18413TIP3    H276655   2.448   2.599   4.661  0.1270  1.4774 -0.7511
18414TIP3   OH276656   3.696   5.971   2.801  0.2025  0.2195 -0.1150
18414TIP3    H176657   3.773   5.925   2.769  0.2738 -0.2580  0.7336
18414TIP3    H276658   3.630   5.956   2.733  0.3667 -0.7390 -0.0729
18415TIP3   OH276659   5.002   4.756   5.407 -0.4010 -0.2133  0.4035
18415TIP3    H176660   4.921   4.722   5.369  0.1216  1.0019 -1.9448
18415TIP3    H276661   5.010   4.844   5.370  1.5066  0.0234  1.3325
18416TIP3   OH276662   4.174   2.815   2.879  0.3521  0.3922  0.0096
18416TIP3    H176663   4.168   2.834   2.786  0.1984  0.5343  0.0486
18416TIP3    H276664   4.220   2.890   2.917 -1.8032  1.5219  0.4324
18417TIP3   OH276665   3.108   3.947   2.633 -0.4080  0.2728  0.0988
18417TIP3    H176666   3.090   3.991   2.550  0.7311  0.8957  0.1662
18417TIP3    H276667   3.174   3.881   2.611 -2.3366 -1.6745 -0.0720
18418TIP3   OH276668   3.735   5.025   5.327 -0.1501  0.3318  0.4879
18418TIP3    H176669   3.796   4.963   5.367 -1.9043 -1.3799  0.5618
18418TIP3    H276670   3.655   5.018   5.380 -0.4621  2.4609  0.3287
18419TIP3   OH276671   0.473   4.989   6.205  1.0129  0.0307 -0.1517
18419TIP3    H176672   0.520   4.918   6.161  1.0259  0.3622 -0.6799
18419TIP3    H276673   0.447   4.952   6.289  1.2359 -0.5232 -0.3233
18420TIP3   OH276674   1.843   3.852   5.297 -0.0132  0.1443 -0.4639
18420TIP3    H176675   1.928   3.818   5.269  1.4395  2.0103  1.4999
18420TIP3    H276676   1.821   3.919   5.233  0.8427  0.8468 -0.0320
18421TIP3   OH276677   5.660   3.639   0.301  0.0720 -0.2584  0.1552
18421TIP3    H176678   5.730   3.640   0.367 -1.3000 -1.3964  1.6614
18421TIP3    H276679   5.706   3.650   0.217  1.7833  1.7709  1.3287
18422TIP3   OH276680   0.345   5.099   5.999 -0.1595 -0.0925 -0.8194
18422TIP3    H176681   0.396   5.169   5.960 -0.6597 -0.3790 -1.9890
18422TIP3    H276682   0.399   5.069   6.073  0.7741  0.4513 -1.2724
18423TIP3   OH276683   1.902   3.713   4.995 -0.1994  0.2616  0.5660
18423TIP3    H176684   1.838   3.662   4.945  0.8548 -0.6830  0.1584
18423TIP3    H276685   1.931   3.781   4.935 -0.9542  0.8102  0.8153
18424TIP3   OH276686   1.277   3.231   2.877 -0.2051  0.4055  0.2599
18424TIP3    H176687   1.188   3.200   2.859  0.1734 -0.3852 -0.2902
18424TIP3    H276688   1.329   3.151   2.885  0.0303  0.7786  2.9901
18425TIP3   OH276689   5.540   3.117   1.917 -0.0221 -0.1370 -0.7315
18425TIP3    H176690   5.466   3.171   1.944  0.9198  1.7020 -1.6748
18425TIP3    H276691   5.617   3.168   1.940  0.8938 -0.8629 -2.0741
18426TIP3   OH276692   0.988   2.166   1.186 -0.1303 -0.0512  0.1408
18426TIP3    H176693   0.975   2.074   1.210 -0.5395  0.0564  0.3353
18426TIP3    H276694   1.083   2.175   1.175 -0.1960 -0.8006 -1.0957
18427TIP3   OH276695   4.933   5.837   4.910  0.5402  0.6257 -0.7779
18427TIP3    H176696   4.919   5.786   4.989 -0.3277 -0.3592 -1.5681
18427TIP3    H276697   5.016   5.883   4.926  1.4502 -1.2037 -0.1724
18428TIP3   OH276698   6.797   3.993   4.187  0.1591 -0.0887 -0.6917
18428TIP3    H176699   6.795   3.898   4.174  0.2602 -0.0341 -1.1240
18428TIP3    H276700   6.883   4.020   4.152  0.4046  0.0748  0.0332
18429TIP3   OH276701   6.889   6.213   5.235 -0.7392  0.3550  0.6119
18429TIP3    H176702   6.957   6.268   5.197 -0.5255 -0.6702 -0.5105
18429TIP3    H276703   6.811   6.268   5.236 -0.2428  1.0627  0.5806
18430TIP3   OH276704   1.378   3.615   3.859  0.3954 -0.0329 -0.2399
18430TIP3    H176705   1.464   3.588   3.827  0.5605  2.1410 -1.7213
18430TIP3    H276706   1.387   3.620   3.954  1.9143  0.2065 -0.3935
18431TIP3   OH276707   7.005   2.801   4.134  0.3251 -0.1829 -0.2852
18431TIP3    H176708   6.979   2.884   4.095  0.4397 -0.3472 -0.7035
18431TIP3    H276709   7.024   2.823   4.225 -2.1949 -0.2042  0.3078
18432TIP3   OH276710   3.271   6.421   3.607 -0.3523  0.1304  0.7077
18432TIP3    H176711   3.295   6.509   3.577 -1.2233  0.2646  0.3860
18432TIP3    H276712   3.314   6.363   3.544 -1.6363  0.3959 -0.4298
18433TIP3   OH276713   2.297   0.679   0.045 -0.2060  0.4374 -0.2831
18433TIP3    H176714   2.388   0.705   0.034 -0.1767  0.5333  0.1853
18433TIP3    H276715   2.264   0.737   0.114 -0.2546 -0.4935  0.4874
18434TIP3   OH276716   5.091   5.945   4.557  0.4957  0.2421 -0.6425
18434TIP3    H176717   5.001   5.913   4.547  0.9943 -1.3275 -0.3314
18434TIP3    H276718   5.145   5.872   4.525  1.6711  0.9162 -0.1901
18435TIP3   OH276719   3.460   3.085   3.029  0.0479  0.0375 -0.0933
18435TIP3    H176720   3.454   3.053   2.939 -0.9071 -0.9505  0.3027
18435TIP3    H276721   3.436   3.178   3.023 -0.7324 -0.1985 -0.7623
18436TIP3   OH276722   0.393   5.171   3.944 -0.0415 -0.1244 -0.4526
18436TIP3    H176723   0.356   5.111   4.009 -0.2401  0.4697 -0.0068
18436TIP3    H276724   0.419   5.248   3.995 -0.1513  0.3252 -1.0708
18437TIP3   OH276725   6.839   4.714   5.411 -0.0929 -0.4314  0.0616
18437TIP3    H176726   6.794   4.796   5.392  0.9020  0.1129  0.0206
18437TIP3    H276727   6.772   4.646   5.400 -1.0223  0.4036  0.5025
18438TIP3   OH276728   3.777   2.082   2.141  0.0488 -0.4872 -0.3441
18438TIP3    H176729   3.682   2.084   2.127  0.0876 -0.1632 -0.5615
18438TIP3    H276730   3.789   2.121   2.227 -0.1086 -1.5514  0.1593
18439TIP3   OH276731   1.418   0.338   4.865 -0.2145 -0.8107  0.2727
18439TIP3    H176732   1.462   0.386   4.935 -1.8712  1.2865 -0.0668
18439TIP3    H276733   1.406   0.403   4.796 -0.7544 -2.2435 -0.9956
18440TIP3   OH276734   2.647   3.645   1.568 -0.5420 -0.2518 -0.4042
18440TIP3    H176735   2.639   3.717   1.505 -1.1456  1.1797  1.2782
18440TIP3    H276736   2.604   3.571   1.524 -0.8723  0.6926 -1.7199
18441TIP3   OH276737   5.401   3.514   4.302  0.5153 -0.2552 -0.0597
18441TIP3    H176738   5.332   3.560   4.350 -1.9080 -1.8588 -1.8296
18441TIP3    H276739   5.393   3.545   4.212  1.3405 -1.3174 -0.5149
18442TIP3   OH276740   4.505   6.931   3.465  0.0095 -0.5909 -0.3835
18442TIP3    H176741   4.531   6.989   3.536  3.3244 -1.8876 -0.4053
18442TIP3    H276742   4.484   6.848   3.508  1.9334 -1.3520 -0.8557
18443TIP3   OH276743   1.621   1.073   3.267 -0.0165 -0.0173 -0.1897
18443TIP3    H176744   1.554   1.115   3.321 -0.1643  0.2698 -0.5896
18443TIP3    H276745   1.700   1.075   3.321 -0.1273  0.3942 -0.0355
18444TIP3   OH276746   7.080   4.698   5.315  0.6571 -0.9110 -0.8623
18444TIP3    H176747   7.052   4.660   5.232 -0.9014 -1.1965 -0.2208
18444TIP3    H276748   6.999   4.723   5.359  1.4380 -1.1213  0.7469
18445TIP3   OH276749   4.413   4.242   5.024 -0.2964  0.4547  0.5333
18445TIP3    H176750   4.319   4.221   5.030 -0.2447 -0.8723 -2.4698
18445TIP3    H276751   4.445   4.188   4.952  2.4159  2.2548  0.3227
18446TIP3   OH276752   7.038   1.712   0.013 -0.1355 -0.3916  0.3813
18446TIP3    H176753   7.056   1.625   0.050 -1.5834 -1.3590 -1.1488
18446TIP3    H276754   6.945   1.710  -0.010  0.0579  1.2262 -0.6093
18447TIP3   OH276755   6.986   4.774   3.555  0.3250 -0.1549 -0.1309
18447TIP3    H176756   6.939   4.766   3.638 -1.5931 -0.1644 -1.1974
18447TIP3    H276757   7.015   4.865   3.553  0.1374 -0.0807  0.4090
18448TIP3   OH276758   5.483   4.649   5.101  0.2047  0.5003 -0.3262
18448TIP3    H176759   5.414   4.650   5.167  0.0012  1.0476 -0.5413
18448TIP3    H276760   5.520   4.561   5.106 -1.2008 -0.1534 -0.9228
18449TIP3   OH276761   0.933   2.821   3.341  0.2201  0.0597 -0.3268
18449TIP3    H176762   0.886   2.814   3.424 -0.2452 -0.0747 -0.6009
18449TIP3    H276763   0.929   2.914   3.318 -0.4617 -0.0498 -0.6653
18450TIP3   OH276764   5.105   1.466   2.382  0.1181 -0.2111 -0.0406
18450TIP3    H176765   5.176   1.402   2.371  0.6925  0.4514 -0.2472
18450TIP3    H276766   5.097   1.477   2.476 -0.7418 -1.4221  0.0351
18451TIP3   OH276767   5.094   1.643   3.022 -0.7718 -0.6518 -0.0366
18451TIP3    H176768   5.022   1.589   2.989 -0.0150 -2.8798  1.8000
18451TIP3    H276769   5.053   1.726   3.045 -2.9658 -2.1761  1.7606
18452TIP3   OH276770   2.897   3.122   5.246 -0.1845 -0.0929  0.3927
18452TIP3    H176771   2.952   3.152   5.319 -2.8695  1.1743  1.9594
18452TIP3    H276772   2.845   3.051   5.284  1.4703 -2.4687 -1.5420
18453TIP3   OH276773   3.745   6.357   5.244 -0.6026 -0.1235 -0.1479
18453TIP3    H176774   3.755   6.418   5.317  0.9163  0.3881 -0.7550
18453TIP3    H276775   3.776   6.273   5.279 -1.2478 -0.2015  0.2325
18454TIP3   OH276776   7.019   6.166   3.340  0.0387  0.0789 -0.0083
18454TIP3    H176777   7.075   6.226   3.389  0.1038  0.9366 -1.0996
18454TIP3    H276778   7.075   6.134   3.269 -0.0173 -1.2367  0.5300
18455TIP3   OH276779   0.875   3.973   5.292  0.4595 -0.4276 -0.4921
18455TIP3    H176780   0.952   3.949   5.240  0.4749  1.9790 -1.6577
18455TIP3    H276781   0.829   3.890   5.305  3.8293 -2.1250  1.2641
18456TIP3   OH276782   1.763   5.851   5.904  0.7622  0.4720 -0.1968
18456TIP3    H176783   1.677   5.850   5.861  1.2219  2.3012 -1.2228
18456TIP3    H276784   1.764   5.772   5.957 -1.9338  0.8571  0.5354
18457TIP3   OH276785   2.903   3.798   3.738 -0.3291 -0.5025 -0.4977
18457TIP3    H176786   2.889   3.815   3.831 -0.6278 -2.0869 -0.2298
18457TIP3    H276787   2.843   3.726   3.718  0.2423 -0.6455 -1.7482
18458TIP3   OH276788   3.223   6.018   4.953 -0.2080  0.8960 -0.4965
18458TIP3    H176789   3.191   5.943   5.003  0.1625  1.0491 -0.0382
18458TIP3    H276790   3.149   6.079   4.953 -0.9564  0.0236 -1.9129
18459TIP3   OH276791   5.967   5.415   4.159  0.1138 -0.4743  0.3697
18459TIP3    H176792   6.040   5.404   4.098 -0.1474 -0.1098 -0.0104
18459TIP3    H276793   6.004   5.465   4.232 -0.1569  1.1535 -0.5804
18460TIP3   OH276794   1.592   3.014   3.894 -1.0458  0.0604 -0.7459
18460TIP3    H176795   1.571   2.943   3.833 -0.2469  0.8288 -1.9292
18460TIP3    H276796   1.681   2.995   3.922 -2.1477 -1.4830  1.8831
18461TIP3   OH276797   6.318   3.716   5.875  0.3509 -0.1792  0.1308
18461TIP3    H176798   6.324   3.721   5.971  0.1293  0.5480  0.1069
18461TIP3    H276799   6.357   3.797   5.844  0.5292 -0.4703 -0.4015
18462TIP3   OH276800   2.009   1.809   3.585  0.2234 -0.4336  0.5309
18462TIP3    H176801   1.953   1.838   3.513  0.7468 -1.2015 -0.1937
18462TIP3    H276802   2.000   1.714   3.585  0.9229 -0.5005  0.9110
18463TIP3   OH276803   5.668   3.684   4.636 -0.0280 -0.1052  0.2048
18463TIP3    H176804   5.581   3.722   4.642  0.5160  1.2621 -0.3957
18463TIP3    H276805   5.727   3.759   4.630  1.1293 -1.0306 -0.2463
18464TIP3   OH276806   0.968   6.340   4.168 -0.4832  0.2738 -0.3699
18464TIP3    H176807   0.999   6.377   4.250  1.1148 -0.6908 -0.5073
18464TIP3    H276808   0.889   6.292   4.191 -0.5573  0.7774  0.4355
18465TIP3   OH276809   6.118   3.269   4.621  0.0027  0.0028  0.1256
18465TIP3    H176810   6.042   3.300   4.669 -1.4975 -0.9199 -1.5920
18465TIP3    H276811   6.145   3.189   4.666 -1.0258 -0.5377 -0.2217
18466TIP3   OH276812   5.094   6.158   5.514 -0.2001 -0.0190  0.1263
18466TIP3    H176813   5.099   6.169   5.609 -0.9784 -2.2866  0.4630
18466TIP3    H276814   5.098   6.063   5.501 -0.5823  0.2479 -2.0804
18467TIP3   OH276815   2.265   2.339   4.212 -0.2528 -0.0738 -0.0567
18467TIP3    H176816   2.182   2.292   4.202 -0.3054 -0.2426  1.0485
18467TIP3    H276817   2.328   2.271   4.236 -0.2870  0.3715  1.3612
18468TIP3   OH276818   6.547   3.198   2.134  0.5577 -0.4529  0.0046
18468TIP3    H176819   6.503   3.283   2.147 -1.0149 -0.9145 -1.9858
18468TIP3    H276820   6.636   3.221   2.108  0.6003  0.5623  1.0029
18469TIP3   OH276821   1.850   0.488   2.518 -0.3934  0.0884  0.2717
18469TIP3    H176822   1.793   0.447   2.454 -0.2513  0.4850 -0.1128
18469TIP3    H276823   1.791   0.534   2.578 -0.6016 -1.3569  1.1990
18470TIP3   OH276824   3.367   4.524   4.154 -0.0922  0.3486 -0.2719
18470TIP3    H176825   3.362   4.485   4.241 -0.7440  0.5919 -0.1963
18470TIP3    H276826   3.277   4.548   4.133  0.6067  4.2695  0.8054
18471TIP3   OH276827   2.160   2.901   1.526  0.0426  0.1814 -0.0922
18471TIP3    H176828   2.220   2.924   1.597 -0.5835 -0.0653  0.5166
18471TIP3    H276829   2.155   2.806   1.528 -2.3671  0.3021  1.5321
18472TIP3   OH276830   3.146   4.792   4.963  0.1713 -0.4309  0.3034
18472TIP3    H176831   3.235   4.799   4.930  0.9779 -1.1632  2.2240
18472TIP3    H276832   3.156   4.755   5.051 -2.0398 -0.7157  0.4663
18473TIP3   OH276833   0.187   6.612   2.344  0.1171  0.6875  0.2546
18473TIP3    H176834   0.209   6.542   2.282  3.1798  0.4547  1.5205
18473TIP3    H276835   0.109   6.580   2.389 -0.7732 -0.1769 -1.8189
18474TIP3   OH276836   3.999   4.808   3.966  0.3833  0.6726  0.0255
18474TIP3    H176837   4.077   4.779   4.012  0.1981 -1.0471 -0.6848
18474TIP3    H276838   3.927   4.794   4.028  0.8334  4.2115  1.4473
18475TIP3   OH276839   3.794   5.579   2.898 -0.3417  0.4032  0.0022
18475TIP3    H176840   3.779   5.493   2.857  2.5696 -0.8823  1.4304
18475TIP3    H276841   3.819   5.636   2.826  1.4763 -0.9890 -0.5081
18476TIP3   OH276842   2.176   6.379   2.492  0.0626 -0.5958  0.4765
18476TIP3    H176843   2.150   6.303   2.544 -1.7704  0.5297  1.2594
18476TIP3    H276844   2.189   6.344   2.403 -0.1845 -1.9184  0.9460
18477TIP3   OH276845   1.997   3.476   4.209  0.2899  0.5429  0.1861
18477TIP3    H176846   2.077   3.423   4.210 -0.5766 -0.7675  1.0707
18477TIP3    H276847   1.958   3.458   4.123  0.7434  0.8924 -0.0962
18478TIP3   OH276848   6.854   4.348   2.938 -0.6146 -0.0833  0.1064
18478TIP3    H176849   6.798   4.324   2.864  0.4331  0.1651 -0.7828
18478TIP3    H276850   6.922   4.403   2.899  0.1316 -0.2221  1.2116
18479TIP3   OH276851   6.066   2.681   4.024  0.1784  0.3224  0.3166
18479TIP3    H176852   6.125   2.670   3.949  0.8001 -0.5775  0.9268
18479TIP3    H276853   5.982   2.702   3.984  0.6216  0.3763 -0.6181
18480TIP3   OH276854   2.978   6.122   2.975  0.7868 -0.2956  0.6877
18480TIP3    H176855   2.981   6.079   3.060  0.5231  0.0811  0.8851
18480TIP3    H276856   2.902   6.084   2.931  0.6248 -0.1202  0.8159
18481TIP3   OH276857   2.035   3.929   5.721 -0.0006 -0.1800  0.2514
18481TIP3    H176858   1.964   3.892   5.669  1.6664 -0.5099 -1.8174
18481TIP3    H276859   2.074   3.853   5.765 -1.0365  0.0290  1.5724
18482TIP3   OH276860   1.573   0.763   2.369  0.2803 -0.1237 -0.0783
18482TIP3    H176861   1.580   0.782   2.462  2.4634 -1.6543  0.1071
18482TIP3    H276862   1.499   0.704   2.361 -0.4781  0.7207  0.5438
18483TIP3   OH276863   4.272   1.288   3.760  0.5284 -0.0179 -0.2549
18483TIP3    H176864   4.268   1.194   3.778 -0.2767  0.1739  0.6127
18483TIP3    H276865   4.365   1.306   3.748  0.4914 -1.4141 -3.2133
18484TIP3   OH276866   6.418   6.745   5.323  0.4877 -0.2544  0.2338
18484TIP3    H176867   6.455   6.701   5.247  0.0454 -0.2595  0.0233
18484TIP3    H276868   6.325   6.755   5.303  0.6274  0.9849  0.1857
18485TIP3   OH276869   5.180   6.443   2.816  0.1807 -0.2070 -0.3352
18485TIP3    H176870   5.152   6.353   2.830  0.0098 -0.0045  0.6652
18485TIP3    H276871   5.273   6.443   2.839  0.6772 -0.5582 -2.2555
18486TIP3   OH276872   6.279   2.300   3.404  0.3415 -0.1436  0.5721
18486TIP3    H176873   6.263   2.344   3.320  2.6278  3.4367  1.9361
18486TIP3    H276874   6.197   2.310   3.452  0.2744  1.2030  0.2060
18487TIP3   OH276875   6.146   0.386   3.611 -0.0051  0.3003 -0.1524
18487TIP3    H176876   6.106   0.443   3.546 -1.2931 -1.0846 -0.5994
18487TIP3    H276877   6.073   0.336   3.647  1.1477 -1.3363 -0.0524
18488TIP3   OH276878   0.609   5.233   4.564  0.1089 -0.3164  0.2983
18488TIP3    H176879   0.579   5.293   4.496  0.7901 -0.9956 -0.6036
18488TIP3    H276880   0.574   5.270   4.645  2.8764  2.9812  0.1445
18489TIP3   OH276881   0.611   1.741   1.281 -0.3528  0.2708 -0.3196
18489TIP3    H176882   0.556   1.806   1.237 -4.0324 -1.0994  1.9940
18489TIP3    H276883   0.599   1.758   1.374  1.1427 -1.7029  0.2719
18490TIP3   OH276884   4.453   3.902   2.029  0.0030  0.0335 -0.1625
18490TIP3    H176885   4.456   3.807   2.026 -1.2519 -0.1177  2.5005
18490TIP3    H276886   4.361   3.924   2.020  0.2857  1.0068 -0.7486
18491TIP3   OH276887   3.611   3.199   5.373  1.0255 -0.0798 -0.8162
18491TIP3    H176888   3.551   3.209   5.447  0.5416 -0.9318 -1.0739
18491TIP3    H276889   3.553   3.194   5.297  1.3645 -1.5260 -1.0052
18492TIP3   OH276890   1.374   3.415   5.754  0.0085  0.2774  0.1073
18492TIP3    H176891   1.334   3.405   5.840 -1.0634  0.3764 -0.3697
18492TIP3    H276892   1.431   3.338   5.745 -1.9924 -1.2008 -0.2216
18493TIP3   OH276893   3.235   5.892   5.586  0.0785  0.6759 -0.1969
18493TIP3    H176894   3.268   5.979   5.608  1.5835  0.1917 -0.4566
18493TIP3    H276895   3.304   5.832   5.616 -0.8973 -0.4145 -0.1020
18494TIP3   OH276896   1.379   3.021   2.562  0.9104  0.3008  0.0845
18494TIP3    H176897   1.453   2.985   2.512  0.4331 -0.7661  0.1327
18494TIP3    H276898   1.388   3.116   2.552  3.1370  0.2505  1.2987
18495TIP3   OH276899   6.415   5.808   4.696  0.3673 -0.8669 -0.2586
18495TIP3    H176900   6.357   5.751   4.747  0.6598 -0.5484  0.4384
18495TIP3    H276901   6.499   5.805   4.742  0.4041  0.0674 -0.2450
18496TIP3   OH276902   6.608   3.002   2.704  0.6223 -0.2297 -0.5647
18496TIP3    H176903   6.656   3.038   2.778 -0.8944  0.6976  0.0004
18496TIP3    H276904   6.674   2.961   2.649  1.7284 -1.0874  1.4021
18497TIP3   OH276905   3.428   3.403   3.011  0.1427  0.0234  0.2774
18497TIP3    H176906   3.361   3.360   2.958 -0.2023 -1.6163  2.0000
18497TIP3    H276907   3.380   3.440   3.085  0.7742  1.2792  0.0729
18498TIP3   OH276908   2.498   5.689   3.034 -0.0227 -0.5261  0.3608
18498TIP3    H176909   2.509   5.594   3.028  0.2217 -0.5085  0.5294
18498TIP3    H276910   2.587   5.723   3.045  0.1026 -0.1214 -1.7421
18499TIP3   OH276911   5.102   4.479   2.583  0.2646  0.6736 -0.2642
18499TIP3    H176912   5.159   4.489   2.659 -0.0622 -0.4112  0.1359
18499TIP3    H276913   5.138   4.404   2.535 -1.5458 -0.8336  0.6763
18500TIP3   OH276914   2.440   5.806   2.790 -0.3414  0.1223  0.7031
18500TIP3    H176915   2.483   5.891   2.790  1.4876 -0.7887 -0.5390
18500TIP3    H276916   2.474   5.762   2.868 -0.9642  0.3506  1.1106
18501TIP3   OH276917   2.856   1.320   4.810  0.7156 -0.0913 -0.1662
18501TIP3    H176918   2.790   1.269   4.765  0.4120 -0.9195  1.1858
18501TIP3    H276919   2.807   1.389   4.855  0.9399  0.2968 -0.5156
18502TIP3   OH276920   2.784   5.710   3.834  0.0967  0.7166 -0.1795
18502TIP3    H176921   2.808   5.691   3.743  1.1104  0.6205  0.1011
18502TIP3    H276922   2.727   5.638   3.860 -1.9072  1.8075 -1.3911
18503TIP3   OH276923   2.484   1.347   3.082 -0.3239  0.3264 -0.4442
18503TIP3    H176924   2.498   1.365   3.175  1.5537  2.0475 -1.0162
18503TIP3    H276925   2.428   1.270   3.081 -0.6279  0.4544  2.1140
18504TIP3   OH276926   6.456   3.808   0.395  0.6282  0.2161 -0.1148
18504TIP3    H176927   6.371   3.851   0.388 -0.5642 -2.0170  0.0020
18504TIP3    H276928   6.519   3.879   0.404 -1.0575  1.9761 -1.8488
18505TIP3   OH276929   0.782   4.446   4.075  0.0504  0.1283 -0.1452
18505TIP3    H176930   0.696   4.486   4.063 -1.2232 -2.8232 -1.3383
18505TIP3    H276931   0.790   4.435   4.170 -0.7852  0.6138 -0.0113
18506TIP3   OH276932   0.782   3.619   3.801 -0.6816 -0.2102 -0.3398
18506TIP3    H176933   0.827   3.682   3.857 -1.1875 -0.1747  0.0282
18506TIP3    H276934   0.702   3.597   3.849 -0.8130 -0.6530 -0.7587
18507TIP3   OH276935   4.441   5.931   4.505 -0.3560  0.5425 -0.5612
18507TIP3    H176936   4.487   5.994   4.450 -1.5140  0.6187 -1.4558
18507TIP3    H276937   4.405   5.984   4.576  0.0011  0.6491 -0.4611
18508TIP3   OH276938   2.556   6.752   5.372  0.8870  0.2262  0.1836
18508TIP3    H176939   2.592   6.687   5.312 -0.3595  1.0891 -1.5949
18508TIP3    H276940   2.578   6.836   5.331 -0.1028  0.8333  0.8724
18509TIP3   OH276941   3.672   6.619   3.628  0.7063  0.1518  0.0130
18509TIP3    H176942   3.704   6.656   3.710 -1.5835  0.3535  0.8459
18509TIP3    H276943   3.658   6.526   3.648 -2.4384  0.7237  0.6972
18510TIP3   OH276944   0.794   3.803   3.599 -0.2604  0.3118  0.4287
18510TIP3    H176945   0.799   3.754   3.682  0.1420  0.1196  0.2940
18510TIP3    H276946   0.759   3.889   3.624 -4.0512 -1.0706  0.2337
18511TIP3   OH276947   1.134   0.697   1.472 -0.9234 -0.2358  0.6695
18511TIP3    H176948   1.127   0.603   1.453 -0.6590 -0.1109 -0.0503
18511TIP3    H276949   1.086   0.708   1.554 -0.0867 -1.1792  1.3019
18512TIP3   OH276950   1.872   5.385   5.318  0.1133 -0.8364  0.2372
18512TIP3    H176951   1.778   5.399   5.303  0.2660 -1.7245 -1.7696
18512TIP3    H276952   1.887   5.294   5.291  2.0724  0.1740 -2.2493
18513TIP3   OH276953   4.805   1.291   2.886 -0.0111 -0.2778 -0.3676
18513TIP3    H176954   4.848   1.214   2.848  2.6184  0.4444  0.9987
18513TIP3    H276955   4.731   1.255   2.935 -0.3492 -1.6825 -1.8694
18514TIP3   OH276956   0.129   3.145   4.851 -0.0951  0.4322 -0.5517
18514TIP3    H176957   0.157   3.233   4.878 -0.8789  0.1563  1.2499
18514TIP3    H276958   0.109   3.100   4.933  1.5815 -1.8965 -1.3854
18515TIP3   OH276959   4.313   4.094   3.349 -0.6778  0.1421  0.3825
18515TIP3    H176960   4.244   4.141   3.302  0.6226  0.5849 -1.1292
18515TIP3    H276961   4.271   4.014   3.379 -1.1821 -0.8494 -2.8149
18516TIP3   OH276962   5.395   6.051  10.931 -0.2214  0.0675 -0.1769
18516TIP3    H176963   5.385   6.009  11.016  0.7660 -0.5266 -0.3527
18516TIP3    H276964   5.415   6.142  10.951 -1.6142  0.3098  0.2085
18517TIP3   OH276965   5.375   4.755   1.090 -0.1755 -0.2485 -0.4358
18517TIP3    H176966   5.388   4.758   0.995 -1.4431  1.0695 -0.5794
18517TIP3    H276967   5.381   4.846   1.118  0.5922 -0.6615  0.8235
18518TIP3   OH276968   4.596   3.765   4.270  0.0450  0.0509  0.3231
18518TIP3    H176969   4.565   3.842   4.318 -0.3995  1.4889 -2.1907
18518TIP3    H276970   4.691   3.775   4.271 -0.0277  0.8906 -0.3847
18519TIP3   OH276971   3.696   3.537   6.023  0.0099  0.1718  0.1145
18519TIP3    H176972   3.760   3.478   5.985 -0.1055  0.2762 -0.2487
18519TIP3    H276973   3.625   3.540   5.959  0.0168  0.7012  0.1277
18520TIP3   OH276974   1.612   4.687   5.116 -0.5459  0.3237  0.2044
18520TIP3    H176975   1.604   4.628   5.191 -1.2436  0.3282  0.1344
18520TIP3    H276976   1.693   4.659   5.073  0.9087  1.5847  2.0403
18521TIP3   OH276977   1.833   5.554   3.165  0.0995 -0.2785 -0.0034
18521TIP3    H176978   1.869   5.605   3.092 -0.9764  1.7621  0.8416
18521TIP3    H276979   1.902   5.555   3.232  0.9352 -1.8283 -0.8037
18522TIP3   OH276980   4.912   4.481   2.387  0.4685 -0.8579 -0.0150
18522TIP3    H176981   4.956   4.505   2.306 -1.2176 -0.6623 -0.8964
18522TIP3    H276982   4.974   4.505   2.456  0.4558  2.3640 -1.0499
18523TIP3   OH276983   5.455   3.538   5.265 -0.6842  0.2947 -0.1115
18523TIP3    H176984   5.508   3.518   5.188 -0.5534 -0.9312  0.2737
18523TIP3    H276985   5.441   3.452   5.307 -0.4378  0.9724  1.4125
18524TIP3   OH276986   5.215   5.391   4.389 -0.2929 -0.5331 -0.2548
18524TIP3    H176987   5.199   5.397   4.483 -0.5503  1.6398 -0.4024
18524TIP3    H276988   5.191   5.478   4.355  1.2969 -0.7748 -2.0830
18525TIP3   OH276989   6.742   4.837   4.961  0.1438  0.5145  0.1085
18525TIP3    H176990   6.681   4.861   5.031  0.1082  2.1241 -0.4363
18525TIP3    H276991   6.687   4.832   4.882  0.6425  1.7354 -0.3416
18526TIP3   OH276992   5.873   4.729   0.509 -0.1440 -0.0492 -0.1187
18526TIP3    H176993   5.824   4.679   0.444 -0.2738  0.6637 -0.5621
18526TIP3    H276994   5.808   4.783   0.553 -0.0616 -0.5580  0.6335
18527TIP3   OH276995   0.835   5.648   5.151 -0.2253 -0.4493 -0.5703
18527TIP3    H176996   0.869   5.561   5.169 -1.5479 -0.6854  0.9077
18527TIP3    H276997   0.764   5.660   5.214 -0.4306  1.4780 -1.1185
18528TIP3   OH276998   3.676   3.408   5.056 -0.0944  0.4606 -0.9611
18528TIP3    H176999   3.655   3.455   5.137  0.4576 -0.0542 -0.5223
18528TIP3    H277000   3.592   3.400   5.011 -0.4698  0.3827 -0.2492
18529TIP3   OH277001   0.923   2.546   3.369 -0.1746  0.1526  0.4049
18529TIP3    H177002   0.913   2.541   3.464 -0.8784  0.7452  0.3671
18529TIP3    H277003   0.933   2.640   3.351  1.8443 -0.1040  0.0773
18530TIP3   OH277004   2.984   5.443  15.203 -0.0650 -0.5601 -0.2500
18530TIP3    H177005   2.996   5.498  15.126 -1.7928 -1.7271 -1.3987
18530TIP3    H277006   2.921   5.377  15.175 -0.5163 -1.1618  2.0909
18531TIP3   OH277007   0.018   3.230   2.724 -0.3281 -0.1533  0.1266
18531TIP3    H177008  -0.035   3.277   2.789  0.2900 -1.0946  1.3136
18531TIP3    H277009   0.108   3.239   2.755  0.0997  0.3204 -1.1927
18532TIP3   OH277010   1.613   2.269   3.382 -0.0890  0.1540  0.0249
18532TIP3    H177011   1.639   2.183   3.352 -1.5634 -0.6851  1.0376
18532TIP3    H277012   1.524   2.281   3.348 -0.5776  0.5021  1.3609
18533TIP3   OH277013   1.584   2.243   4.348 -0.4095  0.4553 -0.2079
18533TIP3    H177014   1.670   2.272   4.377 -0.6357  1.7250 -0.7707
18533TIP3    H277015   1.523   2.285   4.408 -0.7106  0.7032 -0.6860
18534TIP3   OH277016   1.749   4.088   0.243 -0.1873  0.1778  0.3296
18534TIP3    H177017   1.656   4.077   0.223 -0.6555  0.4770  2.2251
18534TIP3    H277018   1.784   3.998   0.246  0.6692  0.1593 -4.8989
18535TIP3   OH277019   4.634   2.083   4.446 -0.4088  0.4420 -0.2803
18535TIP3    H177020   4.618   2.177   4.436  0.8099  0.8980  1.7522
18535TIP3    H277021   4.589   2.060   4.527  0.3242 -0.4678 -0.1238
18536TIP3   OH277022   3.114   3.675   5.179 -0.7339  0.3584  0.4415
18536TIP3    H177023   3.101   3.713   5.266 -0.9943  0.6522  0.2732
18536TIP3    H277024   3.130   3.750   5.122 -0.3620  0.1525  0.2687
18537TIP3   OH277025   2.548   4.448   5.029 -0.1274  0.1628 -0.0699
18537TIP3    H177026   2.537   4.496   4.946 -0.5765 -1.7344 -1.1363
18537TIP3    H277027   2.472   4.473   5.081 -0.2974  0.7022 -0.5653
18538TIP3   OH277028   6.094   6.139   3.923 -0.6782  0.1770 -0.8173
18538TIP3    H177029   6.143   6.172   3.848 -2.8306  0.1972 -2.2625
18538TIP3    H277030   6.073   6.048   3.900 -1.1342  0.1059 -0.1343
18539TIP3   OH277031   5.851   1.000   4.201 -0.5463 -0.4346 -0.2219
18539TIP3    H177032   5.820   0.962   4.283  1.2184  1.1975  1.2461
18539TIP3    H277033   5.875   1.090   4.223  2.5496 -0.7575 -1.8495
18540TIP3   OH277034   1.530   5.416   4.010 -0.2591  0.4751  0.0088
18540TIP3    H177035   1.612   5.367   4.007 -1.0503 -0.8801  0.1601
18540TIP3    H277036   1.534   5.475   3.934  0.6988  0.1830 -0.1737
18541TIP3   OH277037   5.272   2.448   3.786  0.2788  0.0241  0.0022
18541TIP3    H177038   5.289   2.431   3.879  0.3471 -0.1194 -0.0358
18541TIP3    H277039   5.213   2.523   3.786 -0.8186 -0.8359  0.2000
18542TIP3   OH277040   1.143   1.760   3.346  0.2691  0.0696 -0.4114
18542TIP3    H177041   1.110   1.714   3.269  0.0389  0.7587 -0.7283
18542TIP3    H277042   1.080   1.831   3.360  0.5465  0.2066  0.1553
18543TIP3   OH277043   1.907   0.847   4.022 -0.3164 -0.1244  0.2928
18543TIP3    H177044   1.906   0.763   3.976  0.4904 -0.0276  0.0986
18543TIP3    H277045   1.814   0.866   4.039 -0.5078 -0.9954  0.2401
18544TIP3   OH277046   1.444   5.158   4.620 -0.0594  0.2046 -0.5406
18544TIP3    H177047   1.528   5.201   4.603  1.8295 -1.5956  3.5305
18544TIP3    H277048   1.387   5.228   4.652  0.7084  0.9838 -0.8538
18545TIP3   OH277049   6.204   5.790   4.481 -0.0123 -0.0758  0.1536
18545TIP3    H177050   6.279   5.787   4.540 -0.4053 -0.9856  0.6064
18545TIP3    H277051   6.145   5.855   4.519  0.1539  0.0089  0.2640
18546TIP3   OH277052   2.352   5.141   4.259 -0.1154 -0.4578  0.8282
18546TIP3    H177053   2.344   5.233   4.286 -0.0412 -0.7954  2.0540
18546TIP3    H277054   2.262   5.110   4.252 -0.1439 -0.2314  0.2104
18547TIP3   OH277055   2.055   5.189   5.018 -0.6130  0.3061  0.2894
18547TIP3    H177056   2.130   5.204   4.959 -1.1591  4.1415  0.4329
18547TIP3    H277057   2.095   5.171   5.103  0.1654 -0.8538 -0.3165
18548TIP3   OH277058   2.834   2.685   4.698 -0.1135  0.4969 -0.3685
18548TIP3    H177059   2.915   2.717   4.736 -1.2696  1.2893  1.4727
18548TIP3    H277060   2.850   2.686   4.603  2.3560 -0.3457 -0.0014
18549TIP3   OH277061   0.127   3.768   3.276  0.0465  1.0337 -0.1181
18549TIP3    H177062   0.078   3.796   3.199 -1.4839  0.7414  0.7198
18549TIP3    H277063   0.077   3.693   3.310  0.8907  0.9444  0.9511
18550TIP3   OH277064   4.031   5.257   0.735 -0.7080 -0.1828  0.4254
18550TIP3    H177065   3.972   5.310   0.682 -1.6435 -0.4799  1.1558
18550TIP3    H277066   3.973   5.207   0.793  0.1599 -1.8802 -0.1395
18551TIP3   OH277067   2.932   5.138   4.058  0.1192 -0.0525 -0.4819
18551TIP3    H177068   2.854   5.127   4.005 -0.2467 -0.3271  0.1035
18551TIP3    H277069   2.924   5.071   4.127 -0.2327  1.3607  0.8775
18552TIP3   OH277070   0.086   4.143   4.365  0.3935 -0.4736 -0.0952
18552TIP3    H177071  -0.005   4.114   4.357  0.3353 -0.6340  1.1021
18552TIP3    H277072   0.097   4.164   4.457  1.0209  1.4349 -0.5878
18553TIP3   OH277073   5.518   4.782   2.043 -0.1245  0.5817  0.0054
18553TIP3    H177074   5.462   4.712   2.076  1.7601 -0.8273  0.3023
18553TIP3    H277075   5.528   4.764   1.950  0.1299  0.6231  0.0233
18554TIP3   OH277076   4.185   3.865   1.835 -0.3691  0.1133 -0.0042
18554TIP3    H177077   4.212   3.838   1.747 -1.4483  2.0233 -0.9650
18554TIP3    H277078   4.095   3.834   1.843  0.1220 -1.1017  0.9061
18555TIP3   OH277079   6.843   1.975   2.907 -0.4324 -0.2339  0.3125
18555TIP3    H177080   6.850   1.935   2.994  0.9973 -0.5493  0.0666
18555TIP3    H277081   6.864   1.904   2.847 -2.2831 -0.2533 -0.3604
18556TIP3   OH277082   2.523   4.152   4.708  0.2029 -0.2153  0.3587
18556TIP3    H177083   2.501   4.137   4.800 -1.0977  0.4545  0.1597
18556TIP3    H277084   2.440   4.145   4.661  0.8700 -0.6436 -0.7872
18557TIP3   OH277085   0.865   6.069   4.852 -0.6619 -0.4670 -0.2206
18557TIP3    H177086   0.896   6.121   4.926  1.9168  0.8589 -2.1513
18557TIP3    H277087   0.928   5.997   4.844 -1.7176 -1.4082 -0.2849
18558TIP3   OH277088   2.183   5.166   5.488  0.6555 -0.0496 -0.1251
18558TIP3    H177089   2.269   5.172   5.529  0.6105  1.1969 -0.1988
18558TIP3    H277090   2.145   5.253   5.497 -0.7079 -0.6475  0.1182
18559TIP3   OH277091   5.169   6.954   4.243  0.8866 -0.2558  0.3064
18559TIP3    H177092   5.147   6.897   4.317 -0.3966 -0.7665 -0.4439
18559TIP3    H277093   5.135   6.908   4.166 -1.0672  1.9403 -0.2208
18560TIP3   OH277094   5.211   3.469   4.930 -0.2225  0.3186  0.5504
18560TIP3    H177095   5.219   3.473   4.834 -1.0823 -0.3198  0.4518
18560TIP3    H277096   5.169   3.385   4.947 -0.2794  0.5323  1.4868
18561TIP3   OH277097   1.617   5.185   3.702  0.0232 -0.3087  0.0378
18561TIP3    H177098   1.710   5.201   3.713  0.1099  0.3950 -1.5816
18561TIP3    H277099   1.602   5.189   3.607 -1.7249  0.0484  0.3020
18562TIP3   OH277100   5.668   4.502   1.761 -0.5029 -0.1028 -0.1416
18562TIP3    H177101   5.675   4.587   1.716 -1.0401 -0.7070 -1.4059
18562TIP3    H277102   5.756   4.466   1.756 -0.3342  0.2599  0.1565
18563TIP3   OH277103   4.849   4.171   2.496  0.0697 -0.0825 -0.4982
18563TIP3    H177104   4.907   4.104   2.533 -1.0028  0.2414  1.9130
18563TIP3    H277105   4.860   4.247   2.553 -0.4656  1.0091 -1.8183
18564TIP3   OH277106   6.958   3.269   2.447 -0.1147  0.1182  0.2725
18564TIP3    H177107   6.986   3.179   2.462  0.0471 -0.1453 -1.4758
18564TIP3    H277108   6.867   3.272   2.476 -0.2752 -0.7353 -0.1499
18565TIP3   OH277109   4.568   6.257   5.362  0.0099  0.2580 -0.0069
18565TIP3    H177110   4.481   6.230   5.392  1.3558 -1.7272  2.2793
18565TIP3    H277111   4.610   6.177   5.331  0.7202  1.3543 -1.9711
18566TIP3   OH277112   6.274   6.264   0.668  0.4673 -0.2581 -0.2999
18566TIP3    H177113   6.182   6.260   0.694 -0.1635  1.5737 -2.1116
18566TIP3    H277114   6.314   6.188   0.710 -1.6787 -0.5817  1.2412
18567TIP3   OH277115   0.213   4.061   4.054 -0.3595 -0.3148 -0.2396
18567TIP3    H177116   0.239   4.141   4.101  1.9929 -0.4372 -1.2887
18567TIP3    H277117   0.244   4.074   3.965 -2.6085 -1.1526 -1.1691
18568TIP3   OH277118   4.525   3.162   3.723 -0.7107  0.1112 -0.4275
18568TIP3    H177119   4.604   3.215   3.715  1.0917 -2.5713 -1.1343
18568TIP3    H277120   4.495   3.149   3.633 -0.8496 -0.4662 -0.3036
18569TIP3   OH277121   3.177   4.875   5.418  0.0882  0.7616  0.3342
18569TIP3    H177122   3.148   4.932   5.490 -0.8626  0.3054  0.3177
18569TIP3    H277123   3.163   4.927   5.339  1.2562  1.3136  0.4770
18570TIP3   OH277124   2.115   2.786   2.652  0.1501 -0.1734  0.2461
18570TIP3    H177125   2.207   2.790   2.679  0.5992 -2.8876 -0.6858
18570TIP3    H277126   2.084   2.701   2.685 -1.0525 -0.7762 -2.2925
18571TIP3   OH277127   5.859   6.050   1.910  0.3934  0.2504  0.0358
18571TIP3    H177128   5.846   5.964   1.870  2.2905  0.3311 -0.8167
18571TIP3    H277129   5.883   6.030   2.001  0.2693 -0.0995 -0.0073
18572TIP3   OH277130   1.453   0.818   2.832  0.1467 -0.5659  0.2988
18572TIP3    H177131   1.524   0.846   2.890  0.4798  1.3697 -1.0000
18572TIP3    H277132   1.384   0.883   2.845 -0.7446 -1.4998  0.3189
18573TIP3   OH277133   3.295   1.994   2.518 -0.1164 -0.1703  0.1126
18573TIP3    H177134   3.375   1.944   2.533 -0.4312 -0.5323  0.6208
18573TIP3    H277135   3.324   2.084   2.502  0.4442 -0.4804 -0.6426
18574TIP3   OH277136   0.321   4.260   2.488  1.0735 -0.0681 -0.5586
18574TIP3    H177137   0.247   4.220   2.443  0.5653  0.1009  0.1140
18574TIP3    H277138   0.285   4.338   2.530  1.6723  0.1282 -0.3966
18575TIP3   OH277139   1.672   2.692   4.027 -0.2167 -0.0365 -0.7712
18575TIP3    H177140   1.593   2.660   3.984 -0.2206  2.5619 -2.8473
18575TIP3    H277141   1.640   2.744   4.100 -0.3271 -1.3699  0.1378
18576TIP3   OH277142   6.343   1.960   3.399  0.4281 -0.3738  0.1966
18576TIP3    H177143   6.307   2.043   3.369  0.3094 -0.6939 -0.5633
18576TIP3    H277144   6.428   1.952   3.355  0.9933 -0.0778  1.2279
18577TIP3   OH277145   4.390   3.393   4.440 -0.6537 -0.4517 -0.8741
18577TIP3    H177146   4.368   3.332   4.369  0.2877 -2.3101  0.3647
18577TIP3    H277147   4.485   3.382   4.453 -0.6240  0.6457 -0.0463
18578TIP3   OH277148   5.928   4.759   3.792 -0.1102  0.2851  0.4632
18578TIP3    H177149   5.871   4.682   3.787  0.0313  0.1956  0.2299
18578TIP3    H277150   5.868   4.833   3.800 -0.2587  0.1993  0.1126
18579TIP3   OH277151   2.545   4.538   3.334 -0.3513 -0.7536 -0.1119
18579TIP3    H177152   2.497   4.528   3.416 -1.4056 -1.0208 -0.7644
18579TIP3    H277153   2.615   4.472   3.339 -0.0945 -0.4265  0.7860
18580TIP3   OH277154   1.852   5.355   4.049 -0.1747  0.4397 -0.2543
18580TIP3    H177155   1.863   5.322   4.138 -2.7253  0.5336  0.1301
18580TIP3    H277156   1.860   5.277   3.994  1.9249  0.4555 -0.0325
18581TIP3   OH277157   7.002   2.643   1.153  0.5131 -0.4716  0.3778
18581TIP3    H177158   7.017   2.609   1.065  0.4462  2.8794 -0.9855
18581TIP3    H277159   6.965   2.569   1.201 -1.0986 -1.8769 -2.8733
18582TIP3   OH277160   0.410   4.571   2.937 -0.0585  0.8724 -0.5842
18582TIP3    H177161   0.422   4.482   2.904 -1.5169  0.3925  0.1333
18582TIP3    H277162   0.495   4.596   2.971  0.7338  0.2955 -2.0824
18583TIP3   OH277163   2.378   2.943   3.885 -0.4656  0.1846 -0.0763
18583TIP3    H177164   2.382   2.975   3.795 -1.4227  1.1643  0.2301
18583TIP3    H277165   2.324   2.864   3.879 -1.2612  0.7409 -0.2113
18584TIP3   OH277166   1.629   0.793   3.449  0.2021 -0.2547  0.0037
18584TIP3    H177167   1.546   0.823   3.485  0.8034 -0.8937  1.9942
18584TIP3    H277168   1.604   0.733   3.378 -1.0184 -0.2717  0.4402
18585TIP3   OH277169   2.945   5.287   5.856 -0.5191  0.6244 -0.0794
18585TIP3    H177170   2.922   5.307   5.946  0.2897  0.7797  0.0994
18585TIP3    H277171   3.027   5.238   5.863  0.0318  1.4357 -0.7740
18586TIP3   OH277172   4.980   6.730   4.969  0.1356  0.1900 -0.0797
18586TIP3    H177173   4.984   6.674   5.047  2.5177  0.0725 -0.2512
18586TIP3    H277174   4.928   6.805   4.997 -2.1051 -1.5316  0.5039
18587TIP3   OH277175   1.748   5.272   2.744  0.0660  0.0234 -0.1348
18587TIP3    H177176   1.761   5.328   2.668  1.2255 -0.2427 -0.1360
18587TIP3    H277177   1.734   5.185   2.707 -3.0191  0.4693 -0.2006
18588TIP3   OH277178   1.741   7.067   1.769  0.0416 -0.3896 -0.0935
18588TIP3    H177179   1.748   6.976   1.740 -1.7635 -0.6106  0.1043
18588TIP3    H277180   1.674   7.065   1.837  0.7408  0.9268  0.6416
18589TIP3   OH277181   1.585   4.031   3.021  0.2584  0.5865  0.7746
18589TIP3    H177182   1.577   4.031   2.925  1.5529 -1.2906  0.6419
18589TIP3    H277183   1.624   4.117   3.041 -0.4942  1.2038 -0.3272
18590TIP3   OH277184   1.871   2.345   3.655 -0.2476  0.0482 -0.7015
18590TIP3    H177185   1.862   2.297   3.738  1.4616  2.2428  0.8277
18590TIP3    H277186   1.958   2.322   3.624 -0.6234 -0.2290 -1.5507
18591TIP3   OH277187   2.956   6.452   5.137 -0.6467  0.2980  0.5687
18591TIP3    H177188   3.029   6.411   5.092 -0.0341  0.6537  1.2380
18591TIP3    H277189   2.964   6.545   5.117 -1.9601  0.1416 -0.8409
18592TIP3   OH277190   1.918   2.592   3.330 -0.4633 -0.1595  0.0127
18592TIP3    H177191   1.963   2.507   3.335  1.3049  0.6819 -1.1150
18592TIP3    H277192   1.889   2.609   3.419 -0.6764 -1.8514  0.2955
18593TIP3   OH277193   2.249   3.070   5.135  0.3839  0.4956 -0.2186
18593TIP3    H177194   2.336   3.110   5.140  0.8366 -0.6468  1.3599
18593TIP3    H277195   2.194   3.124   5.192  0.8506 -0.7325  1.4213
18594TIP3   OH277196   0.999   4.445   5.991  0.1222  0.2756 -0.1048
18594TIP3    H177197   1.008   4.520   5.932 -1.9098  0.2703 -0.4797
18594TIP3    H277198   1.066   4.383   5.962  0.5488  1.1571 -1.0263
18595TIP3   OH277199   0.904   6.984   5.150  0.3085 -0.2322  0.0531
18595TIP3    H177200   0.895   7.078   5.170  0.7897 -0.0947 -0.3893
18595TIP3    H277201   0.839   6.969   5.082 -0.2178 -0.3607  0.5769
18596TIP3   OH277202   2.343   4.412   2.335 -0.8026 -0.0774  0.3156
18596TIP3    H177203   2.379   4.488   2.381 -0.8808 -1.1204  2.1555
18596TIP3    H277204   2.418   4.355   2.321 -0.3188  1.2751 -3.0867
18597TIP3   OH277205   0.075   6.411   6.048  0.1739 -0.1780 -0.6827
18597TIP3    H177206  -0.009   6.450   6.025 -0.1911 -0.3971  0.2506
18597TIP3    H277207   0.053   6.322   6.076  0.6910 -0.1637 -0.2237
18598TIP3   OH277208   1.285   2.705   3.021 -0.1627 -0.0209  0.2871
18598TIP3    H177209   1.380   2.706   3.036  0.1816  0.5346 -1.7161
18598TIP3    H277210   1.257   2.795   3.038 -0.0626  0.1850 -0.6060
18599TIP3   OH277211   6.663   6.271   5.432  0.4656  0.4731  0.4887
18599TIP3    H177212   6.642   6.364   5.423 -0.0308  0.4171  0.9919
18599TIP3    H277213   6.612   6.228   5.363  0.5452  0.5513  0.3796
18600TIP3   OH277214   2.876   2.238   6.089  0.1578 -0.1558  0.5665
18600TIP3    H177215   2.818   2.311   6.068  0.9843 -0.0571 -1.4976
18600TIP3    H277216   2.961   2.279   6.105  0.5913 -0.6537 -0.4593
18601TIP3   OH277217   6.310   1.444   2.940 -0.1652  0.4150  0.1076
18601TIP3    H177218   6.228   1.400   2.961  0.2227  0.1269  0.9997
18601TIP3    H277219   6.360   1.380   2.889  0.3819 -0.1864  1.3693
18602TIP3   OH277220   6.538   1.678   2.938 -0.2590  0.3152 -0.0513
18602TIP3    H177221   6.584   1.661   2.856 -0.8246 -0.4217 -0.2197
18602TIP3    H277222   6.480   1.603   2.949  2.1574 -1.2813  2.6714
18603TIP3   OH277223   5.218   2.845   5.303 -0.1505  0.1237  0.8546
18603TIP3    H177224   5.299   2.857   5.254  0.1822  0.0083  1.3755
18603TIP3    H277225   5.245   2.801   5.384 -0.7151  0.1801  1.0746
18604TIP3   OH277226   1.191   5.018   3.634  0.3737  0.6648 -0.8012
18604TIP3    H177227   1.122   5.029   3.699  0.4900  1.8092 -0.8614
18604TIP3    H277228   1.272   5.024   3.684  0.4431 -0.3141 -0.7856
18605TIP3   OH277229   0.929   4.713   5.040  0.0047  0.1968  0.1841
18605TIP3    H177230   0.937   4.638   5.100  0.7150  0.1837  0.0829
18605TIP3    H277231   0.949   4.789   5.094 -0.5561  0.3037  0.2468
18606TIP3   OH277232   1.730   3.005   4.731  0.1573 -0.3897  0.2082
18606TIP3    H177233   1.808   3.036   4.686  1.0960  0.9579  2.6733
18606TIP3    H277234   1.664   3.072   4.715  0.8423  0.6828  1.7694
18607TIP3   OH277235   1.032   1.528   0.865 -0.3607  0.1910  0.7767
18607TIP3    H177236   0.998   1.506   0.951 -2.3573 -0.2283 -0.0906
18607TIP3    H277237   1.125   1.505   0.869 -0.2814  0.8517  3.0281
18608TIP3   OH277238   1.527   3.429   5.353 -0.0075  0.4050  0.5771
18608TIP3    H177239   1.442   3.473   5.364 -0.7791 -0.5065 -1.4962
18608TIP3    H277240   1.585   3.498   5.320 -0.4115  0.6118  0.2870
18609TIP3   OH277241   2.086   3.393   6.005 -0.1654  0.1984  0.2036
18609TIP3    H177242   2.175   3.375   6.035  0.3457  1.6832 -0.3771
18609TIP3    H277243   2.031   3.335   6.057  0.9476  0.8437  2.1496
18610TIP3   OH277244   4.951   3.462   4.716  0.2641 -0.7474  0.2925
18610TIP3    H177245   4.915   3.388   4.765 -0.2958 -0.8887 -0.3359
18610TIP3    H277246   4.953   3.534   4.780  1.5626 -1.5034  1.1340
18611TIP3   OH277247   6.633   3.576   2.299 -0.0669 -0.1688  0.1187
18611TIP3    H177248   6.667   3.566   2.388 -1.1931  1.4901  0.7528
18611TIP3    H277249   6.567   3.506   2.291 -0.2371 -0.0824  0.7172
18612TIP3   OH277250   1.605   6.156   4.595  0.0320 -0.2435  0.7656
18612TIP3    H177251   1.552   6.076   4.587  0.4513 -0.1756 -3.9670
18612TIP3    H277252   1.541   6.227   4.593 -0.0420 -0.3092  0.7819
18613TIP3   OH277253   0.381   5.462   1.711 -0.2193 -0.1566  0.0019
18613TIP3    H177254   0.302   5.462   1.766 -0.7837  0.4447 -0.7955
18613TIP3    H277255   0.418   5.549   1.722 -1.0341  0.4009 -1.5444
18614TIP3   OH277256   2.443   4.995   4.526  0.2720 -0.0417 -0.3438
18614TIP3    H177257   2.366   4.954   4.486  0.5810 -0.7201 -0.2512
18614TIP3    H277258   2.415   5.019   4.614  0.1152 -0.1430 -0.3666
18615TIP3   OH277259   0.413   6.661   4.700 -0.1627 -0.2717 -0.0241
18615TIP3    H177260   0.444   6.626   4.616  0.6368 -0.9589  0.5480
18615TIP3    H277261   0.489   6.656   4.757 -0.7853 -0.0823  0.8276
18616TIP3   OH277262   6.276   5.856   3.338 -0.0755  0.2091  0.3431
18616TIP3    H177263   6.211   5.810   3.391  1.5961 -0.2487  2.0400
18616TIP3    H277264   6.303   5.793   3.272 -1.7387  0.5910 -0.7488
18617TIP3   OH277265   5.862   6.796   4.500 -0.0166 -0.0898 -0.6460
18617TIP3    H177266   5.920   6.848   4.555 -0.4474 -0.6573  0.3810
18617TIP3    H277267   5.790   6.855   4.478 -0.0107  0.0444 -0.3122
18618TIP3   OH277268   1.233   4.447   4.829 -0.2362  0.2796  0.1308
18618TIP3    H177269   1.189   4.498   4.761  1.9241  0.4201 -1.1970
18618TIP3    H277270   1.292   4.509   4.872 -0.8488 -0.0480  1.4920
18619TIP3   OH277271   2.063   3.833   4.785  0.0510  0.2135 -0.0215
18619TIP3    H177272   2.097   3.746   4.760 -0.7220 -0.0471 -0.1810
18619TIP3    H277273   1.990   3.848   4.724  0.3080  1.0647 -0.1215
18620TIP3   OH277274   1.360   1.560   4.689 -0.2954 -0.0505 -1.0135
18620TIP3    H177275   1.347   1.536   4.781 -1.1091 -0.3038 -1.1827
18620TIP3    H277276   1.385   1.652   4.691  1.8709 -0.6326 -0.4080
18621TIP3   OH277277   4.383   4.304   1.898 -0.3012  0.3051 -0.3619
18621TIP3    H177278   4.434   4.329   1.975 -2.9100  2.1708  0.8130
18621TIP3    H277279   4.449   4.287   1.831  2.1135 -2.5477  2.5508
18622TIP3   OH277280   0.056   3.608   2.787  0.1588  0.2338  0.6230
18622TIP3    H177281  -0.033   3.624   2.817  0.0093 -0.7832  0.7567
18622TIP3    H277282   0.046   3.539   2.720  0.5581  1.9236 -1.2267
18623TIP3   OH277283   3.105   4.397   2.180 -0.4044 -0.5533  0.2416
18623TIP3    H177284   3.149   4.361   2.104 -0.9187 -1.0523  0.1785
18623TIP3    H277285   3.124   4.336   2.251  2.6557  1.4899  1.2920
18624TIP3   OH277286   4.085   0.696   4.393 -0.4812  0.1953  0.2523
18624TIP3    H177287   4.162   0.657   4.436 -0.9813  1.4167  2.3465
18624TIP3    H277288   4.090   0.789   4.416 -1.6399  0.6020 -1.0854
18625TIP3   OH277289   1.568   3.856   4.988 -0.0464  0.2890  0.1432
18625TIP3    H177290   1.619   3.776   4.974 -0.4423  0.1327 -0.4360
18625TIP3    H277291   1.619   3.907   5.050 -0.0960 -0.7006  1.0119
18626TIP3   OH277292   2.722   3.810   2.949 -0.0058  0.3045 -0.2992
18626TIP3    H177293   2.785   3.805   2.877  0.3837 -2.5108  0.1737
18626TIP3    H277294   2.679   3.724   2.949  0.8198 -0.2128  3.5081
18627TIP3   OH277295   0.946   0.965   3.193 -0.2174 -0.4521  0.3591
18627TIP3    H177296   0.948   0.947   3.287 -1.4755  0.0470  0.4941
18627TIP3    H277297   0.990   0.891   3.154  1.4224 -0.0663  1.4326
18628TIP3   OH277298   0.285   4.152   5.688 -0.5305  0.1957 -0.0579
18628TIP3    H177299   0.310   4.243   5.673  0.8348 -0.0502  0.6573
18628TIP3    H277300   0.243   4.152   5.774 -0.9115  0.2320 -0.2469
18629TIP3   OH277301   2.566   1.131   2.016 -0.2304 -0.5536  0.5470
18629TIP3    H177302   2.624   1.062   1.983 -0.6657 -1.1904  1.0775
18629TIP3    H277303   2.483   1.086   2.033  0.0519 -0.3301  2.7278
18630TIP3   OH277304   5.341   3.392   3.705 -0.2262 -0.6731  0.6037
18630TIP3    H177305   5.353   3.348   3.789 -2.1847 -0.9281  0.7894
18630TIP3    H277306   5.388   3.474   3.714 -0.7382 -0.5192  2.1099
18631TIP3   OH277307   2.500   5.682   4.774  0.2933 -0.5407  0.2460
18631TIP3    H177308   2.420   5.631   4.760  0.4652 -0.6041 -0.5192
18631TIP3    H277309   2.501   5.700   4.868 -0.2048 -1.2321  0.3873
18632TIP3   OH277310   3.153   0.065   4.805 -0.5156 -0.3147 -0.2871
18632TIP3    H177311   3.066   0.033   4.780 -0.9744 -0.2672  1.1635
18632TIP3    H277312   3.211  -0.010   4.790 -1.0205 -0.7554 -0.0877
18633TIP3   OH277313   3.376   3.429   5.326 -0.4261  0.3221  0.0137
18633TIP3    H177314   3.293   3.433   5.374 -0.6085  0.2530 -0.2982
18633TIP3    H277315   3.443   3.430   5.395 -0.7327 -1.8951  0.3679
18634TIP3   OH277316   0.582   2.194   3.847 -0.0383  0.3727  0.2906
18634TIP3    H177317   0.503   2.162   3.803  0.1717 -0.8724  0.7989
18634TIP3    H277318   0.635   2.116   3.863  0.7006  1.0259  1.1604
18635TIP3   OH277319   1.595   2.073   2.403 -0.1249 -0.2447 -0.0385
18635TIP3    H177320   1.552   2.156   2.421  0.4940 -0.1715  1.2143
18635TIP3    H277321   1.600   2.067   2.308  0.2827  1.3872 -0.1251
18636TIP3   OH277322   2.063   0.023   4.745  0.6064 -0.3087  0.5326
18636TIP3    H177323   1.976  -0.014   4.731 -0.2015  1.3470  1.0476
18636TIP3    H277324   2.059   0.110   4.707  1.5026  0.4251  2.0342
18637TIP3   OH277325   0.928   3.071   3.764 -0.0939  0.0603 -0.1036
18637TIP3    H177326   0.915   3.100   3.673 -0.8471  0.2269  0.0516
18637TIP3    H277327   0.932   3.153   3.814 -3.5815 -0.0800  0.5205
18638TIP3   OH277328   4.868   1.004   2.790  0.0784 -0.5863 -0.8787
18638TIP3    H177329   4.875   0.952   2.870 -0.0439  0.3106 -0.2783
18638TIP3    H277330   4.891   0.943   2.720 -1.5343 -1.8707 -0.3336
18639TIP3   OH277331   0.262   4.130   5.957  1.2660 -0.3730 -0.3284
18639TIP3    H177332   0.338   4.074   5.969  1.7694  0.6108  1.1577
18639TIP3    H277333   0.271   4.199   6.023 -1.0813 -0.4410  0.1344
18640TIP3   OH277334   2.068   0.686   4.910 -0.0447 -0.1767  0.7253
18640TIP3    H177335   1.990   0.695   4.963  0.0374 -0.7052  0.9357
18640TIP3    H277336   2.066   0.596   4.878 -0.8090  0.5116 -1.2923
18641TIP3   OH277337   5.137   6.857   4.534 -0.0440 -0.1695  0.2860
18641TIP3    H177338   5.119   6.765   4.518  0.4835 -1.1264  4.6210
18641TIP3    H277339   5.231   6.860   4.551  0.2390  1.4579 -1.4431
18642TIP3   OH277340   2.693   4.335   5.398 -0.0280  0.3740 -0.3697
18642TIP3    H177341   2.715   4.243   5.387  3.6117  1.2357 -0.9785
18642TIP3    H277342   2.646   4.359   5.318 -2.1303 -1.2065  0.3418
18643TIP3   OH277343   0.705   4.819   4.932 -0.0619 -0.4027  0.1756
18643TIP3    H177344   0.706   4.910   4.904 -0.2659 -1.2488 -2.8143
18643TIP3    H277345   0.798   4.796   4.939  0.0663 -0.7682 -2.1071
18644TIP3   OH277346   4.029   3.761   4.337  0.0629  0.3146 -0.0752
18644TIP3    H177347   4.038   3.765   4.241 -0.0884  0.3072 -0.0896
18644TIP3    H277348   4.083   3.832   4.369 -1.4041  1.5462 -0.2573
18645TIP3   OH277349   1.116   4.842   5.234  0.1852  0.0781 -0.1288
18645TIP3    H177350   1.153   4.753   5.235  0.8672  0.3634  0.9715
18645TIP3    H277351   1.148   4.882   5.315 -0.1646  1.3172 -0.5971
18646TIP3   OH277352   3.173   3.723   4.317 -0.5427 -0.8455  0.3018
18646TIP3    H177353   3.242   3.757   4.261 -0.6251  0.7054  1.1066
18646TIP3    H277354   3.098   3.712   4.258 -0.0600 -1.0661 -0.2720
18647TIP3   OH277355   0.950   1.802   3.889  0.3644  0.4941  0.0943
18647TIP3    H177356   0.987   1.839   3.970  1.8860  1.2770 -0.9301
18647TIP3    H277357   1.026   1.771   3.840 -0.5517  0.0360 -1.0536
18648TIP3   OH277358   5.006   5.111   1.941 -0.2645 -0.0720 -0.1951
18648TIP3    H177359   4.968   5.059   1.870 -0.1907 -0.2226 -0.1220
18648TIP3    H277360   5.084   5.151   1.902 -0.5546  0.3219 -0.3765
18649TIP3   OH277361   6.652   1.771   2.309  0.1444 -0.1985  0.3846
18649TIP3    H177362   6.667   1.860   2.340  0.3508  0.1484 -0.6771
18649TIP3    H277363   6.717   1.757   2.240  2.3490 -2.3930  2.7867
18650TIP3   OH277364   6.180   4.262   3.969 -0.0333 -0.1352  0.0104
18650TIP3    H177365   6.140   4.305   3.893  0.6972  0.2473 -0.1637
18650TIP3    H277366   6.252   4.210   3.932  2.4475  2.6316  0.7396
18651TIP3   OH277367   3.697   1.438   3.096  0.3501 -0.2143 -0.3414
18651TIP3    H177368   3.683   1.347   3.069 -0.4957 -0.5048  1.0155
18651TIP3    H277369   3.649   1.490   3.031  1.9418 -0.6444 -1.9030
18652TIP3   OH277370   3.942   6.693   4.921  0.2523 -0.0865 -0.2204
18652TIP3    H177371   3.902   6.778   4.937 -0.7705  0.0276 -3.0206
18652TIP3    H277372   3.886   6.630   4.965  1.6699  0.7096  2.8973
18653TIP3   OH277373   3.675   1.928   5.328  0.6685  0.0120 -0.5222
18653TIP3    H177374   3.706   2.008   5.286  0.6131  0.3979  0.1574
18653TIP3    H277375   3.579   1.937   5.329  0.7282  0.5387  0.7218
18654TIP3   OH277376   1.922   1.106   2.987  0.8404 -0.1131  0.1705
18654TIP3    H177377   1.859   1.119   2.916 -0.4727  0.5047  1.4099
18654TIP3    H277378   1.939   1.012   2.988  0.6470 -0.1604 -0.7785
18655TIP3   OH277379   5.965   5.692   3.158 -0.1978  0.1113  0.3482
18655TIP3    H177380   6.046   5.641   3.155 -0.2064  0.1924 -1.6587
18655TIP3    H277381   5.906   5.639   3.212  0.9442 -0.2803  1.2458
18656TIP3   OH277382   5.996   6.157   1.686 -0.5660  0.0111 -0.0408
18656TIP3    H177383   5.952   6.103   1.752 -1.3630  0.4515 -0.2039
18656TIP3    H277384   5.974   6.115   1.603  0.6787 -0.7133 -0.0213
18657TIP3   OH277385   2.267   2.125   4.549 -0.4418  0.3028 -0.5647
18657TIP3    H177386   2.196   2.147   4.609  0.4624  1.7908 -0.0177
18657TIP3    H277387   2.330   2.078   4.603  0.7469  2.3455 -0.1083
18658TIP3   OH277388   0.250   1.795   0.313  0.1774 -0.4731  0.4143
18658TIP3    H177389   0.194   1.748   0.375 -0.5912  1.7264  1.4833
18658TIP3    H277390   0.278   1.729   0.250 -0.3642 -2.4443  2.1745
18659TIP3   OH277391   5.935   3.593   1.805  0.5470 -0.3636 -0.1622
18659TIP3    H177392   5.960   3.678   1.769  2.8513 -0.4054  1.1947
18659TIP3    H277393   5.948   3.603   1.900 -4.0406 -0.6633  0.6207
18660TIP3   OH277394   3.535   2.275   4.226  0.3123 -0.1831  0.0788
18660TIP3    H177395   3.468   2.269   4.294 -0.1251  0.3408 -0.3009
18660TIP3    H277396   3.535   2.368   4.201  0.8914 -0.2613 -0.2127
18661TIP3   OH277397   5.422   3.793   4.676  0.0135 -0.5877  0.0349
18661TIP3    H177398   5.415   3.837   4.761 -0.5663  1.2310 -0.9283
18661TIP3    H277399   5.369   3.714   4.686  0.0668 -0.4647  1.4143
18662TIP3   OH277400   6.386   1.199   2.756 -0.0886 -1.0656 -0.3439
18662TIP3    H177401   6.454   1.140   2.789  1.5022  0.4591 -0.7720
18662TIP3    H277402   6.406   1.208   2.663  1.4973  2.3722  0.2383
18663TIP3   OH277403   0.548   2.225   3.511 -1.0223 -0.5917 -0.3538
18663TIP3    H177404   0.510   2.304   3.472  0.2825 -1.4865 -3.6443
18663TIP3    H277405   0.630   2.254   3.551  0.2770 -0.4817 -2.9919
18664TIP3   OH277406   2.038   3.048   0.080 -0.2975  0.5529  0.6224
18664TIP3    H177407   2.065   2.979   0.019 -2.1351 -0.1000  0.4914
18664TIP3    H277408   2.119   3.092   0.105  0.6252 -0.0371 -1.2511
18665TIP3   OH277409   0.479   0.837   1.517  0.2646  0.0575  0.0311
18665TIP3    H177410   0.569   0.805   1.508  1.0649  2.2392  0.0730
18665TIP3    H277411   0.448   0.798   1.599  1.7671  0.6704  0.9003
18666TIP3   OH277412   6.223   1.328   3.726  0.2651  0.1055  0.0391
18666TIP3    H177413   6.288   1.393   3.700 -0.6772  1.4909  1.0395
18666TIP3    H277414   6.255   1.296   3.811 -0.9639  1.6690  1.1074
18667TIP3   OH277415   5.761   5.025   4.297  0.5967 -0.0480  0.4619
18667TIP3    H177416   5.730   4.972   4.224 -0.0965  1.4180 -0.3527
18667TIP3    H277417   5.750   4.970   4.374  2.8196 -2.1979 -0.7064
18668TIP3   OH277418   2.075   3.651   5.485 -0.2471 -0.4170 -0.5031
18668TIP3    H177419   2.066   3.618   5.396 -3.0095  2.5416 -1.3811
18668TIP3    H277420   2.033   3.584   5.540 -2.5548 -0.1701 -1.9032
18669TIP3   OH277421   2.981   2.886   4.324  0.0136  0.0703  0.2715
18669TIP3    H177422   2.890   2.908   4.347  0.2626  1.4324  0.0352
18669TIP3    H277423   3.034   2.930   4.391  0.5461  0.4136 -0.3696
18670TIP3   OH277424   6.707   6.242   4.896 -0.4663  0.4194 -0.0448
18670TIP3    H177425   6.788   6.291   4.881 -0.3513  0.1335 -0.3447
18670TIP3    H277426   6.638   6.309   4.889 -0.2650  0.6469  0.1347
18671TIP3   OH277427   1.017   0.831   3.918  0.4791  0.1978  0.1919
18671TIP3    H177428   0.993   0.920   3.943 -0.9223 -0.0362 -0.2697
18671TIP3    H277429   0.973   0.775   3.982  1.0159 -0.1850  0.2335
18672TIP3   OH277430   0.539   1.585   4.363 -0.1619  0.0079 -0.2488
18672TIP3    H177431   0.473   1.613   4.426  0.6089 -0.1077  0.6288
18672TIP3    H277432   0.622   1.596   4.409  0.4611  0.4861 -1.4589
18673TIP3   OH277433   5.433   5.178   1.597 -0.4371 -0.0817 -0.1947
18673TIP3    H177434   5.423   5.224   1.514 -0.4887 -0.1407 -0.2208
18673TIP3    H277435   5.442   5.086   1.573  1.7020  0.1271 -0.2775
18674TIP3   OH277436   5.787   3.594   4.866 -0.6414 -0.9719 -0.2555
18674TIP3    H177437   5.770   3.655   4.938 -0.6304 -1.2365 -0.0248
18674TIP3    H277438   5.731   3.625   4.795  0.5385  0.2394 -0.6714
18675TIP3   OH277439   6.453   6.604   3.544  0.4173  0.5520  0.5820
18675TIP3    H177440   6.504   6.524   3.556  0.7806  0.9368  1.6424
18675TIP3    H277441   6.440   6.610   3.449  2.0272  0.2551  0.3250
18676TIP3   OH277442   4.544   3.193   2.382 -0.4830 -0.0944 -0.3935
18676TIP3    H177443   4.597   3.207   2.460 -1.3938  0.7427  0.0930
18676TIP3    H277444   4.517   3.102   2.387  0.8142 -0.4917 -0.5907
18677TIP3   OH277445   6.947   0.219   5.468  0.0838 -0.3966  0.4003
18677TIP3    H177446   7.020   0.280   5.458  0.4297 -1.2479 -2.5801
18677TIP3    H277447   6.881   0.248   5.405 -0.1084 -2.5543 -0.4508
18678TIP3   OH277448   4.044   4.413   4.388 -0.2914  0.0680 -0.0769
18678TIP3    H177449   4.002   4.408   4.302  1.1266  1.4907 -0.8857
18678TIP3    H277450   4.130   4.372   4.375 -0.4946 -0.7160  0.9568
18679TIP3   OH277451   4.657   3.017   3.291  0.1776 -0.2075 -0.2393
18679TIP3    H177452   4.711   3.071   3.349  0.9086 -0.5707 -0.5744
18679TIP3    H277453   4.701   2.931   3.290 -1.1874 -0.9343  0.5974
18680TIP3   OH277454   0.551   2.194   0.607  0.3762 -0.5170  0.5648
18680TIP3    H177455   0.563   2.288   0.618  1.0448 -0.2349 -2.3586
18680TIP3    H277456   0.457   2.182   0.603  0.2421 -0.1471  2.1216
18681TIP3   OH277457   4.866   1.959   1.159 -0.2261  0.8160  0.4684
18681TIP3    H177458   4.845   1.876   1.203  1.1740  0.1520 -0.0720
18681TIP3    H277459   4.808   2.023   1.199 -1.7431 -0.5349  0.5022
18682TIP3   OH277460   4.723   7.138   4.027  0.5120  0.7806 -0.2666
18682TIP3    H177461   4.631   7.134   4.002 -0.0810  0.7438  1.8938
18682TIP3    H277462   4.769   7.098   3.953 -1.1366  1.3338 -1.6248
18683TIP3   OH277463   2.900   4.488  15.543  0.1564  0.2863 -0.8743
18683TIP3    H177464   2.895   4.442  15.627  0.9507  0.6156 -0.6418
18683TIP3    H277465   2.815   4.472  15.502 -0.3705  0.4284  0.1480
18684TIP3   OH277466   1.679   2.511   2.908 -0.0609  0.0105  0.2323
18684TIP3    H177467   1.766   2.481   2.934 -1.0265 -1.4369  1.9128
18684TIP3    H277468   1.661   2.465   2.826  1.5731  1.9032 -1.2298
18685TIP3   OH277469   4.841   5.777   5.192  0.2860 -0.2880  0.0648
18685TIP3    H177470   4.831   5.867   5.224 -0.8946 -0.2516 -0.4168
18685TIP3    H277471   4.936   5.761   5.196  0.8477  2.0340 -2.7392
18686TIP3   OH277472   6.306   4.992   4.656  0.2145 -0.5176 -0.3716
18686TIP3    H177473   6.248   4.918   4.642 -0.8026  0.1317  0.3489
18686TIP3    H277474   6.387   4.954   4.690 -0.0796 -1.3540 -0.6160
18687TIP3   OH277475   0.566   6.067   3.549  0.5663 -0.2174 -0.7976
18687TIP3    H177476   0.583   6.076   3.456 -0.1008 -0.1649 -0.9148
18687TIP3    H277477   0.633   6.005   3.580  2.6612  1.9899 -0.7363
18688TIP3   OH277478   5.571   2.828   4.902  0.2412 -0.2240 -0.0961
18688TIP3    H177479   5.573   2.750   4.847 -0.8582  1.1986 -2.2206
18688TIP3    H277480   5.613   2.801   4.984  1.6306 -2.4650 -1.5139
18689TIP3   OH277481   6.628   5.171   4.747  0.3156 -0.6002  0.1946
18689TIP3    H177482   6.668   5.222   4.676  0.0466  1.5609  1.5659
18689TIP3    H277483   6.534   5.185   4.736  0.2611 -0.4838  0.7942
18690TIP3   OH277484   6.659   5.568   3.065  0.1300 -0.0359  0.6823
18690TIP3    H177485   6.744   5.549   3.107  0.3678 -1.3103 -0.3314
18690TIP3    H277486   6.669   5.534   2.976 -1.3777  0.0002  0.4972
18691TIP3   OH277487   5.360   3.715   4.964 -0.5542  0.1213  0.0781
18691TIP3    H177488   5.288   3.767   4.999 -0.2638  1.8820 -1.8592
18691TIP3    H277489   5.317   3.642   4.919 -1.1461  1.0378 -0.8715
18692TIP3   OH277490   3.251   2.584   3.497 -0.7346 -0.0675 -0.5420
18692TIP3    H177491   3.170   2.534   3.487 -1.6347  1.3465 -0.5161
18692TIP3    H277492   3.321   2.518   3.499 -1.9203 -1.3276 -0.1296
18693TIP3   OH277493   4.598   3.938   0.181 -0.7718  0.3401 -0.2511
18693TIP3    H177494   4.642   3.892   0.110 -0.7585  1.2238 -0.8319
18693TIP3    H277495   4.512   3.959   0.145 -0.2878  1.9606 -0.4922
18694TIP3   OH277496   4.358   5.214   5.200 -0.4882  0.6935 -0.4025
18694TIP3    H177497   4.282   5.267   5.221 -1.6437 -0.4702 -1.5610
18694TIP3    H277498   4.324   5.126   5.188  1.0021  0.1944 -1.1621
18695TIP3   OH277499   2.011   0.483   5.171  0.0823 -0.2819  0.5259
18695TIP3    H177500   1.934   0.463   5.224 -0.3303  0.0855  0.0698
18695TIP3    H277501   2.016   0.412   5.108 -0.2713  0.0438  0.1299
18696TIP3   OH277502   4.709   4.314   5.788 -0.1693  0.1910  0.2860
18696TIP3    H177503   4.639   4.313   5.853 -0.4359 -2.2187 -0.0217
18696TIP3    H277504   4.700   4.231   5.741  0.7352  1.3751 -2.0609
18697TIP3   OH277505   3.085   0.366   4.467 -0.0724  0.1933 -0.0774
18697TIP3    H177506   3.168   0.368   4.419  0.9287  0.3576  1.6545
18697TIP3    H277507   3.110   0.365   4.559 -2.0068  0.8673  0.4750
18698TIP3   OH277508   4.917   5.876   2.377 -0.1573  0.3773  0.2204
18698TIP3    H177509   4.994   5.819   2.368 -1.5388 -1.0970 -3.0083
18698TIP3    H277510   4.952   5.964   2.366  1.2807 -0.1590  0.2953
18699TIP3   OH277511   0.060   3.390   1.368  0.0294 -0.2524 -0.7200
18699TIP3    H177512   0.097   3.303   1.350 -3.5437 -2.1022  0.3688
18699TIP3    H277513   0.037   3.387   1.461 -0.6720  1.6796 -0.8060
18700TIP3   OH277514   3.305   3.988   5.238 -0.1765  0.6972  1.0928
18700TIP3    H177515   3.265   3.927   5.299 -0.0020 -0.8227 -0.2842
18700TIP3    H277516   3.393   3.953   5.222 -0.5527  0.5437 -0.7475
18701TIP3   OH277517   4.786   6.984   4.288 -0.8005 -0.3784  0.5418
18701TIP3    H177518   4.796   7.050   4.219 -1.9138 -1.1238 -0.3660
18701TIP3    H277519   4.831   7.021   4.364 -0.2382  0.8129 -0.3510
18702TIP3   OH277520   4.860   4.521  15.456 -0.7196 -0.0045 -0.3175
18702TIP3    H177521   4.873   4.535  15.550  0.0099 -2.6768  0.0229
18702TIP3    H277522   4.928   4.458  15.432 -1.3581  0.0996 -2.4891
18703TIP3   OH277523   4.954   4.049   4.985  0.3328  0.2196  0.3838
18703TIP3    H177524   5.007   4.108   4.931  0.1279 -1.0095 -1.1818
18703TIP3    H277525   5.009   3.971   4.995  0.0294  0.1206  1.2725
18704TIP3   OH277526   1.195   0.878   4.552  0.0890 -0.1309 -0.4014
18704TIP3    H177527   1.208   0.973   4.549 -0.6777  0.0159  0.6576
18704TIP3    H277528   1.192   0.858   4.646 -0.7293 -1.0658 -0.6300
18705TIP3   OH277529   3.766   4.598   3.679 -1.0652 -0.0698  0.1561
18705TIP3    H177530   3.717   4.525   3.718 -1.2466  0.0754  0.1987
18705TIP3    H277531   3.857   4.568   3.679 -1.2262 -0.5955 -0.4932
18706TIP3   OH277532   3.917   3.925   3.517  0.4985 -0.4046 -0.4477
18706TIP3    H177533   3.937   3.900   3.607  0.1515 -1.5202 -0.6656
18706TIP3    H277534   3.827   3.895   3.504  0.5353 -0.2092 -1.1500
18707TIP3   OH277535   4.574   5.450   0.932 -0.0603 -0.2198  0.3357
18707TIP3    H177536   4.613   5.418   1.013 -3.2352 -1.1189  1.5783
18707TIP3    H277537   4.550   5.541   0.951  0.9082  0.1626 -0.2439
18708TIP3   OH277538   3.405   4.459   2.609 -0.3058 -0.3745 -0.2711
18708TIP3    H177539   3.491   4.431   2.580 -1.5042 -2.1700 -2.2115
18708TIP3    H277540   3.393   4.415   2.694  1.0214  0.5758  0.4148
18709TIP3   OH277541   5.277   4.157   4.650 -0.5502 -0.1999 -0.3865
18709TIP3    H177542   5.313   4.088   4.706  0.7569 -0.0759 -1.0678
18709TIP3    H277543   5.265   4.114   4.565 -0.5747  0.1689 -0.5687
18710TIP3   OH277544   4.537   3.989   4.433  0.1704 -0.0745 -0.1132
18710TIP3    H177545   4.605   4.052   4.409  0.9503 -0.5120  0.9452
18710TIP3    H277546   4.567   3.950   4.515 -1.2688 -0.4071  0.2719
18711TIP3   OH277547   7.102   4.926   2.291  0.8871 -0.6814 -0.0936
18711TIP3    H177548   7.008   4.911   2.296  0.9816 -0.8372  1.3547
18711TIP3    H277549   7.137   4.846   2.253  0.5062 -0.8735 -0.0435
18712TIP3   OH277550   3.117   4.043   1.347  0.2345  0.4095  0.3272
18712TIP3    H177551   3.126   4.040   1.251  0.2603 -1.6830  0.3744
18712TIP3    H277552   3.027   4.015   1.363  0.7014 -0.7063  0.9926
18713TIP3   OH277553   3.705   4.902   5.594 -0.0004 -0.1933  0.2061
18713TIP3    H177554   3.733   4.879   5.682 -1.4107 -1.1027  0.4266
18713TIP3    H277555   3.708   4.820   5.545  2.0443  0.5294 -0.9623
18714TIP3   OH277556   4.744   4.154   4.374  0.2918 -0.1965  0.3349
18714TIP3    H177557   4.765   4.246   4.386  2.0197 -0.6228  0.6619
18714TIP3    H277558   4.799   4.107   4.437 -0.0398 -1.5054 -0.3188
18715TIP3   OH277559   5.149   4.861   6.120 -0.0868  0.2706  0.3567
18715TIP3    H177560   5.145   4.895   6.031  2.1649  2.2198  0.9507
18715TIP3    H277561   5.074   4.902   6.165 -1.1508 -0.6164 -0.5718
18716TIP3   OH277562   6.829   5.964   4.502  0.7697  0.0683  0.2030
18716TIP3    H177563   6.846   5.971   4.596  2.6420  1.4378 -0.2024
18716TIP3    H277564   6.756   6.023   4.486  0.5711 -0.0229  0.7603
18717TIP3   OH277565   4.117   6.151   3.218 -0.0681  0.5441 -0.6329
18717TIP3    H177566   4.100   6.071   3.169  0.7604  0.4683 -0.8085
18717TIP3    H277567   4.094   6.129   3.309 -1.1888  0.5530 -0.9164
18718TIP3   OH277568   1.930   1.231   5.400  0.3082 -0.0181 -0.0206
18718TIP3    H177569   2.010   1.267   5.437  2.7174 -2.4417 -2.5808
18718TIP3    H277570   1.915   1.283   5.321  0.3811 -0.6854 -0.4795
18719TIP3   OH277571   1.671   6.689   3.873  0.0672  0.5105 -0.1733
18719TIP3    H177572   1.707   6.777   3.868  0.3315  0.3729 -0.7604
18719TIP3    H277573   1.650   6.667   3.782 -1.1136  0.4299  0.1179
18720TIP3   OH277574   5.529   3.416   3.222  0.4223 -0.3906 -0.5258
18720TIP3    H177575   5.452   3.473   3.226  0.7160  0.0360 -0.9825
18720TIP3    H277576   5.573   3.430   3.305  0.3739 -0.1207 -0.5454
18721TIP3   OH277577   4.323   3.349   5.426 -0.4465 -0.1086  1.2151
18721TIP3    H177578   4.238   3.308   5.406  0.6013 -2.1868  0.8192
18721TIP3    H277579   4.301   3.438   5.454 -2.6832 -0.2553  0.0832
18722TIP3   OH277580   6.506   3.169   4.815 -0.3570  0.4580 -0.1250
18722TIP3    H177581   6.470   3.100   4.759  0.6338 -1.3571  1.4289
18722TIP3    H277582   6.526   3.240   4.755 -1.3921 -0.5935 -1.7680
18723TIP3   OH277583   0.415   1.753   4.154  0.6450 -0.1818  0.0284
18723TIP3    H177584   0.415   1.674   4.207 -0.4957 -0.0572  0.2299
18723TIP3    H277585   0.508   1.774   4.142  1.0292 -2.6664 -1.7388
18724TIP3   OH277586   4.236   1.195   2.874 -0.1039 -0.3792  0.2224
18724TIP3    H177587   4.160   1.253   2.866 -1.2467 -1.8815 -0.0906
18724TIP3    H277588   4.232   1.161   2.963  0.8186  0.3538  0.5507
18725TIP3   OH277589   3.243   3.648   4.747 -0.0217 -0.4943  0.2655
18725TIP3    H177590   3.196   3.707   4.689  0.9715  1.2845  1.2309
18725TIP3    H277591   3.299   3.596   4.689  0.3338  0.6820 -0.4429
18726TIP3   OH277592   5.796   0.217   2.321 -0.0482 -0.5792  0.0978
18726TIP3    H177593   5.776   0.211   2.415  2.6138  1.2891  0.8451
18726TIP3    H277594   5.771   0.306   2.297 -0.3789 -0.9390 -0.9123
18727TIP3   OH277595   2.321   2.393   3.124  0.7281 -0.0157  1.0238
18727TIP3    H177596   2.265   2.349   3.060 -0.2884  0.0107  1.8943
18727TIP3    H277597   2.310   2.486   3.104  0.1784  0.0076  1.4256
18728TIP3   OH277598   3.027   6.766   5.837  0.2163  0.1174  0.5419
18728TIP3    H177599   3.062   6.718   5.762  1.3471  1.2127  0.3530
18728TIP3    H277600   2.935   6.743   5.839  0.3583 -0.6035 -0.6738
18729TIP3   OH277601   5.759   6.042   4.554 -0.3801 -0.0990 -0.5510
18729TIP3    H177602   5.740   6.018   4.644 -2.1056  0.2022 -0.8153
18729TIP3    H277603   5.806   6.125   4.560  0.4930 -0.6344  0.1061
18730TIP3   OH277604   5.248   2.255   4.637 -0.1955 -0.0307  0.2499
18730TIP3    H177605   5.182   2.207   4.688  0.3967  0.6878  1.7393
18730TIP3    H277606   5.332   2.222   4.670  0.2108 -1.3331 -2.0074
18731TIP3   OH277607   3.239   4.405   4.437  0.2914  0.1663 -0.3550
18731TIP3    H177608   3.177   4.333   4.446 -0.7297  1.1826  0.8298
18731TIP3    H277609   3.307   4.386   4.502 -1.0895  1.3775  1.4844
18732TIP3   OH277610   6.119   4.250   1.732  0.3041 -0.3157 -0.1314
18732TIP3    H177611   6.106   4.225   1.640  0.9430 -0.7539 -0.1048
18732TIP3    H277612   6.120   4.167   1.779  2.6047 -0.2965 -0.0647
18733TIP3   OH277613   4.685   1.722   3.475  0.2318 -0.6185  0.3328
18733TIP3    H177614   4.698   1.682   3.561  4.0328  1.6005  0.9052
18733TIP3    H277615   4.728   1.662   3.415  0.0493 -0.7657  0.3501
18734TIP3   OH277616   2.330   0.394   5.829  0.0723  0.1578  0.0312
18734TIP3    H177617   2.331   0.481   5.790  1.8349 -0.2809 -0.9802
18734TIP3    H277618   2.409   0.352   5.795 -1.4339 -2.3040 -0.5530
18735TIP3   OH277619   3.130   1.382   2.890  0.2378  0.0478 -0.3828
18735TIP3    H177620   3.168   1.298   2.862 -2.3370 -0.7317 -1.7079
18735TIP3    H277621   3.089   1.417   2.811  0.9696  2.3977  0.2585
18736TIP3   OH277622   5.705   3.740   4.374 -0.1599  0.0839 -0.0954
18736TIP3    H177623   5.676   3.829   4.352  0.5837  0.6707  1.2415
18736TIP3    H277624   5.695   3.734   4.469 -0.7746 -1.4849 -0.2378
18737TIP3   OH277625   1.226   3.781   3.222 -0.1376  0.0378 -0.5897
18737TIP3    H177626   1.308   3.830   3.224  0.1859 -0.5103 -0.5786
18737TIP3    H277627   1.250   3.692   3.249 -0.9534  0.2199  0.8128
18738TIP3   OH277628   6.789   5.479   3.919  0.1449  0.9004  0.4631
18738TIP3    H177629   6.868   5.523   3.889 -0.4867  1.7174 -0.0406
18738TIP3    H277630   6.721   5.508   3.858 -0.4376 -0.1681  0.6023
18739TIP3   OH277631   3.352   5.783   4.351 -0.1019  0.3937 -0.0735
18739TIP3    H177632   3.290   5.710   4.348  2.2810 -1.7749  1.2703
18739TIP3    H277633   3.396   5.781   4.266  1.2063 -0.9367  0.5990
18740TIP3   OH277634   4.231   1.570   4.271 -0.0554  0.1942  0.2808
18740TIP3    H177635   4.190   1.577   4.185  0.7178 -1.4799 -0.2379
18740TIP3    H277636   4.287   1.648   4.277 -0.5805  0.6375 -0.4569
18741TIP3   OH277637   0.183   2.740   5.224 -0.0834  0.4562 -0.3864
18741TIP3    H177638   0.228   2.772   5.146 -0.2301  0.5730 -0.4215
18741TIP3    H277639   0.238   2.667   5.254 -0.2392  0.1593 -0.8216
18742TIP3   OH277640   5.969   4.531   2.722  0.1917  0.2785 -0.2447
18742TIP3    H177641   5.990   4.570   2.807 -0.7322  0.5677 -0.1473
18742TIP3    H277642   5.990   4.438   2.733 -1.4940  0.0037  0.8409
18743TIP3   OH277643   0.451   5.129   4.876 -0.0268  0.0054  0.5425
18743TIP3    H177644   0.448   5.196   4.944 -0.3363 -0.3330  0.8633
18743TIP3    H277645   0.544   5.107   4.868  0.1069  0.6782  0.2328
18744TIP3   OH277646   2.101   2.444   5.863  0.2785 -0.0912 -0.2381
18744TIP3    H177647   2.109   2.501   5.787 -1.3705 -0.2316 -0.5376
18744TIP3    H277648   2.109   2.356   5.829  1.2082 -0.1028 -0.0028
18745TIP3   OH277649   3.652   3.852   3.432 -0.0957  0.0781  0.2166
18745TIP3    H177650   3.686   3.764   3.421  0.1445  0.4321 -2.1515
18745TIP3    H277651   3.566   3.840   3.472  1.1801 -1.0225  2.7483
18746TIP3   OH277652   2.182   6.499   3.771 -0.5724  0.3339 -0.5117
18746TIP3    H177653   2.136   6.467   3.693 -1.4754 -0.6121  0.3941
18746TIP3    H277654   2.113   6.537   3.825 -0.2117 -0.5175  0.5685
18747TIP3   OH277655   0.219   2.792   1.856 -0.7896  0.4442 -0.3004
18747TIP3    H177656   0.232   2.724   1.791 -0.3850  1.2706 -1.1010
18747TIP3    H277657   0.258   2.757   1.936 -1.0656 -0.4737 -0.5739
18748TIP3   OH277658   5.126   5.378   5.068  0.1157 -0.0999 -0.0254
18748TIP3    H177659   5.144   5.284   5.075  0.7180 -0.0617 -1.0388
18748TIP3    H277660   5.197   5.413   5.015 -0.1045  0.9396  0.3495
18749TIP3   OH277661   5.610   6.901   4.532  0.3070  0.1782 -0.0310
18749TIP3    H177662   5.533   6.906   4.475 -0.5201 -0.3075  1.0279
18749TIP3    H277663   5.584   6.842   4.603  1.1693  1.1264  1.0920
18750TIP3   OH277664   3.938   4.045   4.524 -0.4451 -0.4360 -0.2507
18750TIP3    H177665   3.995   4.107   4.478 -1.0487 -0.0460 -0.4810
18750TIP3    H277666   3.852   4.088   4.524 -0.5123 -0.5657  0.9828
18751TIP3   OH277667   3.841   0.139   1.933  0.2668 -0.3113  0.3107
18751TIP3    H177668   3.923   0.090   1.945  0.0386 -0.4591  1.2942
18751TIP3    H277669   3.864   0.210   1.873  0.6177 -1.5851 -1.1039
18752TIP3   OH277670   7.040   4.176   0.509 -0.0270  0.1798  0.4426
18752TIP3    H177671   7.125   4.184   0.552 -0.5623  2.0217  1.2021
18752TIP3    H277672   7.031   4.083   0.491  3.7337  0.3341 -2.8644
18753TIP3   OH277673   4.815   5.216   5.158  0.1070 -0.3846 -0.5682
18753TIP3    H177674   4.835   5.309   5.164  2.4543 -0.8399 -0.7899
18753TIP3    H277675   4.766   5.196   5.237 -1.4669  1.2743 -1.0998
18754TIP3   OH277676   4.765   1.424   4.385  0.2147  0.0894  0.2154
18754TIP3    H177677   4.714   1.504   4.380  0.0603  0.2590  3.1284
18754TIP3    H277678   4.725   1.364   4.322 -2.8331  0.6316  1.5457
18755TIP3   OH277679   1.437   3.363   3.666 -0.7812 -0.3794  0.0147
18755TIP3    H177680   1.494   3.287   3.676 -0.4709 -0.2616 -0.8221
18755TIP3    H277681   1.492   3.430   3.628 -0.9922  0.3598  0.9797
18756TIP3   OH277682   4.831   5.924   1.658 -0.3442  0.9815 -0.1304
18756TIP3    H177683   4.922   5.894   1.659 -0.1314  1.6221  0.3737
18756TIP3    H277684   4.787   5.868   1.595  0.2712  0.2797  0.0637
18757TIP3   OH277685   4.812   3.434   5.850 -0.3878 -0.2059  0.6264
18757TIP3    H177686   4.817   3.522   5.886  0.5239 -0.6322  1.5584
18757TIP3    H277687   4.883   3.386   5.892 -0.9820 -1.4405  0.2585
18758TIP3   OH277688   4.482   0.879   4.515  0.2662 -0.3719  0.0583
18758TIP3    H177689   4.558   0.827   4.490  0.5789 -0.1967  0.6549
18758TIP3    H277690   4.444   0.831   4.589  0.8737  0.5420  0.9729
18759TIP3   OH277691   4.491   1.468   1.797  0.0071  0.3977 -0.3212
18759TIP3    H177692   4.564   1.530   1.792 -0.2526  0.7956  0.7363
18759TIP3    H277693   4.497   1.418   1.716  1.1805  0.7374 -0.4548
18760TIP3   OH277694   4.802   1.300   5.110 -0.1202 -0.2810 -0.0732
18760TIP3    H177695   4.778   1.213   5.141  1.0490 -1.5875 -2.6814
18760TIP3    H277696   4.743   1.316   5.036  1.1286  0.1972 -0.9927
18761TIP3   OH277697   3.003   4.574   4.391  0.2703  0.4316  0.5261
18761TIP3    H177698   3.094   4.546   4.380  0.0387  0.0912 -0.5942
18761TIP3    H277699   2.986   4.563   4.484  2.7605  4.7237  1.6798
18762TIP3   OH277700   5.738   5.306   3.332 -0.4317  0.2604 -0.5596
18762TIP3    H177701   5.656   5.307   3.283 -1.5701  0.9843  1.3279
18762TIP3    H277702   5.714   5.329   3.422  2.0134  1.8079 -0.2378
18763TIP3   OH277703   0.366   5.829   5.102 -0.6402  0.0742  0.3067
18763TIP3    H177704   0.441   5.888   5.106 -0.2984 -0.3883  0.8834
18763TIP3    H277705   0.319   5.844   5.184 -0.1924 -0.9137  0.7575
18764TIP3   OH277706   6.708   5.551   4.180 -0.4489 -0.3097  0.1356
18764TIP3    H177707   6.734   5.639   4.152  0.2409 -0.4841  0.2370
18764TIP3    H277708   6.715   5.497   4.101 -0.5896 -0.3422  0.1441
18765TIP3   OH277709   0.514   5.226   1.843 -0.2062  0.6812  0.1700
18765TIP3    H177710   0.576   5.165   1.803 -1.2318 -1.1563  1.3176
18765TIP3    H277711   0.480   5.277   1.770  2.7779  1.8936 -0.4675
18766TIP3   OH277712   4.290   4.284   4.441  0.3213  0.1432 -0.7059
18766TIP3    H177713   4.351   4.239   4.500  0.3499 -0.8241 -1.4555
18766TIP3    H277714   4.291   4.375   4.470  1.3375 -0.0691 -0.0509
18767TIP3   OH277715   5.228   4.701   3.738 -0.0780 -0.8082 -0.4731
18767TIP3    H177716   5.226   4.734   3.827  0.4106  3.2889 -1.9004
18767TIP3    H277717   5.149   4.646   3.731 -0.7134 -0.2634  2.1024
18768TIP3   OH277718   5.013   5.771   0.625  0.1228  0.1396 -0.2769
18768TIP3    H177719   4.986   5.819   0.703  2.5751 -1.2578  1.5138
18768TIP3    H277720   5.108   5.779   0.624  0.3358 -2.1127 -1.5895
18769TIP3   OH277721   4.257   4.551   2.416  0.0891 -0.1915  0.4055
18769TIP3    H177722   4.329   4.554   2.479  2.6560 -1.2328 -2.3134
18769TIP3    H277723   4.231   4.459   2.413  0.2344 -0.2144 -0.2935
18770TIP3   OH277724   2.047   4.056   3.624  0.1282 -0.1608  0.0995
18770TIP3    H177725   1.956   4.042   3.650 -0.0726  1.6115  0.4096
18770TIP3    H277726   2.076   4.130   3.678  1.4808 -0.1626 -0.6083
18771TIP3   OH277727   2.846   5.614   4.992 -0.0756  0.7984  0.1554
18771TIP3    H177728   2.840   5.552   5.064  0.1556  3.2113  2.3170
18771TIP3    H277729   2.778   5.586   4.930 -0.9072 -0.7539  1.7370
18772TIP3   OH277730   6.975   5.918   1.350  0.0535  0.3137 -0.4103
18772TIP3    H177731   6.896   5.870   1.375 -1.7705  2.0371 -2.6887
18772TIP3    H277732   6.972   5.997   1.404  0.1307  0.4627 -0.6264
18773TIP3   OH277733   0.269   3.879   5.146 -0.1470 -0.0055 -0.1434
18773TIP3    H177734   0.346   3.860   5.200 -1.2862 -1.1353  1.1045
18773TIP3    H277735   0.299   3.947   5.085  1.3048  0.9407  1.5857
18774TIP3   OH277736   6.999   1.264  15.211  0.0137 -0.3793 -0.0244
18774TIP3    H177737   7.048   1.331  15.165  2.8473 -1.2888  1.5167
18774TIP3    H277738   6.945   1.312  15.275 -0.4763  0.5762 -1.1411
18775TIP3   OH277739   4.425   7.018   1.171 -0.2142 -0.1837  0.1107
18775TIP3    H177740   4.455   7.048   1.085 -0.7730  0.1372  0.0209
18775TIP3    H277741   4.421   6.923   1.163  0.3825 -0.2051 -0.0026
18776TIP3   OH277742   4.285   4.618   0.351  0.5882 -0.5206  0.2484
18776TIP3    H177743   4.273   4.699   0.400 -0.4784 -1.9157  2.3477
18776TIP3    H277744   4.263   4.548   0.413 -1.0281 -2.3356 -2.2458
18777TIP3   OH277745   3.410   5.935   2.392  0.5444 -0.3216 -0.4274
18777TIP3    H177746   3.343   5.998   2.417 -0.5375 -2.0068  0.9635
18777TIP3    H277747   3.395   5.919   2.299 -0.6422 -0.2780 -0.2466
18778TIP3   OH277748   6.191   0.288   4.600 -0.4175 -0.0560  0.1356
18778TIP3    H177749   6.224   0.203   4.630 -0.3718 -0.6404 -1.5486
18778TIP3    H277750   6.109   0.268   4.556 -0.0096  0.6681 -0.9662
18779TIP3   OH277751   6.063   4.311   5.284 -0.0766 -0.5211  0.3269
18779TIP3    H177752   6.113   4.237   5.318  0.7099  0.1304  0.6027
18779TIP3    H277753   6.028   4.355   5.361  0.0530 -0.1970  0.2046
18780TIP3   OH277754   6.995   1.583   4.431 -0.3793 -0.2823  0.2712
18780TIP3    H177755   6.987   1.662   4.378 -1.9608  1.0025  2.3486
18780TIP3    H277756   7.087   1.559   4.424 -0.0004  1.4167 -0.8311
18781TIP3   OH277757   1.160   5.873  14.791  0.5243 -0.3359  0.0540
18781TIP3    H177758   1.173   5.945  14.730  0.9991  1.1112  1.8101
18781TIP3    H277759   1.236   5.877  14.850  0.0676 -1.6725  0.7607
18782TIP3   OH277760   5.415   4.481   3.390 -0.1747 -0.3438 -0.1322
18782TIP3    H177761   5.334   4.476   3.340 -0.5526 -0.2806  0.4740
18782TIP3    H277762   5.480   4.439   3.334 -0.2155  1.2981 -1.4335
18783TIP3   OH277763   3.511   6.076   5.476  0.1192 -0.5989  0.5900
18783TIP3    H177764   3.575   6.147   5.480 -0.3113  0.0031 -2.2215
18783TIP3    H277765   3.438   6.107   5.530  0.6583  0.3453  0.7866
18784TIP3   OH277766   0.130   0.472   3.055  0.2208 -0.3747  0.4945
18784TIP3    H177767   0.183   0.454   3.134 -0.6866  0.1950  1.2414
18784TIP3    H277768   0.049   0.510   3.089  0.5208  1.5129 -0.8223
18785TIP3   OH277769   4.479   4.285   5.952  0.0238 -0.7517 -0.6056
18785TIP3    H177770   4.472   4.374   5.987  0.4652 -0.6881 -0.6826
18785TIP3    H277771   4.391   4.248   5.964 -0.6199  0.2544 -2.1186
18786TIP3   OH277772   6.686   3.879   3.072  0.1391  0.1875 -0.6664
18786TIP3    H177773   6.627   3.810   3.043 -1.8241  1.2433  0.7308
18786TIP3    H277774   6.745   3.835   3.134 -0.9379 -0.2984  0.0283
18787TIP3   OH277775   1.182   4.232   3.166  0.1613 -0.3085  0.5053
18787TIP3    H177776   1.208   4.282   3.089 -0.5095 -0.4348  0.1942
18787TIP3    H277777   1.138   4.154   3.131 -0.2080 -0.3332  1.0117
18788TIP3   OH277778   6.459   4.174   3.580  0.4331  0.0748  0.3174
18788TIP3    H177779   6.459   4.259   3.536  1.1375  0.0188  0.2123
18788TIP3    H277780   6.366   4.151   3.585  0.3147  0.2697 -0.7706
18789TIP3   OH277781   4.503   2.212   3.493 -0.3902  0.2327  0.1152
18789TIP3    H177782   4.588   2.243   3.524 -0.6623  0.5248  0.5656
18789TIP3    H277783   4.525   2.139   3.434  0.1869  0.5600 -0.0769
18790TIP3   OH277784   4.824   3.636   4.427  0.4908 -0.5765 -0.1354
18790TIP3    H177785   4.823   3.586   4.345 -1.3829  0.0154 -0.5098
18790TIP3    H277786   4.912   3.670   4.434  0.2510  0.6566 -2.7186
18791TIP3   OH277787   3.383   6.222   4.368  0.0505 -0.4077 -0.0609
18791TIP3    H177788   3.421   6.253   4.450  0.0553  2.0253 -0.9197
18791TIP3    H277789   3.455   6.177   4.323  0.4700 -0.4051  0.6115
18792TIP3   OH277790   3.381   1.012   2.289 -0.5071  0.4373  0.1805
18792TIP3    H177791   3.297   0.979   2.319 -0.7119  0.7249 -0.0718
18792TIP3    H277792   3.382   0.994   2.195  0.6514 -1.5986  0.5417
18793TIP3   OH277793   2.640   5.631   0.331  0.1170  0.5699  0.3655
18793TIP3    H177794   2.633   5.726   0.336 -2.3414  0.5286 -1.4619
18793TIP3    H277795   2.674   5.613   0.244  1.0621 -0.2286  0.8829
18794TIP3   OH277796   6.946   4.935   4.308  0.4581 -0.1784 -0.8455
18794TIP3    H177797   6.944   4.840   4.320 -0.8044  0.0870  1.3447
18794TIP3    H277798   6.855   4.958   4.291  0.3108  0.8971  1.1767
18795TIP3   OH277799   2.549   2.838   0.614  0.3250  0.1201  0.1278
18795TIP3    H177800   2.590   2.910   0.567  0.2295 -0.1590 -0.3859
18795TIP3    H277801   2.466   2.824   0.570 -0.4308  0.8315  1.3124
18796TIP3   OH277802   5.320   3.947   3.749  0.0682 -0.1941  0.1414
18796TIP3    H177803   5.359   3.894   3.819 -0.0651  0.9189  1.0864
18796TIP3    H277804   5.252   3.890   3.711  0.1633 -0.8307  0.8961
18797TIP3   OH277805   0.403   2.492   0.422 -0.0091 -0.4353  0.4627
18797TIP3    H177806   0.411   2.400   0.445 -0.4231 -0.8836 -1.1579
18797TIP3    H277807   0.309   2.511   0.427 -0.1658 -0.6602 -1.2328
18798TIP3   OH277808   6.276   4.025   2.346  0.0707  0.3582 -0.3036
18798TIP3    H177809   6.339   3.987   2.407  1.5532 -1.0973 -2.6644
18798TIP3    H277810   6.198   3.970   2.355  0.4832 -0.2061 -0.1435
18799TIP3   OH277811   5.343   5.972   2.537  0.2958 -0.0502 -0.0456
18799TIP3    H177812   5.348   5.876   2.539  0.8980 -0.0074  1.4708
18799TIP3    H277813   5.423   6.000   2.493  0.5110 -0.2213  0.2371
18800TIP3   OH277814   3.811   3.950   2.972 -0.6949 -0.6743 -0.4773
18800TIP3    H177815   3.746   3.976   2.908 -0.4123 -0.5913 -0.7307
18800TIP3    H277816   3.773   3.974   3.057  0.1473  1.8497 -0.7714
18801TIP3   OH277817   0.502   2.782   4.460 -0.2695  0.3888  0.2247
18801TIP3    H177818   0.492   2.736   4.543  1.5262 -0.4153  0.0250
18801TIP3    H277819   0.551   2.861   4.482  0.0265  0.2770 -0.0235
18802TIP3   OH277820   4.745   5.466   2.908 -0.3694 -0.1874  0.0870
18802TIP3    H177821   4.677   5.492   2.847  0.7851  1.4691 -0.5089
18802TIP3    H277822   4.810   5.420   2.854 -0.4149 -0.6950  0.4549
18803TIP3   OH277823   6.279   2.100   3.760 -0.5330 -0.2480  0.3512
18803TIP3    H177824   6.209   2.160   3.733 -0.8597 -0.7288  0.1160
18803TIP3    H277825   6.332   2.150   3.822 -0.4389  0.4887 -0.3293
18804TIP3   OH277826   5.435   5.085   4.270 -0.5130  0.7971  0.1275
18804TIP3    H177827   5.489   5.088   4.349  0.3955  1.7920 -0.5192
18804TIP3    H277828   5.470   5.011   4.220 -0.8448  0.3984  0.4892
18805TIP3   OH277829   0.166   5.206   3.270 -0.2870  0.1708 -0.1779
18805TIP3    H177830   0.170   5.299   3.288 -0.0823 -0.1035  1.2275
18805TIP3    H277831   0.199   5.164   3.349 -0.6814 -1.1049 -0.6701
18806TIP3   OH277832   0.056   6.135   3.719 -0.4550 -0.1358 -0.0009
18806TIP3    H177833   0.148   6.115   3.700 -0.0013  0.4757  1.4544
18806TIP3    H277834   0.037   6.212   3.665  0.1700  0.2828  0.3560
18807TIP3   OH277835   1.100   3.439   4.076 -0.1431  0.1176  0.3937
18807TIP3    H177836   1.087   3.526   4.039  0.9283 -0.2587 -0.9013
18807TIP3    H277837   1.080   3.449   4.169  0.2173  1.8047  0.2982
18808TIP3   OH277838   5.311   3.051   5.630  0.1022  0.0840  0.3221
18808TIP3    H177839   5.324   2.956   5.636 -0.8769 -0.0693  0.1242
18808TIP3    H277840   5.398   3.088   5.647  0.7900 -0.8902 -0.9810
18809TIP3   OH277841   4.685   5.582   2.471 -0.0322 -0.0520 -0.3622
18809TIP3    H177842   4.739   5.588   2.392  1.2658  2.3551  0.6620
18809TIP3    H277843   4.714   5.501   2.513  1.0284 -0.0766 -1.1027
18810TIP3   OH277844   5.850   1.534   5.221  0.3186  0.8775  0.1415
18810TIP3    H177845   5.918   1.547   5.287 -1.7253  1.8723  2.1103
18810TIP3    H277846   5.784   1.479   5.264 -0.6530  0.8423 -1.3506
18811TIP3   OH277847   5.507   2.678   1.254 -0.1939 -0.0198 -1.0171
18811TIP3    H177848   5.524   2.591   1.219  1.1811  0.6070 -1.9470
18811TIP3    H277849   5.414   2.693   1.238 -1.1107 -2.3839  1.5950
18812TIP3   OH277850   6.124   5.216   3.769  0.3693  0.7764 -0.0177
18812TIP3    H177851   6.087   5.207   3.681  0.7680  1.2422 -0.2321
18812TIP3    H277852   6.113   5.129   3.808  0.9333  0.3453 -0.8077
18813TIP3   OH277853   3.860   2.878   2.858 -0.1774 -0.5535 -0.3889
18813TIP3    H177854   3.825   2.965   2.875 -0.4039 -0.6910 -0.1319
18813TIP3    H277855   3.788   2.819   2.883 -0.2905 -0.7818 -1.2590
18814TIP3   OH277856   5.682   3.176   3.680 -0.2110 -0.1376  0.3925
18814TIP3    H177857   5.775   3.171   3.660 -0.2430 -0.8708  0.4381
18814TIP3    H277858   5.661   3.093   3.721 -0.5495  0.6520  1.8417
18815TIP3   OH277859   4.119   4.641   5.912  0.5253  1.1046  0.5959
18815TIP3    H177860   4.065   4.614   5.837  0.0938  1.0020  0.9399
18815TIP3    H277861   4.157   4.724   5.885  1.8829  0.1502 -0.4909
18816TIP3   OH277862   4.266   5.850   5.568 -0.6950  0.0346 -0.8563
18816TIP3    H177863   4.303   5.806   5.491 -1.4198  0.0729 -1.2318
18816TIP3    H277864   4.256   5.781   5.633  1.3385  0.2824 -0.2623
18817TIP3   OH277865   5.267   4.434   5.111 -0.0300 -0.0957 -0.0212
18817TIP3    H177866   5.340   4.378   5.085 -1.3381 -0.9489 -2.0143
18817TIP3    H277867   5.190   4.377   5.105 -1.0502  1.2142  0.4877
18818TIP3   OH277868   6.812   2.919   2.317 -0.0854 -0.3214 -0.1150
18818TIP3    H177869   6.794   2.904   2.224 -1.3961 -0.2162  0.1060
18818TIP3    H277870   6.898   2.961   2.318 -0.4833  0.5812 -1.3625
18819TIP3   OH277871   0.478   4.063   2.611 -0.5003 -0.0732 -0.4735
18819TIP3    H177872   0.478   4.085   2.704 -0.9368 -0.3657 -0.3998
18819TIP3    H277873   0.423   4.129   2.570 -0.7852 -0.2844 -0.4356
18820TIP3   OH277874   3.647   4.817   4.544  0.0395 -0.4801  0.1449
18820TIP3    H177875   3.721   4.792   4.488 -0.1112 -0.2019 -0.1855
18820TIP3    H277876   3.571   4.813   4.486 -0.2868 -1.3122  0.6302
18821TIP3   OH277877   5.066   4.204   1.892 -0.2851 -0.5994 -0.1546
18821TIP3    H177878   5.017   4.276   1.933  0.7927 -0.0160  0.1355
18821TIP3    H277879   5.157   4.222   1.914  0.0957 -1.4736 -1.0009
18822TIP3   OH277880   2.587   5.966   3.881  0.0626 -0.5749 -0.1710
18822TIP3    H177881   2.630   5.921   3.953 -0.0644  1.1077  0.9948
18822TIP3    H277882   2.657   6.012   3.836 -0.1776  0.3016  0.3350
18823TIP3   OH277883   3.623   6.661   4.241 -0.0893  0.0131  0.1407
18823TIP3    H177884   3.594   6.642   4.152 -1.1621  1.5930  0.1282
18823TIP3    H277885   3.591   6.750   4.258  2.0679  0.5841  1.2954
18824TIP3   OH277886   3.305   5.162   3.350 -0.3429  0.1858 -0.5457
18824TIP3    H177887   3.330   5.245   3.310 -1.8328  1.4626  1.0990
18824TIP3    H277888   3.388   5.122   3.377  0.3395  1.4197 -0.7755
18825TIP3   OH277889   4.363   6.318   5.702 -0.2116 -0.6039 -0.1836
18825TIP3    H177890   4.400   6.282   5.783 -1.2088  1.1279  1.0658
18825TIP3    H277891   4.270   6.331   5.721 -0.6049 -0.7984 -1.8498
18826TIP3   OH277892   4.794   3.226   4.167 -0.0044 -0.2345  0.3817
18826TIP3    H177893   4.760   3.180   4.244  2.1196 -1.8831  0.4096
18826TIP3    H277894   4.858   3.288   4.202  0.6934 -0.7227 -0.0140
18827TIP3   OH277895   1.238   4.145   5.325  0.7038 -0.0101  0.3338
18827TIP3    H177896   1.310   4.096   5.286 -0.2422 -0.2606 -1.1338
18827TIP3    H277897   1.217   4.097   5.405  1.0466 -0.9087 -0.1046
18828TIP3   OH277898   5.048   3.180   3.863 -0.3396 -0.2516  0.9179
18828TIP3    H177899   5.026   3.198   3.771  0.5523 -0.8170  0.5832
18828TIP3    H277900   4.975   3.125   3.894 -0.0907 -1.0069  0.2105
18829TIP3   OH277901   6.321   5.556   0.623 -0.0157  0.4655 -0.9201
18829TIP3    H177902   6.356   5.475   0.660  0.2555  0.5605 -0.9678
18829TIP3    H277903   6.228   5.536   0.606 -0.0549  0.3063 -0.5332
18830TIP3   OH277904   6.697   5.366   4.933  0.2393 -0.1552  0.0887
18830TIP3    H177905   6.710   5.273   4.950  1.0748 -0.5684 -2.4886
18830TIP3    H277906   6.647   5.368   4.851 -0.0690  1.6647  0.3005
18831TIP3   OH277907   6.776   4.900   3.397 -0.1094  0.4642  0.6112
18831TIP3    H177908   6.753   4.918   3.488 -0.7728  0.6259  0.4126
18831TIP3    H277909   6.752   4.808   3.385  0.9985  0.1349  0.9164
18832TIP3   OH277910   6.455   3.764   4.989 -0.6182  0.3394  0.4110
18832TIP3    H177911   6.548   3.785   4.993 -0.3835 -0.8542  1.4642
18832TIP3    H277912   6.411   3.840   5.025  0.0739  0.0914  1.7935
18833TIP3   OH277913   3.453   5.026   4.311  0.3485  0.3227 -0.4307
18833TIP3    H177914   3.496   5.029   4.396  0.1692  1.7988 -0.3818
18833TIP3    H277915   3.425   5.116   4.295 -2.0718 -0.4379 -0.7760
18834TIP3   OH277916   5.620   1.734   4.859  0.0253 -0.3389  0.1941
18834TIP3    H177917   5.601   1.702   4.947 -4.5683  0.6437 -0.2859
18834TIP3    H277918   5.587   1.824   4.859  2.3955  0.5676 -1.7627
18835TIP3   OH277919   4.230   0.340   3.699 -0.1548  0.1205  0.1514
18835TIP3    H177920   4.254   0.429   3.724 -0.7075  0.7998 -1.6509
18835TIP3    H277921   4.144   0.349   3.658 -0.1891 -1.2384 -0.1005
18836TIP3   OH277922   1.686   2.840   3.454 -0.0207  0.1273  0.7680
18836TIP3    H177923   1.742   2.915   3.436  0.8801 -0.8978 -0.7818
18836TIP3    H277924   1.746   2.766   3.466 -0.9650 -0.7468  0.2725
18837TIP3   OH277925   2.842   6.383   4.491  0.0851 -0.4961  0.0661
18837TIP3    H177926   2.791   6.447   4.441 -0.1930 -1.4257 -0.8606
18837TIP3    H277927   2.880   6.434   4.563  0.9083  1.0028 -1.3758
18838TIP3   OH277928   3.120   2.066   0.413  0.1596 -0.1398  0.0557
18838TIP3    H177929   3.192   2.109   0.459 -1.1298  0.6168  1.4178
18838TIP3    H277930   3.104   1.985   0.461 -0.6902  0.2838  0.5033
18839TIP3   OH277931   6.031   1.208   5.271 -0.0715 -0.7797  0.8051
18839TIP3    H177932   5.966   1.163   5.217  0.8151 -0.0613 -0.8947
18839TIP3    H277933   6.099   1.142   5.287  1.1815 -0.1598 -1.6062
18840TIP3   OH277934   2.742   4.597   4.235  0.1360 -0.2216  0.3695
18840TIP3    H177935   2.697   4.513   4.232  1.2619 -0.8195 -0.2252
18840TIP3    H277936   2.829   4.576   4.271  1.1379  0.3500 -1.6452
18841TIP3   OH277937   6.706   1.448   5.339 -0.2700  0.2952 -0.0026
18841TIP3    H177938   6.745   1.527   5.300  0.4546  0.5592  1.2427
18841TIP3    H277939   6.777   1.409   5.390 -1.2736  0.0792  1.2410
18842TIP3   OH277940   1.054   3.525   1.250 -0.1219 -0.3194  0.1822
18842TIP3    H177941   1.144   3.551   1.229  0.0016 -1.0848 -0.2489
18842TIP3    H277942   1.064   3.445   1.302 -0.5087  0.3113  1.2323
18843TIP3   OH277943   2.751   6.789   2.689 -0.5007  0.3724  0.5839
18843TIP3    H177944   2.836   6.829   2.708 -0.0159 -0.5931  0.4917
18843TIP3    H277945   2.766   6.695   2.701 -1.1912  0.0763 -0.7420
18844TIP3   OH277946   5.648   1.722   5.162 -0.1365  0.2680  0.3222
18844TIP3    H177947   5.737   1.729   5.197 -0.3778  0.2347  0.9391
18844TIP3    H277948   5.609   1.648   5.208 -0.6543  0.6005  0.4174
18845TIP3   OH277949   2.396   0.598   4.927  0.8562  0.4312 -0.3590
18845TIP3    H177950   2.433   0.522   4.882 -0.7695  0.3490 -1.5671
18845TIP3    H277951   2.387   0.665   4.860 -0.7723  0.6013  0.0068
18846TIP3   OH277952   2.808   0.569   3.216 -0.2358  0.3283  0.3919
18846TIP3    H177953   2.829   0.477   3.234 -1.1669 -0.0065 -0.1999
18846TIP3    H277954   2.741   0.565   3.147 -0.7116  1.4338  0.7822
18847TIP3   OH277955   6.448   0.893   5.131 -0.0989 -0.1459 -0.1860
18847TIP3    H177956   6.461   0.987   5.121 -0.4158 -0.0675  0.1192
18847TIP3    H277957   6.495   0.854   5.057  1.5463  0.1405  0.6888
18848TIP3   OH277958   2.343   2.687   0.932 -0.1863 -0.3105  0.0585
18848TIP3    H177959   2.377   2.606   0.893  2.3254  1.5566 -1.8073
18848TIP3    H277960   2.359   2.676   1.026  3.0341 -0.7628 -0.4718
18849TIP3   OH277961   3.076   2.975   5.053 -0.4055 -0.2742 -0.4174
18849TIP3    H177962   3.140   2.995   5.121 -0.3236  0.9804 -0.8523
18849TIP3    H277963   3.025   3.056   5.043 -0.4638 -0.4647 -1.7961
18850TIP3   OH277964   0.772   0.975   5.893  0.8637  0.7599 -0.5791
18850TIP3    H177965   0.689   0.995   5.850  0.1844 -2.9824 -1.1848
18850TIP3    H277966   0.838   0.998   5.829  0.2559  2.7665 -0.5042
18851TIP3   OH277967   5.123   4.970   5.863  0.6885  0.1471  0.0804
18851TIP3    H177968   5.104   5.061   5.840 -0.8290 -0.0978  0.3189
18851TIP3    H277969   5.179   4.938   5.792 -0.2635  0.7296 -0.9461
18852TIP3   OH277970   5.860   6.411   2.775  0.3841  0.4109  0.2804
18852TIP3    H177971   5.882   6.453   2.858 -0.0999  0.4173  0.4065
18852TIP3    H277972   5.877   6.318   2.790  2.4391  0.6641 -0.3207
18853TIP3   OH277973   5.993   5.153   3.547  0.0869 -0.1148  0.0980
18853TIP3    H177974   5.905   5.176   3.517  0.0444  1.0813  1.0995
18853TIP3    H277975   6.049   5.167   3.471 -0.3771  0.5166 -0.1326
18854TIP3   OH277976   5.753   4.740   2.627 -0.0730  0.0004 -0.1799
18854TIP3    H177977   5.833   4.689   2.633 -1.2890 -1.8223  1.0945
18854TIP3    H277978   5.772   4.820   2.677  2.1048  1.2075 -2.8644
18855TIP3   OH277979   5.373   4.442   2.352  0.4467 -0.2536  0.4243
18855TIP3    H177980   5.308   4.385   2.394 -0.0980 -0.1291 -0.2350
18855TIP3    H277981   5.446   4.385   2.331 -0.6583 -1.0231 -1.4810
18856TIP3   OH277982   0.488   6.639   5.262 -0.7776 -0.9217 -0.2645
18856TIP3    H177983   0.448   6.709   5.312  0.1331  0.6664 -1.7168
18856TIP3    H277984   0.415   6.579   5.242 -1.7239  0.0565  0.2159
18857TIP3   OH277985   5.810   1.988   3.710  0.7002  0.0631  0.0229
18857TIP3    H177986   5.831   2.039   3.788  1.1773  0.0062 -0.0655
18857TIP3    H277987   5.776   1.905   3.744 -0.8606  0.7517  0.1645
18858TIP3   OH277988   5.798   2.156   3.469  0.0179  0.2666 -0.9632
18858TIP3    H177989   5.795   2.087   3.535  0.3962  0.3112 -0.9017
18858TIP3    H277990   5.737   2.126   3.401 -1.2656  0.7725 -0.0637
18859TIP3   OH277991   0.028   7.041   2.216  0.0299  0.0550  0.1236
18859TIP3    H177992   0.103   7.055   2.273 -0.6096  0.7667  0.7963
18859TIP3    H277993  -0.019   7.124   2.216  0.0138  0.0719 -1.4442
18860TIP3   OH277994   0.825   0.520   4.949 -0.3119  0.0679 -0.3734
18860TIP3    H177995   0.841   0.570   5.028 -1.5629  1.2884 -0.8610
18860TIP3    H277996   0.788   0.437   4.979  0.0598  0.1706  0.3546
18861TIP3   OH277997   1.886   5.950   4.585  0.0842 -0.7361 -0.6466
18861TIP3    H177998   1.977   5.976   4.567 -0.1679  0.2238 -0.5662
18861TIP3    H277999   1.836   5.987   4.512 -0.3668 -0.4777 -0.2103
18862TIP3   OH278000   1.959   2.689   3.982  0.5883  0.7404 -1.0748
18862TIP3    H178001   1.869   2.720   3.972  0.4059  0.2916 -0.8343
18862TIP3    H278002   1.951   2.594   3.990  0.9048  0.8624  1.1110
18863TIP3   OH278003   3.506   0.261   5.510  0.0147 -0.0084  0.4141
18863TIP3    H178004   3.477   0.303   5.430  0.3755 -0.1988  0.1814
18863TIP3    H278005   3.601   0.277   5.512 -0.0374  0.2587  0.9552
18864TIP3   OH278006   5.202   0.596   1.503  0.1196  0.3520 -0.0270
18864TIP3    H178007   5.145   0.598   1.426  0.6692  0.5616 -0.4299
18864TIP3    H278008   5.236   0.506   1.505 -2.4020 -0.6431  1.8290
18865TIP3   OH278009   4.234   2.334   5.151 -0.6144 -0.4570  0.5460
18865TIP3    H178010   4.166   2.286   5.105 -0.9596 -0.5392  1.1322
18865TIP3    H278011   4.217   2.426   5.130  0.7677 -0.6480 -1.5481
18866TIP3   OH278012   0.608   1.869   2.961 -0.1658  0.1548  0.3531
18866TIP3    H178013   0.520   1.853   2.925 -0.4687  1.0152  0.6912
18866TIP3    H278014   0.651   1.925   2.896 -0.0813  0.2229  0.4668
18867TIP3   OH278015   3.378   6.617   4.983 -0.4594  0.3788 -0.2807
18867TIP3    H178016   3.288   6.591   5.001  0.1293 -1.8804 -0.4489
18867TIP3    H278017   3.414   6.639   5.068 -0.3658 -1.4665  0.1830
18868TIP3   OH278018   4.755   2.496   4.538 -0.2397 -1.0438  0.8282
18868TIP3    H178019   4.740   2.545   4.619  0.8448 -0.9654  0.9926
18868TIP3    H278020   4.849   2.505   4.523 -0.6755  0.3181 -1.3084
18869TIP3   OH278021   1.840   4.250   4.674  0.3502  0.4703  0.7880
18869TIP3    H178022   1.929   4.215   4.674 -0.6645 -2.2139  2.0437
18869TIP3    H278023   1.825   4.277   4.765 -0.4247  0.0579  0.7866
18870TIP3   OH278024   0.544   7.062   5.969  0.4487  0.2611 -0.4142
18870TIP3    H178025   0.468   7.030   6.016  0.7406 -1.5879 -1.1283
18870TIP3    H278026   0.602   7.097   6.036 -0.4380  0.4109  0.2696
18871TIP3   OH278027   5.494   5.017   0.060 -0.4091 -0.1377  0.0036
18871TIP3    H178028   5.505   5.097   0.111  0.3118 -0.8929  1.0416
18871TIP3    H278029   5.579   4.974   0.064 -0.5257 -0.5158 -1.3228
18872TIP3   OH278030   4.404   4.538   1.498  0.1234  0.7689  0.2142
18872TIP3    H178031   4.346   4.613   1.499  0.7556  1.2611  1.2924
18872TIP3    H278032   4.345   4.462   1.497 -0.5597  1.2570  1.5876
18873TIP3   OH278033   3.982   4.954   5.761 -0.4900  0.1259  0.5349
18873TIP3    H178034   4.067   4.926   5.794 -1.0703 -0.1480  1.8452
18873TIP3    H278035   3.984   4.936   5.667  0.7950 -0.1088  0.6089
18874TIP3   OH278036   1.440   3.694   4.421 -0.1656  0.5385 -0.1620
18874TIP3    H178037   1.386   3.770   4.444  1.0259  1.4971 -0.4963
18874TIP3    H278038   1.527   3.717   4.451  0.2953 -0.5130 -0.6835
18875TIP3   OH278039   1.398   0.002   4.049 -0.0151  0.4786 -0.2036
18875TIP3    H178040   1.392   0.060   4.125 -0.6127  0.6960 -0.4140
18875TIP3    H278041   1.455   0.049   3.988  1.2525 -0.1394  0.5062
18876TIP3   OH278042   7.082   2.546  15.284 -0.2598 -0.3409 -0.1421
18876TIP3    H178043   7.006   2.498  15.316 -0.0728 -0.2921  0.3930
18876TIP3    H278044   7.150   2.479  15.273 -0.1776 -0.2885  0.0358
18877TIP3   OH278045   3.099   5.139   3.562  0.0945 -0.0876 -0.5588
18877TIP3    H178046   3.148   5.147   3.480 -1.4696  0.4606 -1.4578
18877TIP3    H278047   3.085   5.229   3.591 -0.1142 -0.2490 -0.1475
18878TIP3   OH278048   4.115   5.784   4.675 -0.3885 -0.0509  0.2097
18878TIP3    H178049   4.034   5.826   4.704 -0.3553 -0.6256  1.1598
18878TIP3    H278050   4.086   5.703   4.634 -0.2504 -0.8134  1.5618
18879TIP3   OH278051   3.897   0.836  14.761 -0.3918 -0.4008  0.5378
18879TIP3    H178052   3.973   0.785  14.733  0.4723  0.3610  1.4548
18879TIP3    H278053   3.822   0.778  14.747  0.4951 -1.6290  0.8277
18880TIP3   OH278054   5.360   1.916   5.197 -0.6551 -0.3141  0.6514
18880TIP3    H178055   5.308   1.915   5.278 -0.1266 -1.4128  0.9892
18880TIP3    H278056   5.440   1.869   5.220 -0.6507 -0.9391 -0.6158
18881TIP3   OH278057   4.141   2.400   2.668 -0.2517 -0.4844 -0.3543
18881TIP3    H178058   4.083   2.456   2.617 -1.8540 -1.3122  0.5083
18881TIP3    H278059   4.162   2.327   2.609  0.4681  0.1388 -0.8885
18882TIP3   OH278060   6.800   0.832   1.441  0.1022  0.6333  0.1226
18882TIP3    H178061   6.839   0.841   1.528  1.1833 -0.1207 -0.2752
18882TIP3    H278062   6.725   0.892   1.442  1.2115  2.0323  0.9195
18883TIP3   OH278063   3.569   2.969   3.811 -0.7947 -0.5274 -0.4693
18883TIP3    H178064   3.518   2.889   3.800  1.3119 -1.7325 -1.9281
18883TIP3    H278065   3.654   2.948   3.772  0.1578  2.0603  0.1395
18884TIP3   OH278066   2.811   4.538   3.422 -0.2899  0.3139  0.1442
18884TIP3    H178067   2.794   4.629   3.448 -0.5221  0.8340 -1.7408
18884TIP3    H278068   2.861   4.501   3.495 -0.9308  1.7003  1.3117
18885TIP3   OH278069   0.691   4.259   3.259 -0.0330 -0.3382 -0.2817
18885TIP3    H178070   0.704   4.281   3.351  1.2043 -0.7190 -0.3594
18885TIP3    H278071   0.750   4.319   3.212 -1.1558  0.3243 -0.8751
18886TIP3   OH278072   3.882   1.986   4.552 -0.0823 -0.0995 -0.4268
18886TIP3    H178073   3.847   2.055   4.609  0.2043  0.9293 -1.4644
18886TIP3    H278074   3.937   1.933   4.610 -0.4631  0.4308  0.4294
18887TIP3   OH278075   2.779   7.109   1.927  0.0857 -0.2224 -0.1502
18887TIP3    H178076   2.763   7.128   2.020  0.2830  1.4823 -0.4572
18887TIP3    H278077   2.698   7.065   1.898 -1.0782  1.6504  0.1715
18888TIP3   OH278078   6.395   3.488   3.608  0.3534 -0.5516  0.1305
18888TIP3    H178079   6.411   3.444   3.524  1.0952 -0.4959  0.2387
18888TIP3    H278080   6.428   3.576   3.595 -1.1823  0.0057 -0.0979
18889TIP3   OH278081   0.330   6.232   3.375 -0.1721  0.0649  0.0375
18889TIP3    H178082   0.357   6.201   3.462 -1.0165 -0.4477  0.1235
18889TIP3    H278083   0.257   6.174   3.351 -0.1907  0.4551 -0.8434
18890TIP3   OH278084   0.128   1.086   5.870  0.1739  0.0497  0.7073
18890TIP3    H178085   0.172   1.002   5.864 -2.0301 -1.1656  1.1991
18890TIP3    H278086   0.130   1.109   5.963 -0.3760 -0.0810  0.7515
18891TIP3   OH278087   6.219   3.612   2.320  0.0272 -0.3731 -0.1403
18891TIP3    H178088   6.257   3.683   2.269 -0.4297 -1.3158 -1.8392
18891TIP3    H278089   6.262   3.617   2.405  2.6202 -0.2706 -1.4070
18892TIP3   OH278090   5.824   5.022   3.730 -0.7350 -0.0098 -0.7494
18892TIP3    H178091   5.875   5.061   3.659  1.3496 -0.3763  0.4804
18892TIP3    H278092   5.838   5.081   3.804  0.7047 -1.9012  0.5349
18893TIP3   OH278093   1.774   3.802   0.925  0.3419 -0.0186  0.1363
18893TIP3    H178094   1.814   3.776   0.842 -0.4390 -1.5299  0.2124
18893TIP3    H278095   1.846   3.842   0.975  1.1149 -0.2684 -0.7605
18894TIP3   OH278096   0.872   2.504   2.791  0.1332 -0.0541 -0.4641
18894TIP3    H178097   0.854   2.444   2.718 -0.8847 -1.8273  1.2109
18894TIP3    H278098   0.960   2.480   2.820 -0.5862 -1.2920  0.7161
18895TIP3   OH278099   2.517   3.937   4.409 -0.3084 -0.0415 -0.2535
18895TIP3    H178100   2.571   3.878   4.461 -2.7985 -2.0694  0.1762
18895TIP3    H278101   2.462   3.982   4.473 -1.4886 -0.5417 -0.8928
18896TIP3   OH278102   1.515   0.303   4.013 -0.2320 -0.7608 -0.4913
18896TIP3    H178103   1.601   0.315   3.973 -0.0457  1.5649  0.5546
18896TIP3    H278104   1.533   0.283   4.105 -0.8149  1.0336  0.0374
18897TIP3   OH278105   5.074   3.782   5.018  0.3542  0.0030 -0.0881
18897TIP3    H178106   5.029   3.715   5.071 -1.3438  1.1285 -0.0835
18897TIP3    H278107   5.044   3.767   4.929 -0.5266  1.1560  0.0074
18898TIP3   OH278108   0.363   4.521   3.696  0.1382 -0.6788 -0.8273
18898TIP3    H178109   0.370   4.567   3.780  0.1712 -1.7190 -0.2610
18898TIP3    H278110   0.290   4.461   3.707  0.6272 -1.3663 -1.2892
18899TIP3   OH278111   4.615   0.113   4.264  0.0116  0.3934  0.3775
18899TIP3    H178112   4.625   0.053   4.189 -2.2427  2.4563 -1.6478
18899TIP3    H278113   4.703   0.146   4.279  0.4682  0.1198 -1.5202
18900TIP3   OH278114   5.276   2.797   5.008  0.2800 -0.0498  0.0160
18900TIP3    H178115   5.326   2.850   5.071 -1.7723  1.4912  0.4062
18900TIP3    H278116   5.325   2.804   4.926  0.5860  1.6551  0.3255
18901TIP3   OH278117   0.073   4.848   3.125 -0.7248 -0.0959 -0.1564
18901TIP3    H178118   0.089   4.754   3.129 -1.2649 -0.2032 -0.4498
18901TIP3    H278119   0.093   4.873   3.035  0.7199  0.3184  0.2714
18902TIP3   OH278120   6.265   6.686   3.991  0.6020 -0.1467  0.2542
18902TIP3    H178121   6.304   6.606   3.956 -1.8149 -0.8614 -0.9465
18902TIP3    H278122   6.282   6.752   3.924  0.3720 -0.2696  0.0768
18903TIP3   OH278123   5.474   3.589   3.438  0.2854 -0.3953  0.4870
18903TIP3    H178124   5.462   3.501   3.474 -0.4143  0.4820  2.4738
18903TIP3    H278125   5.385   3.623   3.428  0.5992  0.6573  1.2112
18904TIP3   OH278126   1.124   3.461   4.831  0.1737 -0.3362 -0.6192
18904TIP3    H178127   1.143   3.382   4.781  2.5591 -0.2540  0.0898
18904TIP3    H278128   1.070   3.430   4.904 -1.4096 -0.8130 -1.9755
18905TIP3   OH278129   4.631   7.023   2.251  0.5823 -0.1944 -0.3143
18905TIP3    H178130   4.674   7.002   2.168  1.3808 -1.2744  0.3578
18905TIP3    H278131   4.693   7.081   2.297  0.5261 -0.3016 -0.1013
18906TIP3   OH278132   0.132   4.224   0.508  0.0837 -0.5585 -0.4172
18906TIP3    H178133   0.133   4.201   0.415 -1.4004 -1.4623 -0.2282
18906TIP3    H278134   0.212   4.275   0.521  1.0976 -1.7323 -1.8596
18907TIP3   OH278135   3.310   5.716   4.802  0.2565 -0.1788 -0.4859
18907TIP3    H178136   3.303   5.761   4.718 -2.3662 -0.4276 -0.4320
18907TIP3    H278137   3.340   5.628   4.780 -0.8896 -0.3949 -1.2332
18908TIP3   OH278138   2.421   1.030   2.365  0.4205 -0.1802  0.7147
18908TIP3    H178139   2.512   1.058   2.356  0.6735 -1.4045 -0.8297
18908TIP3    H278140   2.372   1.092   2.312  0.4102  0.1898  1.1552
18909TIP3   OH278141   5.051   4.417   3.730 -0.7604 -0.0244  0.2895
18909TIP3    H178142   4.987   4.407   3.801 -0.7201  0.9903  0.4773
18909TIP3    H278143   5.014   4.484   3.674  0.3843  0.9479  0.6864
18910TIP3   OH278144   6.540   1.920   3.214  0.0843  0.6080 -0.2605
18910TIP3    H178145   6.516   1.880   3.130 -0.2698  1.6016 -0.6424
18910TIP3    H278146   6.620   1.969   3.195  1.0082 -0.6265  0.4164
18911TIP3   OH278147   6.265   3.472   4.467  0.1943 -0.1998  0.3536
18911TIP3    H178148   6.231   3.412   4.533 -0.3933 -0.9769 -0.6307
18911TIP3    H278149   6.240   3.432   4.384  0.6483  0.9205 -0.3340
18912TIP3   OH278150   0.627   4.345   1.381 -0.0819 -0.2595  0.3363
18912TIP3    H178151   0.580   4.356   1.464  1.0622  0.0557  0.9442
18912TIP3    H278152   0.709   4.392   1.393 -0.0431  0.0588 -1.0956
18913TIP3   OH278153   0.477   3.404   2.700 -0.6261  0.1527 -0.6780
18913TIP3    H178154   0.441   3.476   2.648  1.2059  0.5103 -1.4776
18913TIP3    H278155   0.539   3.446   2.760 -0.0981 -0.6564 -0.6466
18914TIP3   OH278156   4.471   4.500   4.156  0.7519 -0.2727  0.1376
18914TIP3    H178157   4.486   4.475   4.066  3.3792  1.5413  0.0083
18914TIP3    H278158   4.465   4.418   4.204  0.0948 -1.2302 -1.5615
18915TIP3   OH278159   4.197   6.565   3.719  0.3941 -0.3814  0.2618
18915TIP3    H178160   4.201   6.492   3.780 -1.6016 -0.3356  0.4833
18915TIP3    H278161   4.182   6.642   3.774  0.2977 -0.1139 -0.1341
18916TIP3   OH278162   1.582   0.726   1.724 -0.3427 -0.3056 -0.2568
18916TIP3    H178163   1.621   0.811   1.747 -1.1675 -0.4818  1.8680
18916TIP3    H278164   1.579   0.727   1.629  1.0991  1.4066 -0.3276
18917TIP3   OH278165   1.956   2.639   0.726  0.3697 -0.6251 -0.6814
18917TIP3    H178166   1.895   2.668   0.657  0.8777 -0.8812 -1.2422
18917TIP3    H278167   1.956   2.711   0.789  0.6200  0.0442 -1.4238
18918TIP3   OH278168   0.759   4.905  14.784  0.0601  0.3118  0.0789
18918TIP3    H178169   0.683   4.957  14.759  0.3502  0.2134 -0.9984
18918TIP3    H278170   0.736   4.815  14.762 -0.1491  0.0573  1.2700
18919TIP3   OH278171   1.099   3.846   4.420  0.7150 -0.0396  0.1586
18919TIP3    H178172   1.129   3.910   4.484 -0.8189  1.7583 -0.8627
18919TIP3    H278173   1.154   3.863   4.343  0.4138 -0.0833 -0.0642
18920TIP3   OH278174   3.524   6.944   2.308  0.2499 -0.3671  0.3556
18920TIP3    H178175   3.461   6.872   2.312 -0.0239 -0.2510 -1.5786
18920TIP3    H278176   3.600   6.912   2.357  0.7593 -2.6214 -1.8312
18921TIP3   OH278177   5.855   2.049   2.194 -0.0122  0.5189 -0.1877
18921TIP3    H178178   5.906   1.971   2.215  1.2559  0.4292 -3.2821
18921TIP3    H278179   5.764   2.023   2.208  0.5139 -0.9531  0.5134
18922TIP3   OH278180   4.555   6.305   4.659 -0.7196  0.3733 -0.9231
18922TIP3    H178181   4.631   6.276   4.710 -0.9731  0.2059 -0.6413
18922TIP3    H278182   4.591   6.323   4.572 -0.4392 -0.1566 -0.9215
18923TIP3   OH278183   5.046   5.300   5.396 -0.1026 -0.0359  0.3208
18923TIP3    H178184   5.012   5.355   5.325  1.3597 -0.3566 -0.6469
18923TIP3    H278185   5.123   5.257   5.359  0.3817 -0.6236  1.9421
18924TIP3   OH278186   5.620   3.361   4.332 -0.0064 -0.6736  0.0073
18924TIP3    H178187   5.681   3.411   4.387  2.0407 -0.2507 -2.5368
18924TIP3    H278188   5.544   3.419   4.322  1.2232  0.8673 -0.7197
18925TIP3   OH278189   4.656   0.301   2.984  0.2035  0.0537  0.5765
18925TIP3    H178190   4.658   0.334   2.894  1.4076  0.2346  0.6552
18925TIP3    H278191   4.665   0.206   2.975  0.7116  0.1051  0.5157
18926TIP3   OH278192   6.349   6.150   5.557  0.1165  0.3372  0.4615
18926TIP3    H178193   6.408   6.101   5.614 -1.2927 -0.3588  1.3364
18926TIP3    H278194   6.376   6.241   5.567  0.6894  0.0844  1.2783
18927TIP3   OH278195   1.096   0.398   4.630 -0.0674 -0.6393 -0.0502
18927TIP3    H178196   1.107   0.413   4.724 -1.6734 -0.8651  0.1906
18927TIP3    H278197   1.184   0.406   4.594  0.2333  1.7958  1.1397
18928TIP3   OH278198   0.270   0.915   2.924 -0.7015  0.0679 -0.4537
18928TIP3    H178199   0.329   0.842   2.906 -0.4535  0.1391  0.0588
18928TIP3    H278200   0.243   0.903   3.015  1.9538  2.4167  0.7291
18929TIP3   OH278201   1.700   6.256   5.580 -0.2841 -0.4684  0.2157
18929TIP3    H178202   1.682   6.350   5.586 -1.5999 -0.6511 -0.6092
18929TIP3    H278203   1.712   6.229   5.671  1.4235  0.7350  0.3615
18930TIP3   OH278204   1.449   4.217   4.341 -0.1943  0.3958 -0.1535
18930TIP3    H178205   1.429   4.156   4.270  0.5017  1.1779 -1.0292
18930TIP3    H278206   1.540   4.199   4.363 -0.4979 -0.0565  0.7655
18931TIP3   OH278207   4.853   5.693   5.781  0.4237  0.0785  0.1665
18931TIP3    H178208   4.935   5.715   5.825 -1.0573 -1.0476  3.6528
18931TIP3    H278209   4.848   5.597   5.785 -0.9875  0.1206 -0.0887
18932TIP3   OH278210   6.626   4.257   5.225 -0.1603 -0.3720 -0.5801
18932TIP3    H178211   6.546   4.291   5.266  0.6273  0.3701  0.3645
18932TIP3    H278212   6.668   4.205   5.293  0.5151 -0.1702 -0.8326
18933TIP3   OH278213   6.989   6.239   3.880  0.0841 -0.0539  0.3510
18933TIP3    H178214   6.933   6.283   3.944 -0.5274  2.6130 -1.9170
18933TIP3    H278215   7.064   6.298   3.869  2.6644 -2.8185  2.1871
18934TIP3   OH278216   3.402   1.806   3.301 -0.2005 -0.1157 -0.0487
18934TIP3    H178217   3.480   1.757   3.326 -0.3538 -1.1155 -1.4778
18934TIP3    H278218   3.363   1.754   3.230 -0.1441  2.2835 -1.8877
18935TIP3   OH278219   0.859   2.886   2.494  0.1741 -0.1364  0.7195
18935TIP3    H178220   0.832   2.842   2.574 -1.3712  1.8593  1.3389
18935TIP3    H278221   0.933   2.941   2.520 -1.8023  2.3224  1.3750
18936TIP3   OH278222   0.965   2.975   1.698 -0.4855 -0.6025  0.4191
18936TIP3    H178223   0.877   2.976   1.736 -0.4416 -0.5209  0.5187
18936TIP3    H278224   0.978   3.065   1.667 -1.2825 -1.1316 -1.5304
18937TIP3   OH278225   1.227   5.641   3.021  1.2061 -0.3102  0.2634
18937TIP3    H178226   1.298   5.610   3.076  1.0621  0.4195  0.8735
18937TIP3    H278227   1.225   5.736   3.036 -0.3923 -0.4254  0.8418
18938TIP3   OH278228   5.853   0.519   5.649  0.0929  0.5137  0.1779
18938TIP3    H178229   5.921   0.582   5.670 -0.1888  2.0495 -3.2454
18938TIP3    H278230   5.900   0.437   5.635  0.7118  0.4885  2.2096
18939TIP3   OH278231   2.822   5.018   5.534  0.0110  0.1877 -0.0303
18939TIP3    H178232   2.787   5.071   5.605  0.2644  0.2985  0.0125
18939TIP3    H278233   2.907   5.059   5.513 -0.1640  0.2990 -0.5455
18940TIP3   OH278234   5.560   3.080   1.297 -0.1243 -0.1812 -0.5787
18940TIP3    H178235   5.473   3.051   1.267  0.0194 -1.0328 -0.1852
18940TIP3    H278236   5.541   3.149   1.360 -0.5924 -1.5463  0.8087
18941TIP3   OH278237   6.391   5.267   4.883  0.1234  0.0711 -0.8179
18941TIP3    H178238   6.298   5.251   4.868  0.0064  1.7921 -2.0945
18941TIP3    H278239   6.395   5.306   4.970 -0.2962 -0.3246 -0.6171
18942TIP3   OH278240   7.117   5.832   4.192 -0.4420 -0.7494 -0.8645
18942TIP3    H178241   7.028   5.812   4.221 -0.3451  1.5269  1.0929
18942TIP3    H278242   7.170   5.827   4.271  0.5775  1.2845 -1.3882
18943TIP3   OH278243   7.144   5.547   1.460  0.1382  0.0805  0.6196
18943TIP3    H178244   7.215   5.484   1.470 -0.2915 -0.5502 -0.2001
18943TIP3    H278245   7.151   5.577   1.369 -1.7873 -1.4223 -0.0583
18944TIP3   OH278246   6.370   3.804   3.678 -1.1611 -0.3351 -0.1397
18944TIP3    H178247   6.457   3.770   3.657 -1.6061 -0.5054 -1.7955
18944TIP3    H278248   6.370   3.812   3.773  0.6724 -0.3093 -0.1131
18945TIP3   OH278249   6.556   4.486   2.596 -0.3680 -0.4579  0.3520
18945TIP3    H178250   6.641   4.531   2.590  0.0383 -1.0044  1.7637
18945TIP3    H278251   6.574   4.410   2.652 -1.4967 -1.2946 -0.4149
18946TIP3   OH278252   6.113   5.775  14.995  0.3211  0.7576 -0.0463
18946TIP3    H178253   6.179   5.708  15.011  0.2945  0.7960  0.2372
18946TIP3    H278254   6.162   5.857  14.985  0.2303  1.0367  1.6391
18947TIP3   OH278255   3.725   0.274   3.496  0.2559  0.0504  0.0241
18947TIP3    H178256   3.812   0.304   3.521  0.3994  0.3555 -0.8088
18947TIP3    H278257   3.669   0.299   3.569  0.8596 -0.1132  0.5486
18948TIP3   OH278258   0.750   0.422   3.678 -0.1772 -0.7328 -0.3857
18948TIP3    H178259   0.717   0.339   3.713 -0.6336 -0.2340  0.3810
18948TIP3    H278260   0.671   0.472   3.658  0.0987 -0.2536 -0.2747
18949TIP3   OH278261   4.885   3.182   2.536  0.4493  0.0640 -0.0483
18949TIP3    H178262   4.919   3.094   2.516  1.5374  0.3318  0.5559
18949TIP3    H278263   4.883   3.185   2.632  1.1197  0.9458 -0.0551
18950TIP3   OH278264   5.130   0.947   0.806  0.4520  0.9667 -0.0850
18950TIP3    H178265   5.130   0.852   0.814 -1.9283  0.9664  0.1118
18950TIP3    H278266   5.199   0.966   0.742  1.1643 -0.8470  0.1202
18951TIP3   OH278267   1.475   0.263   1.415 -0.3766  0.0615 -0.4975
18951TIP3    H178268   1.403   0.236   1.473 -0.4043  1.6687  0.2311
18951TIP3    H278269   1.551   0.272   1.472 -0.0562  0.2588 -0.9491
18952TIP3   OH278270   3.306   2.432   6.120 -0.9822  0.1934 -0.2354
18952TIP3    H178271   3.270   2.503   6.067 -1.1565  0.5478  0.3561
18952TIP3    H278272   3.400   2.437   6.105 -1.2035 -1.0911 -2.2257
18953TIP3   OH278273   0.041   3.592   5.478 -0.3474  0.1091  0.4846
18953TIP3    H178274   0.132   3.565   5.470 -0.5485 -0.7152  0.8677
18953TIP3    H278275   0.035   3.626   5.567  0.5903  4.1556 -0.9106
18954TIP3   OH278276   0.082   5.249   5.654  0.5249  0.1043  0.3058
18954TIP3    H178277   0.165   5.293   5.640  0.1224  1.3089  1.5647
18954TIP3    H278278   0.017   5.319   5.654 -0.5122 -0.8316 -0.7696
18955TIP3   OH278279   4.749   5.783   4.416 -0.1014 -0.3010  0.1517
18955TIP3    H178280   4.761   5.813   4.506 -0.0258  0.2978 -0.0587
18955TIP3    H278281   4.694   5.705   4.424  1.1247 -1.1127  0.8463
18956TIP3   OH278282   5.648   4.271   4.095  0.2836 -0.0847  0.4964
18956TIP3    H178283   5.733   4.240   4.065  0.4731 -0.2821  1.2165
18956TIP3    H278284   5.596   4.192   4.106  0.1260  0.0074  0.4164
18957TIP3   OH278285   4.838   1.443   1.739  0.1383  0.2362  0.8556
18957TIP3    H178286   4.786   1.363   1.731  1.3996 -0.3710 -1.7136
18957TIP3    H278287   4.869   1.461   1.651  1.1968  2.7041  1.6761
18958TIP3   OH278288   2.012   2.533   2.708 -0.0313 -0.2319  0.4831
18958TIP3    H178289   1.950   2.500   2.643  0.1576 -0.2873  0.3311
18958TIP3    H278290   1.982   2.496   2.791  0.1194 -0.6999  0.3294
18959TIP3   OH278291   1.949   5.646   3.448  0.5648 -0.3438 -0.3337
18959TIP3    H178292   1.889   5.630   3.522  2.7485  1.8378  2.0072
18959TIP3    H278293   2.026   5.593   3.468  0.5439 -1.0039 -1.9256
18960TIP3   OH278294   5.614   3.465   1.901  0.1028  0.4435  0.0656
18960TIP3    H178295   5.672   3.473   1.977 -0.1485  1.5632  0.1586
18960TIP3    H278296   5.674   3.455   1.827  0.3267 -1.5428  0.4908
18961TIP3   OH278297   6.551   0.747   3.495  0.4476 -0.0527 -0.1528
18961TIP3    H178298   6.463   0.725   3.463 -0.0221 -0.2279  1.2142
18961TIP3    H278299   6.536   0.801   3.573  1.5897  2.7954 -1.8391
18962TIP3   OH278300   5.977   0.389   2.689  0.0534 -0.2967  0.2393
18962TIP3    H178301   5.886   0.378   2.660 -0.1179  1.8834 -0.1452
18962TIP3    H278302   5.975   0.370   2.783 -1.0090  0.7875  0.4416
18963TIP3   OH278303   0.188   6.413   4.693 -0.3683 -0.1695 -0.3696
18963TIP3    H178304   0.172   6.467   4.771 -1.5020  0.3917 -0.9825
18963TIP3    H278305   0.192   6.475   4.621 -0.1476 -0.7729 -0.8847
18964TIP3   OH278306   0.219   6.239   5.059  0.1049 -0.1413 -0.3428
18964TIP3    H178307   0.309   6.272   5.062  0.6785 -1.7443  0.9775
18964TIP3    H278308   0.219   6.177   4.986  0.1252 -0.2824 -0.2231
18965TIP3   OH278309   0.748   3.333   1.948  0.0258 -0.4211 -0.3446
18965TIP3    H178310   0.789   3.310   2.031  0.3319 -0.1104 -0.4077
18965TIP3    H278311   0.729   3.249   1.906  0.5284 -0.5678 -0.2798
18966TIP3   OH278312   6.101   3.525   1.168 -0.0859  0.4170  0.2015
18966TIP3    H178313   6.142   3.575   1.239 -1.0832  0.6826  0.5916
18966TIP3    H278314   6.174   3.504   1.109  0.2026  3.2063 -0.5023
18967TIP3   OH278315   0.279   4.789   3.884  0.3741 -0.5607  0.3284
18967TIP3    H178316   0.283   4.872   3.931 -0.3123 -0.6206  0.4985
18967TIP3    H278317   0.187   4.763   3.890  0.2987 -0.6216 -0.9418
18968TIP3   OH278318   4.654   5.742   4.928  0.1229 -0.0588  0.2009
18968TIP3    H178319   4.668   5.647   4.922  0.5774 -0.0242  0.6164
18968TIP3    H278320   4.740   5.777   4.952 -0.3351  0.3294  1.3223
18969TIP3   OH278321   1.703   6.819   3.012  0.2310 -0.3019 -0.2882
18969TIP3    H178322   1.723   6.726   3.008 -1.7321 -0.7054 -1.1472
18969TIP3    H278323   1.778   6.861   2.969  0.6867 -1.5361 -0.7139
18970TIP3   OH278324   4.765   3.542   3.516  0.8030  0.4831  0.0317
18970TIP3    H178325   4.814   3.578   3.589  1.0432  0.6554 -0.2124
18970TIP3    H278326   4.675   3.571   3.531  1.0170  1.3069 -0.2341
18971TIP3   OH278327   0.335   1.416   3.159 -0.7116  0.2930 -0.2313
18971TIP3    H178328   0.285   1.467   3.223  1.3574  0.3896  1.3573
18971TIP3    H278329   0.337   1.327   3.194  0.5447  0.3722 -0.0637
18972TIP3   OH278330   3.811   4.473   5.058  0.3548  0.1337  0.4224
18972TIP3    H178331   3.834   4.392   5.012  2.5800  1.6511 -1.2579
18972TIP3    H278332   3.887   4.492   5.113 -0.9910  0.0288  2.3447
18973TIP3   OH278333   0.783   6.364   3.926 -0.1644 -0.2618  0.6613
18973TIP3    H178334   0.710   6.345   3.985 -0.1458  1.5034  1.2667
18973TIP3    H278335   0.859   6.371   3.983  0.1768 -0.3584  0.2205
18974TIP3   OH278336   6.452   3.880   2.767  0.1676  0.9625 -0.0833
18974TIP3    H178337   6.429   3.845   2.853  0.0668  1.5222  0.1200
18974TIP3    H278338   6.547   3.888   2.769  0.1999  0.5972 -0.1695
18975TIP3   OH278339   0.796   6.595   4.603  0.2374  0.1607 -0.2382
18975TIP3    H178340   0.779   6.503   4.623  1.1503  0.7353  3.4460
18975TIP3    H278341   0.845   6.593   4.521 -0.1698 -2.6072 -0.4519
18976TIP3   OH278342   6.163   5.646   5.347 -0.1031 -0.1477 -0.6425
18976TIP3    H178343   6.142   5.560   5.383 -0.5583 -0.0734 -0.7235
18976TIP3    H278344   6.244   5.672   5.391 -0.2484 -0.3891 -0.2333
18977TIP3   OH278345   6.515   3.021   3.303  0.1181 -0.4791  0.4970
18977TIP3    H178346   6.560   3.099   3.271 -0.7123  0.0476  0.6094
18977TIP3    H278347   6.512   3.032   3.398  3.2996 -2.4196  0.8989
18978TIP3   OH278348   0.499   3.643   5.916 -0.2248  0.8656 -0.2726
18978TIP3    H178349   0.448   3.563   5.931 -0.1667  0.6522 -1.1465
18978TIP3    H278350   0.590   3.617   5.934 -0.2207  0.7637 -0.4349
18979TIP3   OH278351   6.694   1.808   4.383 -0.4281  0.5815 -0.0271
18979TIP3    H178352   6.771   1.776   4.429 -0.3952 -1.6882 -1.5985
18979TIP3    H278353   6.685   1.899   4.412  1.9103  0.4072  1.3524
18980TIP3   OH278354   0.597   4.671   2.469 -0.0559 -0.1363 -0.1975
18980TIP3    H178355   0.646   4.589   2.478 -0.9739 -0.6562  0.1289
18980TIP3    H278356   0.564   4.669   2.379  0.6437  0.2893 -0.4690
18981TIP3   OH278357   6.103   4.944   3.860  0.5711  0.0513 -0.2676
18981TIP3    H178358   6.078   4.934   3.952 -0.0060  1.7147 -0.2344
18981TIP3    H278359   6.033   4.899   3.812  0.3576  0.0384  0.0543
18982TIP3   OH278360   5.599   5.079  13.662  0.6254 -0.6446 -0.4297
18982TIP3    H178361   5.560   5.010  13.716  1.1664 -0.3951  0.2812
18982TIP3    H278362   5.591   5.046  13.573  1.1925 -1.8018 -0.0716
18983TIP3   OH278363   1.873   3.599   2.561  0.2000  0.1192  0.4250
18983TIP3    H178364   1.936   3.650   2.509  0.5672 -0.1130  0.6378
18983TIP3    H278365   1.904   3.508   2.554  1.0170  0.2488  2.1314
18984TIP3   OH278366   3.983   1.982   5.357  0.3908  0.1878  0.0676
18984TIP3    H178367   4.057   2.032   5.391 -0.4610  2.5804 -1.4430
18984TIP3    H278368   4.013   1.891   5.356  2.7081  0.9188  0.9997
18985TIP3   OH278369   6.825   3.287   4.597  0.6312  0.3642  0.0276
18985TIP3    H178370   6.872   3.366   4.571  0.4686  0.1555 -0.9227
18985TIP3    H278371   6.893   3.230   4.633  0.7875  0.8429  0.4860
18986TIP3   OH278372   5.431   4.184   3.606  0.3637  0.0595 -0.2630
18986TIP3    H178373   5.410   4.107   3.659  0.0541 -0.3071 -0.9221
18986TIP3    H278374   5.381   4.255   3.647 -0.2435 -0.3176 -0.3438
18987TIP3   OH278375   0.842   4.462   2.764  0.7482  0.0083 -0.6102
18987TIP3    H178376   0.891   4.481   2.684 -0.7983  0.7752 -1.4000
18987TIP3    H278377   0.789   4.540   2.779 -1.6675 -1.5590 -0.8566
18988TIP3   OH278378   4.514   1.994   4.668  0.1801  0.1574 -0.3795
18988TIP3    H178379   4.424   2.012   4.698 -0.2894  0.5903 -2.0047
18988TIP3    H278380   4.542   1.920   4.722 -1.7416 -1.0228 -0.9325
18989TIP3   OH278381   5.467   2.726   3.770 -0.2977  0.0821 -0.6041
18989TIP3    H178382   5.423   2.811   3.767 -1.8237 -0.7129 -1.3938
18989TIP3    H278383   5.450   2.693   3.858  0.0538  0.4703 -0.3916
18990TIP3   OH278384   3.616   5.690   0.602 -0.4568  0.0610  0.1003
18990TIP3    H178385   3.587   5.769   0.647  3.0163  0.6139  1.5301
18990TIP3    H278386   3.537   5.657   0.559 -2.3453  3.3822  0.7990
18991TIP3   OH278387   4.635   5.130  13.754 -0.2861  0.6568  0.2257
18991TIP3    H178388   4.661   5.149  13.844 -0.5990  2.1568  0.0106
18991TIP3    H278389   4.546   5.162  13.746  0.1605  1.6703 -0.9613
18992TIP3   OH278390   0.760   4.255   2.590 -0.1492 -0.3578 -0.1164
18992TIP3    H178391   0.705   4.266   2.512  1.4936  0.9216 -1.0962
18992TIP3    H278392   0.762   4.341   2.631  1.6915 -0.2407 -0.4521
18993TIP3   OH278393   1.586   2.804   4.599  0.5743 -0.5307  0.4459
18993TIP3    H178394   1.644   2.870   4.636  2.1648 -0.3567 -2.2338
18993TIP3    H278395   1.626   2.720   4.622  0.7170 -0.4603  0.4520
18994TIP3   OH278396   3.656   5.209   2.975 -0.2907 -0.5026  0.7161
18994TIP3    H178397   3.710   5.203   3.054  0.6623 -1.0926  0.0336
18994TIP3    H278398   3.672   5.127   2.929 -0.8443 -0.1675 -0.0854
18995TIP3   OH278399   4.280   5.944   2.069 -0.6469 -0.1467 -0.4546
18995TIP3    H178400   4.364   5.987   2.085  0.4854 -2.0760 -1.0621
18995TIP3    H278401   4.225   5.971   2.143  0.9001  0.1264  0.6194
18996TIP3   OH278402   6.579   4.303   1.913 -0.0321 -0.1877 -0.3606
18996TIP3    H178403   6.658   4.329   1.865  0.0152  0.2401 -0.0500
18996TIP3    H278404   6.603   4.313   2.006 -1.3397  2.5956 -0.2807
18997TIP3   OH278405   0.283   5.100   1.931  0.6495  0.8088  0.0819
18997TIP3    H178406   0.286   5.108   2.026  1.8796 -0.9524  0.2099
18997TIP3    H278407   0.360   5.147   1.900 -0.2740  2.2186 -0.1286
18998TIP3   OH278408   0.559   6.920   4.425  0.3092 -0.5578 -0.0919
18998TIP3    H178409   0.470   6.933   4.392  0.2742  1.2143  0.6389
18998TIP3    H278410   0.555   6.839   4.475 -1.3757  0.5130  1.5571
18999TIP3   OH278411   0.203   4.619   3.127  0.0587  0.3263 -0.4565
18999TIP3    H178412   0.166   4.531   3.123 -0.0902  0.2234  2.1710
18999TIP3    H278413   0.276   4.617   3.066  0.8423 -2.0416  0.4704
19000TIP3   OH278414   6.956   5.698   0.101  0.1138  0.2754 -0.7224
19000TIP3    H178415   6.957   5.617   0.151  0.3491  1.4098  1.1450
19000TIP3    H278416   6.877   5.692   0.047 -0.7158 -0.4956  0.5651
19001TIP3   OH278417   1.428   5.483   3.420  0.0946 -0.5192 -0.8205
19001TIP3    H178418   1.397   5.397   3.446  1.1143 -0.6396  0.0367
19001TIP3    H278419   1.433   5.479   3.324 -2.3615 -0.5250 -0.9758
19002TIP3   OH278420   5.222   1.987   4.172 -0.2837 -0.0627 -0.7312
19002TIP3    H178421   5.198   1.894   4.177  0.7040 -0.4165 -2.1695
19002TIP3    H278422   5.311   1.990   4.207 -0.5084  0.4327 -0.1934
19003TIP3   OH278423   6.680   4.643   4.677 -0.1118 -0.9174 -0.5950
19003TIP3    H178424   6.629   4.721   4.697 -2.1534 -2.3960  0.1430
19003TIP3    H278425   6.668   4.587   4.754  0.7619 -2.2397 -1.4130
19004TIP3   OH278426   4.054   2.714   3.700  0.3073  0.0067 -0.2450
19004TIP3    H178427   3.986   2.781   3.693 -0.6285 -0.9876 -0.8423
19004TIP3    H278428   4.068   2.705   3.795 -2.0843 -1.4256  0.0126
19005TIP3   OH278429   6.875   0.919   4.388  0.3878 -0.2053 -0.0812
19005TIP3    H178430   6.914   0.915   4.301 -0.3477  1.2283 -0.4848
19005TIP3    H278431   6.903   1.003   4.424 -1.4384  0.3949  0.0263
19006TIP3   OH278432   1.858   4.236   5.467 -0.2353  0.3751 -0.4134
19006TIP3    H178433   1.794   4.173   5.500  0.2473  0.1206  0.0593
19006TIP3    H278434   1.900   4.270   5.546  0.6951  0.0210 -0.7465
19007TIP3   OH278435   5.897   3.948   5.398  0.3951  0.3399 -0.4297
19007TIP3    H178436   5.842   4.020   5.430  1.2533 -0.2851  2.5828
19007TIP3    H278437   5.982   3.962   5.441  1.0357 -1.5832 -1.0377
19008TIP3   OH278438   0.123   6.967   3.060 -0.3993 -0.4202  0.3888
19008TIP3    H178439   0.028   6.974   3.072 -0.3188  0.1330  0.7387
19008TIP3    H278440   0.159   7.025   3.127  0.2285 -1.7634  1.2552
19009TIP3   OH278441   5.462   6.042   3.725  0.0568 -0.2297  0.4014
19009TIP3    H178442   5.555   6.058   3.710 -0.1211  1.2068  0.8201
19009TIP3    H278443   5.422   6.057   3.640  0.1227 -0.2196  0.3713
19010TIP3   OH278444   1.587   5.998   0.141 -0.0932  0.2264  0.1139
19010TIP3    H178445   1.653   6.066   0.153  1.4577 -1.0144 -1.2768
19010TIP3    H278446   1.630   5.917   0.168 -1.1485 -0.5573 -0.4950
19011TIP3   OH278447   6.843   2.854   3.833  0.4260 -0.0702 -0.0558
19011TIP3    H178448   6.923   2.886   3.792  1.4486  0.8502  2.5657
19011TIP3    H278449   6.781   2.926   3.824  0.4698 -0.0815 -0.4674
19012TIP3   OH278450   5.093   2.157   3.918  0.2807 -0.1754 -0.3619
19012TIP3    H178451   5.023   2.203   3.964 -0.4619  0.2642 -1.8894
19012TIP3    H278452   5.144   2.114   3.987 -1.7531 -0.8651  0.7347
19013TIP3   OH278453   5.916   5.357   4.517 -0.0507 -0.1498 -0.5676
19013TIP3    H178454   5.871   5.373   4.600 -0.3350  1.5414 -1.0276
19013TIP3    H278455   5.864   5.405   4.452  0.9966 -0.2436 -1.4864
19014TIP3   OH278456   2.546   6.227   5.291 -0.2384 -0.2090 -0.4715
19014TIP3    H178457   2.468   6.267   5.330  1.1618  1.4336  0.6946
19014TIP3    H278458   2.531   6.232   5.197 -0.9160  1.3717 -0.2919
19015TIP3   OH278459   5.748   4.315   3.389  0.4809 -0.2328 -0.2637
19015TIP3    H178460   5.794   4.394   3.359  0.3537  0.2499  0.7978
19015TIP3    H278461   5.769   4.309   3.482 -0.6117 -0.7013 -0.0462
19016TIP3   OH278462   6.273   5.114   5.138  0.0265  0.0927  0.6340
19016TIP3    H178463   6.300   5.204   5.156  0.6513  0.2771 -1.0948
19016TIP3    H278464   6.221   5.121   5.058 -0.8570 -0.9442  1.1201
19017TIP3   OH278465   0.929   0.529   2.718  0.2956 -0.0537 -0.2321
19017TIP3    H178466   0.881   0.525   2.801  0.7262  1.8128  0.1371
19017TIP3    H278467   0.974   0.613   2.720 -1.2818  0.9729 -3.2164
19018TIP3   OH278468   4.228   3.184   2.823 -1.1152  0.0555 -0.1885
19018TIP3    H178469   4.252   3.132   2.900 -3.1489 -1.2153 -0.3627
19018TIP3    H278470   4.171   3.126   2.772 -1.5034  1.6320 -1.5862
19019TIP3   OH278471   1.368   6.269   4.086 -0.1538  0.7813  0.6862
19019TIP3    H178472   1.278   6.243   4.064 -0.1231  0.6864  0.6733
19019TIP3    H278473   1.393   6.329   4.016 -0.5830  1.6323  1.2439
19020TIP3   OH278474   3.962   5.445   1.006 -0.4894 -0.3761 -0.5726
19020TIP3    H178475   4.018   5.458   0.929  0.4126  1.6330  0.3862
19020TIP3    H278476   3.885   5.500   0.990  0.9171  2.1717  1.1258
19021TIP3   OH278477   6.779   6.690   5.200  0.4298  0.0818  0.1640
19021TIP3    H178478   6.750   6.742   5.124 -1.1625  0.3248  0.9148
19021TIP3    H278479   6.854   6.738   5.235  0.6033  0.4573 -0.7118
19022TIP3   OH278480   4.752   1.950   2.634 -0.1945  0.3574  0.1648
19022TIP3    H178481   4.790   1.915   2.553 -1.2058 -0.4759  0.0451
19022TIP3    H278482   4.827   1.981   2.684  0.4680  0.5661 -0.9539
19023TIP3   OH278483   3.948   6.023   4.038 -0.7362 -0.5838  0.0421
19023TIP3    H178484   3.892   5.945   4.038 -0.8189 -0.5394  1.8478
19023TIP3    H278485   3.938   6.060   4.125 -0.0326  0.9906 -0.5207
19024TIP3   OH278486   1.536   6.103   5.400 -0.1717 -0.0755 -0.1400
19024TIP3    H178487   1.616   6.115   5.350 -1.5227  1.0915 -2.0913
19024TIP3    H278488   1.548   6.156   5.479  0.7013  0.6431 -0.7484
19025TIP3   OH278489   1.130   3.088   5.652 -0.4030  0.0054 -0.2249
19025TIP3    H178490   1.041   3.063   5.626 -0.6134 -1.1781  1.5080
19025TIP3    H278491   1.125   3.099   5.747  1.2410  0.1825 -0.1430
19026TIP3   OH278492   5.501   4.636   4.327 -0.2415 -0.1821  0.5422
19026TIP3    H178493   5.481   4.585   4.249  0.7294 -1.2338  0.9608
19026TIP3    H278494   5.594   4.619   4.344  0.0041  1.3897  0.9441
19027TIP3   OH278495   6.562   5.027   0.881  0.1639  0.4553 -0.1753
19027TIP3    H178496   6.605   5.111   0.900  0.4836  0.5900 -1.4430
19027TIP3    H278497   6.546   5.029   0.787  1.4396 -1.5000 -0.4653
19028TIP3   OH278498   4.330   3.442   3.375 -0.1918 -0.3107 -0.5891
19028TIP3    H178499   4.370   3.528   3.377  0.7635 -0.7624  0.2905
19028TIP3    H278500   4.353   3.403   3.459 -1.6790 -0.9474 -0.4652
19029TIP3   OH278501   4.928   2.942   3.931  0.3927 -0.4537  0.1408
19029TIP3    H178502   4.870   2.901   3.866  1.2434 -1.3715 -0.0532
19029TIP3    H278503   4.878   2.938   4.012 -0.5027  0.3024 -0.3624
19030TIP3   OH278504   4.462   3.094   4.250  0.2199 -0.2556 -0.2655
19030TIP3    H178505   4.519   3.097   4.173  0.3419 -0.8768 -0.2035
19030TIP3    H278506   4.521   3.094   4.324  0.1136 -0.0696 -0.1805
19031TIP3   OH278507   4.869   0.021   0.179 -0.5251 -0.4521 -0.1575
19031TIP3    H178508   4.858  -0.066   0.216 -0.2179 -0.0320  0.9665
19031TIP3    H278509   4.779   0.054   0.169 -0.6055 -0.4419  0.5571
19032TIP3   OH278510   1.382   5.282  14.382  0.1773  0.1237 -0.6988
19032TIP3    H178511   1.421   5.355  14.431  0.8347 -0.4644 -0.3345
19032TIP3    H278512   1.417   5.292  14.293 -2.2630  2.1185 -1.4782
19033TIP3   OH278513   0.146   0.758   4.528 -0.2006 -0.2131 -0.1501
19033TIP3    H178514   0.152   0.851   4.510  1.6921 -0.2088  0.3114
19033TIP3    H278515   0.097   0.721   4.454  0.9545  0.8410 -1.4649
19034TIP3   OH278516   5.411   2.151   3.970 -0.9292 -0.6280  0.1572
19034TIP3    H178517   5.380   2.211   4.038 -0.4071  1.0384 -1.0514
19034TIP3    H278518   5.344   2.157   3.901 -0.2493 -0.4897 -0.4936
19035TIP3   OH278519   6.698   3.874   5.396 -0.4756 -0.2453  0.6670
19035TIP3    H178520   6.658   3.943   5.449 -0.2815 -0.7935  1.5500
19035TIP3    H278521   6.791   3.878   5.419 -0.0722  0.7469 -1.0509
19036TIP3   OH278522   1.959   0.557   3.447  0.2546  0.2483  0.0599
19036TIP3    H178523   2.041   0.553   3.397 -0.9901  0.0857 -2.0214
19036TIP3    H278524   1.959   0.478   3.501  1.3010  0.0866 -0.1646
19037TIP3   OH278525   5.706   1.662   2.439 -0.0498  0.0102  0.1544
19037TIP3    H178526   5.752   1.697   2.364 -1.1616  0.0342 -0.5318
19037TIP3    H278527   5.721   1.568   2.436  0.9199  0.1451  0.6100
19038TIP3   OH278528   6.891   1.626   5.235  0.1771  0.5577  0.2708
19038TIP3    H178529   6.853   1.665   5.314 -0.5623 -1.7873  1.0993
19038TIP3    H278530   6.977   1.594   5.263 -1.2583 -2.9130  0.9509
19039TIP3   OH278531   4.658   3.435   4.521 -0.2787  0.3750  0.0048
19039TIP3    H178532   4.708   3.386   4.587  0.1445 -0.7893 -1.1631
19039TIP3    H278533   4.724   3.487   4.475 -0.5359  0.9592  0.2882
19040TIP3   OH278534   4.503   3.661   3.605  0.3792 -0.2798 -0.4553
19040TIP3    H178535   4.519   3.742   3.652 -1.4042  0.3443 -0.9001
19040TIP3    H278536   4.440   3.613   3.659  1.1292 -1.1954 -0.3840
19041TIP3   OH278537   5.645   1.993   5.089  0.1559 -0.4375 -0.2953
19041TIP3    H178538   5.638   2.040   5.173  2.1168 -0.2277 -0.2223
19041TIP3    H278539   5.677   1.906   5.114 -2.1586 -1.3708 -0.5589
19042TIP3   OH278540   5.111   0.567   2.863  0.0953 -0.0268 -0.2836
19042TIP3    H178541   5.118   0.476   2.892  1.6342  0.9336  2.5855
19042TIP3    H278542   5.106   0.562   2.767  0.0381 -3.1172 -0.1589
19043TIP3   OH278543   0.288   5.482   3.794  0.6624 -0.0738 -0.1166
19043TIP3    H178544   0.228   5.414   3.763  0.9160 -0.4986  0.3151
19043TIP3    H278545   0.285   5.475   3.889  1.2243  0.0579 -0.0907
19044TIP3   OH278546   6.752   3.148   4.952  0.2020  0.3195 -0.2439
19044TIP3    H178547   6.683   3.161   4.887 -1.0966  3.7289  1.6770
19044TIP3    H278548   6.712   3.093   5.019 -0.1963  1.0216  0.1102
19045TIP3   OH278549   5.697   7.130   5.256 -0.3967 -0.2480 -0.3244
19045TIP3    H178550   5.695   7.189   5.332 -0.5744  1.9491 -1.9560
19045TIP3    H278551   5.663   7.184   5.185  0.0735 -2.1681 -2.0199
19046TIP3   OH278552   5.205   5.654   3.052  0.5595  0.5279 -0.0298
19046TIP3    H178553   5.217   5.748   3.039  1.0105  0.2950 -1.4439
19046TIP3    H278554   5.293   5.619   3.062  0.3039  0.4632  2.2514
19047TIP3   OH278555   0.745   0.851   3.792  0.5316 -0.7530  0.1266
19047TIP3    H178556   0.824   0.827   3.840  2.9327  3.4282 -1.4709
19047TIP3    H278557   0.725   0.940   3.822 -1.0030 -0.0879 -2.6694
19048TIP3   OH278558   4.618   5.459   4.765 -0.2201 -0.0529 -0.5649
19048TIP3    H178559   4.600   5.374   4.804 -1.0937 -0.0178 -0.8885
19048TIP3    H278560   4.534   5.489   4.731  0.8245 -0.9219 -4.1514
19049TIP3   OH278561   4.101   1.104   2.673 -0.0468 -0.8019  0.1336
19049TIP3    H178562   4.155   1.114   2.751  0.4468  2.3264 -0.5315
19049TIP3    H278563   4.141   1.162   2.608 -2.3874 -0.7651 -1.3513
19050TIP3   OH278564   6.473   0.403   1.703  0.1940 -0.0526 -0.0511
19050TIP3    H178565   6.405   0.426   1.766  1.5880  0.0861  1.4370
19050TIP3    H278566   6.469   0.307   1.697 -0.2490 -0.0310 -0.0914
19051TIP3   OH278567   6.273   5.391   4.137 -0.0968 -0.2367  0.2395
19051TIP3    H178568   6.304   5.300   4.136 -0.5126 -0.3781 -0.8192
19051TIP3    H278569   6.207   5.393   4.206 -2.2631 -1.4979 -1.7269
19052TIP3   OH278570   4.671   0.169   2.369  0.3613  0.5715 -0.4347
19052TIP3    H178571   4.592   0.207   2.408  1.8018  1.6569  1.5560
19052TIP3    H278572   4.696   0.100   2.430  2.0103  1.5075 -0.0400
19053TIP3   OH278573   4.609   3.299   5.493 -0.4287 -0.4952 -0.7336
19053TIP3    H178574   4.619   3.383   5.539 -0.9062 -0.7152 -0.2154
19053TIP3    H278575   4.552   3.320   5.419  1.2083  0.0808 -1.8378
19054TIP3   OH278576   0.560   1.119   1.480 -0.2256 -0.4771 -0.2387
19054TIP3    H178577   0.488   1.097   1.540 -0.1072  0.7565  0.3764
19054TIP3    H278578   0.623   1.049   1.491 -1.3631 -1.6023 -0.8209
19055TIP3   OH278579   6.623   2.018   2.699 -0.0285 -0.1164 -0.0452
19055TIP3    H178580   6.657   1.966   2.772  1.5180  0.8666 -0.0399
19055TIP3    H278581   6.528   2.007   2.704  0.0832 -0.4560  1.8258
19056TIP3   OH278582   5.069   2.335   5.593  0.5582  0.2026 -0.2603
19056TIP3    H178583   5.038   2.291   5.672  0.0369 -0.3237 -0.7460
19056TIP3    H278584   5.144   2.283   5.564  0.6443  0.2964 -0.2054
19057TIP3   OH278585   2.845   4.311   2.363 -0.4643 -0.4739 -0.5978
19057TIP3    H178586   2.919   4.292   2.421 -0.2259  0.7960 -0.4841
19057TIP3    H278587   2.857   4.252   2.288  1.5554  0.8862 -1.3672
19058TIP3   OH278588   1.421   3.745   5.486 -0.1568 -0.2156  0.5352
19058TIP3    H178589   1.399   3.829   5.525 -0.0181 -0.3401  0.8893
19058TIP3    H278590   1.484   3.706   5.547 -1.1621 -1.1165  1.0198
19059TIP3   OH278591   0.259   3.277   2.264  0.1114 -0.2768 -0.7522
19059TIP3    H178592   0.319   3.283   2.189  2.3825 -0.8263  0.9759
19059TIP3    H278593   0.243   3.183   2.274  0.9185 -0.3057  0.2961
19060TIP3   OH278594   6.815   5.305   4.300 -0.0028 -0.1590  0.1604
19060TIP3    H178595   6.761   5.384   4.290  1.0694  0.5557 -0.0400
19060TIP3    H278596   6.807   5.281   4.393 -2.5847 -1.4598 -0.3521
19061TIP3   OH278597   0.237   2.605   2.842  0.1849 -0.2611  0.0346
19061TIP3    H178598   0.288   2.529   2.871  0.5605 -0.6590 -1.6350
19061TIP3    H278599   0.146   2.576   2.847  0.3853 -1.2972 -1.8530
19062TIP3   OH278600   5.599   6.028   3.259  0.2892  0.0731  0.0953
19062TIP3    H178601   5.538   6.098   3.280  0.9658  1.0017 -1.0074
19062TIP3    H278602   5.557   5.980   3.187  0.8638  0.7191 -0.6708
19063TIP3   OH278603   2.799   1.689   2.553 -0.0608  0.2004  0.3138
19063TIP3    H178604   2.712   1.720   2.579  0.1878  0.1398  1.2664
19063TIP3    H278605   2.827   1.749   2.484 -1.4226 -0.6107 -0.9704
19064TIP3   OH278606   3.215   2.894   4.522 -0.4911  0.5257  0.2438
19064TIP3    H178607   3.197   2.926   4.610 -0.1150  0.9025  0.1835
19064TIP3    H278608   3.162   2.815   4.514  0.5891 -0.3278  1.3391
19065TIP3   OH278609   6.410   1.441   5.438 -0.0714  0.1816  0.1679
19065TIP3    H178610   6.420   1.503   5.511  0.3564 -0.1477  0.3942
19065TIP3    H278611   6.324   1.401   5.453  0.1332 -0.0869  0.6536
19066TIP3   OH278612   3.439   3.915   3.958  0.7692  0.2294  0.4312
19066TIP3    H178613   3.370   3.915   3.892  1.8963 -0.7690 -0.7625
19066TIP3    H278614   3.392   3.912   4.041 -0.6294 -1.7009 -0.3804
19067TIP3   OH278615   1.032   6.166   3.013  0.2202 -0.0687 -0.2375
19067TIP3    H178616   1.087   6.214   2.952  0.1783 -0.1889 -0.3690
19067TIP3    H278617   0.943   6.192   2.991  0.3207  1.9221  1.4739
19068TIP3   OH278618   6.008   5.812   4.787  0.2264  0.3376  0.2312
19068TIP3    H178619   5.951   5.862   4.846  1.0500  0.6402  0.7816
19068TIP3    H278620   5.956   5.800   4.708 -1.2583 -0.8747  1.3538
19069TIP3   OH278621   6.810   0.728   2.769 -0.0235  0.2106  0.7252
19069TIP3    H178622   6.730   0.750   2.817  0.7536 -0.7983  2.5272
19069TIP3    H278623   6.809   0.632   2.765  0.3735  0.2547 -0.5104
19070TIP3   OH278624   3.104   6.434   2.629  0.4752  0.3300  0.5273
19070TIP3    H178625   3.102   6.522   2.592 -1.3588  0.9008  1.8937
19070TIP3    H278626   3.177   6.435   2.690  0.3857  0.9490  0.6255
19071TIP3   OH278627   5.374   5.350   1.368  0.1822  0.4440 -0.0169
19071TIP3    H178628   5.332   5.335   1.284  0.9291 -0.8781 -0.1688
19071TIP3    H278629   5.327   5.425   1.405 -0.0055  1.1853 -1.6970
19072TIP3   OH278630   3.151   1.301   3.791 -0.7479  0.1640  0.7506
19072TIP3    H178631   3.064   1.303   3.831 -1.0360 -0.4998  0.1575
19072TIP3    H278632   3.163   1.389   3.756 -1.6264 -0.0618 -0.1201
19073TIP3   OH278633   3.551   6.988   4.633 -0.1320  0.1856 -0.3079
19073TIP3    H178634   3.566   6.931   4.708 -0.9635  1.4702  0.8697
19073TIP3    H278635   3.457   6.980   4.615 -0.2971  1.3318  0.0071
19074TIP3   OH278636   2.930   4.348   3.968  0.1569 -0.0590  0.6562
19074TIP3    H178637   2.955   4.255   3.967  0.7984  0.0943 -2.4673
19074TIP3    H278638   3.013   4.395   3.970  0.1477  0.4187 -4.2945
19075TIP3   OH278639   5.060   6.516   1.601 -0.2088 -0.6097  0.2510
19075TIP3    H178640   5.108   6.533   1.682 -1.0529 -0.6757  0.7742
19075TIP3    H278641   5.030   6.602   1.572 -0.4628 -0.6602  0.3623
19076TIP3   OH278642   5.264   5.725   3.626 -0.4171 -0.0581 -0.3161
19076TIP3    H178643   5.277   5.780   3.703 -0.1144 -0.5994  0.0208
19076TIP3    H278644   5.202   5.775   3.571 -1.9426 -0.4362  1.0278
19077TIP3   OH278645   2.985   1.372   4.559 -0.1358 -1.1024  0.2644
19077TIP3    H178646   2.986   1.467   4.576  0.8547 -1.1743  0.6520
19077TIP3    H278647   2.988   1.332   4.646 -1.3579 -1.4990  0.1305
19078TIP3   OH278648   0.093   6.205   3.196  0.0084 -0.3257  0.0214
19078TIP3    H178649   0.092   6.274   3.130 -0.2128 -2.2649 -2.0731
19078TIP3    H278650   0.115   6.126   3.147  2.1010 -1.4534  2.6791
19079TIP3   OH278651   5.282   5.885   0.185  0.0343 -0.7017  0.1338
19079TIP3    H178652   5.187   5.886   0.169  0.4241  0.7765 -2.3177
19079TIP3    H278653   5.292   5.923   0.272 -1.5445  0.3904 -0.1429
19080TIP3   OH278654   0.446   3.433   3.036  0.1978  0.2434 -1.1247
19080TIP3    H178655   0.498   3.504   3.073  1.1280 -1.4737  0.9724
19080TIP3    H278656   0.362   3.438   3.081  0.0414  0.3644 -1.4228
19081TIP3   OH278657   1.290   5.746   5.397  0.0331  0.5254  0.3931
19081TIP3    H178658   1.237   5.676   5.358  0.8116  0.2678 -0.2058
19081TIP3    H278659   1.287   5.728   5.491  2.4116 -1.9302  0.0749
19082TIP3   OH278660   4.658   0.369   2.713  0.4111 -0.9338  0.6334
19082TIP3    H178661   4.595   0.308   2.674  0.6139  0.0103 -1.1794
19082TIP3    H278662   4.617   0.455   2.703  2.4198 -0.1994 -1.4230
19083TIP3   OH278663   1.295   1.688   5.964 -0.2142  0.0891  0.2190
19083TIP3    H178664   1.340   1.656   5.886 -1.5574  1.2348 -1.0663
19083TIP3    H278665   1.255   1.611   6.003  0.4628 -0.4948 -0.2329
19084TIP3   OH278666   6.090   3.397   0.576  0.0771  0.5424 -0.1820
19084TIP3    H178667   6.151   3.404   0.502  1.3409 -0.1277  0.7937
19084TIP3    H278668   6.016   3.453   0.550 -1.3651 -2.7362 -3.7360
19085TIP3   OH278669   1.269   6.901   5.917  0.1405  0.1265  0.4286
19085TIP3    H178670   1.177   6.898   5.891 -0.6348 -0.0029  3.0826
19085TIP3    H278671   1.295   6.992   5.905 -0.4327  0.2333  0.0016
19086TIP3   OH278672   7.065   3.006   2.261 -0.4212 -0.1002  0.7940
19086TIP3    H178673   7.157   2.979   2.268 -0.7257 -3.1292 -4.5288
19086TIP3    H278674   7.064   3.072   2.193 -2.0752  0.8530  1.7102
19087TIP3   OH278675   1.192   1.133   3.478 -0.3143 -0.7560 -0.6566
19087TIP3    H178676   1.196   1.173   3.391  0.4184  2.3097  0.7080
19087TIP3    H278677   1.119   1.177   3.521  1.0877 -0.1945  1.2185
19088TIP3   OH278678   3.864   2.360  13.965  0.1517  0.8781 -0.0150
19088TIP3    H178679   3.940   2.385  13.912  1.1125  0.8506  1.3153
19088TIP3    H278680   3.813   2.441  13.972  0.3829  1.0590 -0.3960
19089TIP3   OH278681   5.414   2.256  14.280 -0.6325  0.2854  0.4935
19089TIP3    H178682   5.392   2.187  14.343  0.4848  0.0506  0.6448
19089TIP3    H278683   5.454   2.209  14.206  0.7615  0.8272  0.8900
19090TIP3   OH278684   5.302   3.938   4.456  0.5477  0.1261 -0.2556
19090TIP3    H178685   5.218   3.895   4.446  0.7168 -0.3305  0.3173
19090TIP3    H278686   5.342   3.897   4.532  0.6990  1.3084  0.3153
19091TIP3   OH278687   0.223   0.630   4.126 -0.5212 -0.9888 -0.2630
19091TIP3    H178688   0.139   0.641   4.170 -1.1414 -1.3869 -1.3252
19091TIP3    H278689   0.241   0.536   4.132  0.5653 -0.7093  1.2259
19092TIP3   OH278690   2.061   6.459   5.242  0.2569  0.3405 -0.0880
19092TIP3    H178691   2.041   6.422   5.328  0.2120  0.6081  0.0156
19092TIP3    H278692   2.114   6.392   5.199  2.2209  1.1683  1.0029
19093TIP3   OH278693   0.928   3.492   4.607  0.2097 -0.1352  0.4332
19093TIP3    H178694   0.956   3.505   4.697  1.2582 -0.9981  0.2485
19093TIP3    H278695   0.921   3.397   4.597  0.7734 -0.0856 -0.5737
19094TIP3   OH278696   4.693   0.993  13.192  0.2856 -0.5104  0.1547
19094TIP3    H178697   4.601   0.973  13.213 -0.2452 -0.0299 -1.6328
19094TIP3    H278698   4.716   0.931  13.124  1.3470 -0.7106  0.6934
19095TIP3   OH278699   3.539   4.888   5.091  0.1962  0.1082 -0.1382
19095TIP3    H178700   3.510   4.813   5.039  1.0606 -1.5745  1.7377
19095TIP3    H278701   3.612   4.854   5.143 -0.3232  1.8595  1.7897
19096TIP3   OH278702   0.925   3.075   3.259  0.0766  0.1626 -0.2314
19096TIP3    H178703   0.993   3.139   3.237 -0.6465  0.8862 -0.3675
19096TIP3    H278704   0.847   3.105   3.212 -0.3618 -0.6250 -0.0173
19097TIP3   OH278705   5.990   4.341   5.577 -0.2168 -0.7803 -0.1615
19097TIP3    H178706   6.062   4.317   5.635 -0.4654 -0.7217  0.1724
19097TIP3    H278707   5.984   4.436   5.583  1.0818 -0.5669 -1.8617
19098TIP3   OH278708   4.839   4.633   4.562  0.1436  0.1403 -0.0001
19098TIP3    H178709   4.910   4.691   4.589  0.7742 -1.0561  0.9346
19098TIP3    H278710   4.765   4.658   4.617 -0.3626  1.7942 -1.3888
19099TIP3   OH278711   2.399   6.098   4.051  0.0461  0.1366 -0.1256
19099TIP3    H178712   2.360   6.164   3.993  0.7840  1.1096  0.4647
19099TIP3    H278713   2.445   6.038   3.992 -0.6837  0.1014 -0.6728
19100TIP3   OH278714   0.451   6.094   5.951 -0.7711 -0.5685 -0.3276
19100TIP3    H178715   0.400   6.042   5.890 -0.2108 -2.5091  0.7959
19100TIP3    H278716   0.511   6.031   5.992  1.9147  1.4553 -0.9690
19101TIP3   OH278717   1.902   2.417   0.846 -0.1091  0.8009 -0.3655
19101TIP3    H178718   1.917   2.501   0.803  0.3268  1.0142  0.2001
19101TIP3    H278719   1.983   2.400   0.895  0.0355 -0.2226 -0.9386
19102TIP3   OH278720   6.500   6.990   4.109  0.0550  0.1304  0.1256
19102TIP3    H178721   6.515   7.069   4.058  1.0318 -0.0654  0.1014
19102TIP3    H278722   6.409   6.967   4.091  0.8614 -0.9388 -2.9550
19103TIP3   OH278723   5.400   4.740   3.257 -0.1553  0.0921  0.4318
19103TIP3    H178724   5.336   4.707   3.320  0.0383 -1.4268 -0.1628
19103TIP3    H278725   5.379   4.696   3.175 -1.0453  2.8142 -0.8837
19104TIP3   OH278726   2.551   2.071   3.827 -0.3389 -0.5160  0.4066
19104TIP3    H178727   2.519   2.156   3.797  0.7916  0.4282  1.8033
19104TIP3    H278728   2.475   2.030   3.868 -1.7030 -1.5101 -2.9693
19105TIP3   OH278729   3.192   4.855   4.278 -0.2607  0.0170 -0.2042
19105TIP3    H178730   3.267   4.915   4.281  0.4790 -0.9150  0.2553
19105TIP3    H278731   3.130   4.890   4.343  0.4796 -0.1221  0.5844
19106TIP3   OH278732   6.255   4.260   4.226 -0.3828  0.0686  0.9065
19106TIP3    H178733   6.242   4.291   4.136 -1.8833  1.3345  1.5323
19106TIP3    H278734   6.346   4.283   4.246  0.4190 -1.5430 -0.7691
19107TIP3   OH278735   0.961   2.671   3.036  0.0998  0.1803 -0.3317
19107TIP3    H178736   0.943   2.754   3.079  1.0652  0.0451  0.3472
19107TIP3    H278737   1.056   2.665   3.035  0.0492 -0.5093 -1.1662
19108TIP3   OH278738   1.519   7.051   4.362  0.4499 -0.0299  0.3053
19108TIP3    H178739   1.530   7.146   4.362 -0.6428  0.1079 -0.6217
19108TIP3    H278740   1.550   7.023   4.448  0.1203  1.2457  0.8490
19109TIP3   OH278741   6.179   1.477   1.155 -0.0645 -0.1077  0.0481
19109TIP3    H178742   6.198   1.443   1.068 -2.2969 -0.0342 -0.4821
19109TIP3    H278743   6.265   1.505   1.189  0.5836  1.5930 -2.8467
19110TIP3   OH278744   1.467   6.595   5.290  0.3630  0.0973 -1.1172
19110TIP3    H178745   1.391   6.565   5.339 -0.2214  1.5137 -1.1252
19110TIP3    H278746   1.452   6.689   5.277  1.7725  0.2575 -1.7267
19111TIP3   OH278747   6.077   0.143   4.993 -0.1626  0.9705  0.5304
19111TIP3    H178748   6.028   0.148   5.075 -0.1815  1.7217  0.4774
19111TIP3    H278749   6.159   0.099   5.017 -0.5864  0.2855  0.7467
19112TIP3   OH278750   3.374   3.385   4.145  0.3584 -0.3261 -0.1930
19112TIP3    H178751   3.385   3.472   4.184  1.1920 -0.6011  0.2132
19112TIP3    H278752   3.452   3.375   4.089  0.8208 -1.2493  0.6143
19113TIP3   OH278753   6.067   3.678   2.928 -0.6807  0.0628  0.6104
19113TIP3    H178754   5.985   3.641   2.960 -1.0718  0.1541 -0.2715
19113TIP3    H278755   6.098   3.616   2.862 -1.1291  1.0842 -0.5854
19114TIP3   OH278756   3.407   2.278   2.878 -0.0316 -0.1914  0.0443
19114TIP3    H178757   3.365   2.193   2.880  2.0763 -1.2873 -0.6587
19114TIP3    H278758   3.462   2.281   2.956  0.0561  0.4509 -0.0318
19115TIP3   OH278759   0.871   3.164   3.520  0.1050  0.1901  0.2438
19115TIP3    H178760   0.776   3.159   3.522  0.0655  1.0670  0.7165
19115TIP3    H278761   0.896   3.121   3.437 -0.7611  0.9893 -0.4377
19116TIP3   OH278762   3.421   6.492   3.371 -0.1182 -0.2071 -0.0934
19116TIP3    H178763   3.345   6.463   3.320  0.8348  1.5151 -2.6285
19116TIP3    H278764   3.491   6.432   3.345  0.1918  0.2277 -0.2714
19117TIP3   OH278765   2.054   3.471  15.360  0.1556  0.1939  0.1919
19117TIP3    H178766   2.080   3.520  15.438  1.2654 -1.7918  1.1045
19117TIP3    H278767   2.086   3.382  15.375 -1.7086 -0.8178 -1.4776
19118TIP3   OH278768   2.200   1.146   2.168  0.2063 -0.3078 -0.1976
19118TIP3    H178769   2.126   1.105   2.214 -0.4835  1.2993  0.1487
19118TIP3    H278770   2.196   1.109   2.080  0.0040 -1.5008  0.2932
19119TIP3   OH278771   3.833   6.123   4.307 -0.1292 -0.7101 -0.3353
19119TIP3    H178772   3.753   6.072   4.301 -0.5861 -0.1142  0.5388
19119TIP3    H278773   3.804   6.212   4.326  0.7582 -0.6536  0.8521
19120TIP3   OH278774   5.379   5.731   4.185 -0.3847 -0.1879  0.1418
19120TIP3    H178775   5.304   5.704   4.132  0.3379 -0.8357 -0.5766
19120TIP3    H278776   5.427   5.650   4.201  0.7577  0.3857 -0.3479
19121TIP3   OH278777   6.730   6.398   4.556  0.2083 -0.2432  0.3151
19121TIP3    H178778   6.679   6.465   4.601 -0.6251 -0.3470 -0.4372
19121TIP3    H278779   6.819   6.431   4.555 -0.2311  0.9304 -0.1856
19122TIP3   OH278780   5.696   0.294   5.369 -0.0625  0.2470 -1.2575
19122TIP3    H178781   5.606   0.286   5.337 -0.1798 -0.4124 -0.7776
19122TIP3    H278782   5.704   0.225   5.435 -0.0829  2.1568  0.7788
19123TIP3   OH278783   0.680   6.888   5.427  0.3575  0.3570 -0.1395
19123TIP3    H178784   0.753   6.826   5.416 -0.0710 -0.3886  1.1260
19123TIP3    H278785   0.683   6.911   5.520 -2.6014 -1.6867  0.5293
19124TIP3   OH278786   6.786   1.257   3.593  0.0121 -0.2414  0.0258
19124TIP3    H178787   6.700   1.231   3.559 -0.9872  0.4042  1.9914
19124TIP3    H278788   6.799   1.345   3.557 -1.0946  0.4870  1.3469
19125TIP3   OH278789   0.354   4.154   3.388 -0.3257  0.1641  0.1338
19125TIP3    H178790   0.385   4.166   3.298 -0.6065  2.4994  0.3106
19125TIP3    H278791   0.377   4.237   3.431 -0.7502 -0.7066  2.0452
19126TIP3   OH278792   6.190   6.573   3.583 -0.1387  0.1582  0.1118
19126TIP3    H178793   6.285   6.582   3.578 -0.0637 -0.7552 -0.2152
19126TIP3    H278794   6.157   6.638   3.520  0.2373  1.0007  0.7742
19127TIP3   OH278795   5.616   4.019   1.939 -0.3213 -0.0731 -0.2437
19127TIP3    H178796   5.660   3.949   1.986  0.8998  1.2216  0.5609
19127TIP3    H278797   5.539   4.039   1.992 -0.9252 -1.0742 -0.7065
19128TIP3   OH278798   1.598   5.448   4.621 -0.3957 -0.0098  0.3593
19128TIP3    H178799   1.650   5.499   4.558 -0.9563 -1.0339 -0.9623
19128TIP3    H278800   1.635   5.360   4.616  0.0255  0.0563  2.0163
19129TIP3   OH278801   0.168   4.308   5.434  0.4458  0.0324  0.1438
19129TIP3    H178802   0.151   4.402   5.441  0.4641  0.1569 -1.3351
19129TIP3    H278803   0.205   4.284   5.519  1.0985  1.4966  0.2816
19130TIP3   OH278804   1.355   4.937   0.714  0.0846 -0.2018 -0.2355
19130TIP3    H178805   1.278   4.988   0.691  1.0215  1.1685 -0.3821
19130TIP3    H278806   1.427   4.979   0.666  1.1732 -0.5593  1.0632
19131TIP3   OH278807   6.282   0.402   2.884 -0.0819  0.2439  0.1749
19131TIP3    H178808   6.204   0.347   2.872  0.6050 -0.6410 -0.2895
19131TIP3    H278809   6.351   0.340   2.907  0.0068  1.2557  2.7583
19132TIP3   OH278810   4.527   4.295   4.628  0.1323 -0.0527  0.3846
19132TIP3    H178811   4.623   4.298   4.625  0.0964 -0.0917 -1.7450
19132TIP3    H278812   4.507   4.224   4.689  1.4640 -0.1250  0.7490
19133TIP3   OH278813   0.732   6.836   4.036 -0.6128 -0.6209 -0.2784
19133TIP3    H178814   0.806   6.833   3.975  0.2656  0.0739  0.7342
19133TIP3    H278815   0.771   6.856   4.121 -1.9183 -0.6824  0.3549
19134TIP3   OH278816   0.067   0.001   5.282 -0.5572 -0.4574  0.2974
19134TIP3    H178817   0.133   0.035   5.222 -0.3021 -2.8539 -0.8521
19134TIP3    H278818   0.036  -0.080   5.241 -2.8945 -0.3469  1.7143
19135TIP3   OH278819   5.401   5.037   4.834  0.0141  0.1931  0.0061
19135TIP3    H178820   5.404   4.942   4.844  2.1056  0.2833  0.6640
19135TIP3    H278821   5.408   5.052   4.740  3.5150 -0.2941  0.0951
19136TIP3   OH278822   6.228   6.237   5.299 -0.0608  0.0664 -0.1462
19136TIP3    H178823   6.322   6.220   5.290 -0.1994 -1.9553  1.8914
19136TIP3    H278824   6.223   6.311   5.359  0.2778  2.2352 -2.6884
19137TIP3   OH278825   0.923   6.285   1.463 -0.1315 -0.1474  0.4306
19137TIP3    H178826   0.881   6.273   1.378  0.4605  1.5870 -0.1144
19137TIP3    H278827   0.849   6.296   1.524 -0.5116  1.0996 -0.2431
19138TIP3   OH278828   3.558   6.062   4.231  0.0527  0.4669  0.0706
19138TIP3    H178829   3.558   6.131   4.164 -1.3607  0.7258  0.3342
19138TIP3    H278830   3.513   5.989   4.189  0.4911  0.1027  0.2251
19139TIP3   OH278831   6.315   0.635   2.213 -0.1807  0.1985 -0.5373
19139TIP3    H178832   6.350   0.595   2.293  1.8691  1.1322 -0.9400
19139TIP3    H278833   6.228   0.666   2.238 -0.2001 -0.9443  0.8819
19140TIP3   OH278834   1.149   2.519   5.330 -0.5136  0.0337 -0.1688
19140TIP3    H178835   1.107   2.605   5.335 -0.0086  0.3939 -1.7727
19140TIP3    H278836   1.147   2.497   5.237  0.7178 -1.0042  0.0335
19141TIP3   OH278837   1.490   5.395   4.271 -0.5212  0.0454 -0.2059
19141TIP3    H178838   1.399   5.421   4.278 -0.5203 -0.0945  0.3502
19141TIP3    H278839   1.511   5.403   4.178 -1.1258 -0.0185 -0.3443
19142TIP3   OH278840   1.817   5.648   4.500  0.2685  0.0500  0.2189
19142TIP3    H178841   1.727   5.671   4.476  0.4479 -0.3316 -0.8377
19142TIP3    H278842   1.856   5.731   4.528 -0.1127  0.3970 -0.2775
19143TIP3   OH278843   7.137   6.626   4.008 -0.7908  0.7914 -0.5743
19143TIP3    H178844   7.054   6.669   4.029 -2.8269 -2.8127 -0.7599
19143TIP3    H278845   7.163   6.663   3.924 -2.0666  2.2005 -0.3693
19144TIP3   OH278846   5.041   1.536   4.124 -0.0991  0.3648 -0.2924
19144TIP3    H178847   5.055   1.442   4.117 -0.4545  0.3982 -1.6015
19144TIP3    H278848   5.117   1.575   4.081 -1.6513  0.6114 -2.8903
19145TIP3   OH278849   3.485   0.966   5.860 -0.2295 -0.0147  0.1440
19145TIP3    H178850   3.395   0.977   5.828  0.1511 -0.3609 -1.0889
19145TIP3    H278851   3.529   1.046   5.834  0.3437 -0.7290 -1.1129
19146TIP3   OH278852   6.677   0.349  15.050  0.2845 -0.1122  0.3729
19146TIP3    H178853   6.718   0.397  14.978  2.6049 -1.3295  0.8269
19146TIP3    H278854   6.583   0.352  15.030  0.8366 -0.1869 -2.5740
19147TIP3   OH278855   3.644   5.611   3.855 -0.1954  0.0413  0.2898
19147TIP3    H178856   3.629   5.634   3.763  2.1538 -2.1577 -0.7189
19147TIP3    H278857   3.717   5.667   3.882  0.5715 -0.8712  0.1271
19148TIP3   OH278858   0.454   6.665   3.296 -0.4868 -0.6712  0.0957
19148TIP3    H178859   0.543   6.696   3.313 -0.0831 -2.2253  0.9363
19148TIP3    H278860   0.426   6.714   3.219  0.9137  0.2010  0.1219
19149TIP3   OH278861   3.543   3.470   5.554  0.1155 -0.6697 -0.1773
19149TIP3    H178862   3.599   3.523   5.612 -1.5577  0.5243  0.3764
19149TIP3    H278863   3.499   3.409   5.613 -1.9701  0.8770 -0.0863
19150TIP3   OH278864   4.491   7.093   5.377  0.3844 -0.7404  0.1479
19150TIP3    H178865   4.434   7.118   5.450 -0.5242 -2.0557 -0.0910
19150TIP3    H278866   4.559   7.038   5.417 -0.6346 -2.2170 -0.1170
19151TIP3   OH278867   1.379   1.216   5.943 -0.2454 -0.4819 -0.9684
19151TIP3    H178868   1.345   1.300   5.914  2.0802 -0.1430 -2.9028
19151TIP3    H278869   1.471   1.232   5.960 -0.1930 -2.2130  0.5080
19152TIP3   OH278870   5.248   6.629  15.431  0.0154 -0.0402  0.1566
19152TIP3    H178871   5.274   6.691  15.499 -1.7686  1.1232 -0.2054
19152TIP3    H278872   5.279   6.669  15.350 -1.9017  0.8363 -0.1678
19153TIP3   OH278873   5.673   5.873   2.437 -0.3340 -0.0168 -0.4200
19153TIP3    H178874   5.689   5.790   2.482 -0.7095 -0.9106 -1.8857
19153TIP3    H278875   5.725   5.938   2.485  1.3005 -1.4053 -0.2774
19154TIP3   OH278876   2.340   2.572   4.953 -0.0397  0.0410  0.0571
19154TIP3    H178877   2.386   2.546   4.874 -0.7066  1.4678 -0.8154
19154TIP3    H278878   2.374   2.659   4.974 -0.0964 -0.1945  1.1588
19155TIP3   OH278879   6.007   5.112   5.354  0.1133 -0.4779  0.2645
19155TIP3    H178880   6.090   5.127   5.307  0.2360  1.9813  1.1839
19155TIP3    H278881   6.031   5.056   5.427  0.5030 -1.7770 -0.8400
19156TIP3   OH278882   2.140   0.883   3.335  0.7007  0.3365  0.2459
19156TIP3    H178883   2.062   0.888   3.279  0.4267  2.5011  0.7619
19156TIP3    H278884   2.199   0.825   3.288  0.2742  1.6827 -2.0596
19157TIP3   OH278885   3.215   1.357   4.431  0.0065 -0.7216  0.0997
19157TIP3    H178886   3.143   1.416   4.409  0.9384  1.0060  1.5028
19157TIP3    H278887   3.179   1.299   4.498  0.1846  0.8177  1.5587
19158TIP3   OH278888   0.093   1.538   4.438 -0.1895 -0.0444  0.4579
19158TIP3    H178889   0.154   1.605   4.468  0.5930 -1.1203  1.3060
19158TIP3    H278890   0.106   1.465   4.498 -0.7801 -1.0832 -0.6556
19159TIP3   OH278891   0.877   0.918   4.554  0.1890  0.1987 -0.2732
19159TIP3    H178892   0.919   0.906   4.469 -1.1339  0.3558 -0.9616
19159TIP3    H278893   0.907   0.844   4.607 -0.4804 -0.9493 -1.4784
19160TIP3   OH278894   6.955   0.533   1.798  0.4842 -0.0334 -0.2131
19160TIP3    H178895   7.049   0.548   1.805  0.7974 -1.7339 -0.5082
19160TIP3    H278896   6.938   0.459   1.856 -0.7393  0.4922  0.1122
19161TIP3   OH278897   6.251   4.881   3.113 -0.4536  0.1465  0.3061
19161TIP3    H178898   6.222   4.818   3.047 -0.2232  0.5127 -0.1424
19161TIP3    H278899   6.327   4.924   3.074  1.2220 -1.3858  1.8034
19162TIP3   OH278900   2.953   4.409   3.659  0.0740 -0.6161  0.0124
19162TIP3    H178901   2.978   4.327   3.615  0.7034 -1.4845  1.9087
19162TIP3    H278902   2.924   4.381   3.745  0.8939  1.2263  0.9097
19163TIP3   OH278903   2.873   3.734   4.803 -0.2061 -0.3940  0.0307
19163TIP3    H178904   2.798   3.692   4.844  0.3358 -1.8328 -0.4312
19163TIP3    H278905   2.845   3.755   4.715 -0.3953 -0.0144  0.1815
19164TIP3   OH278906   0.248   1.353   4.248  0.1095  0.2738 -0.1776
19164TIP3    H178907   0.327   1.330   4.296  0.3732  0.5980 -0.4531
19164TIP3    H278908   0.178   1.348   4.313  0.6232  1.8399  0.5153
19165TIP3   OH278909   3.851   6.103   2.483 -0.1510  0.2099 -0.4187
19165TIP3    H178910   3.773   6.159   2.487 -1.1567 -1.1739 -0.0742
19165TIP3    H278911   3.874   6.089   2.575 -0.5020 -0.7546 -0.4780
19166TIP3   OH278912   0.187   6.328   1.164  0.1724 -0.7218  0.1906
19166TIP3    H178913   0.093   6.342   1.169  0.4396  1.1952  0.5170
19166TIP3    H278914   0.201   6.239   1.196 -1.3417 -0.3755  1.8670
19167TIP3   OH278915   6.934   4.807   4.613  0.3287 -0.0488  0.1870
19167TIP3    H178916   6.956   4.731   4.559 -0.5370 -0.1324 -0.0569
19167TIP3    H278917   6.861   4.777   4.668  0.8284  0.2113  1.0118
19168TIP3   OH278918   1.505   3.585   2.715  0.0546  0.4511 -0.4206
19168TIP3    H178919   1.410   3.573   2.710 -0.1823  1.8303  0.7597
19168TIP3    H278920   1.525   3.588   2.808  0.9521  2.5506 -0.6591
19169TIP3   OH278921   4.162   0.265   4.975 -0.1187  0.1599  1.0099
19169TIP3    H178922   4.254   0.261   5.001  0.1014  0.7820  0.3297
19169TIP3    H278923   4.136   0.355   4.991 -0.5751  0.0099  1.1006
19170TIP3   OH278924   0.844   0.799   0.193 -0.2796 -0.5636 -0.1233
19170TIP3    H178925   0.847   0.855   0.271 -2.2882  0.5373 -0.8039
19170TIP3    H278926   0.798   0.720   0.222  0.7035 -0.9955  0.2920
19171TIP3   OH278927   1.332   0.519   5.455 -0.3540  0.2800  0.2182
19171TIP3    H178928   1.418   0.531   5.496 -0.5864  1.3801  0.4217
19171TIP3    H278929   1.276   0.581   5.502 -1.2405 -0.3772  0.0312
19172TIP3   OH278930   6.706   3.180   5.422 -0.1752  0.3525 -0.1643
19172TIP3    H178931   6.650   3.207   5.495  1.0867 -0.3552  1.0978
19172TIP3    H278932   6.749   3.260   5.393 -1.8227  0.9102 -1.1681
19173TIP3   OH278933   0.756   2.619   5.202  0.0410  0.0129  0.1832
19173TIP3    H178934   0.829   2.614   5.140  0.2338  0.6199  0.3559
19173TIP3    H278935   0.752   2.712   5.226  0.2258 -0.2840  1.3776
19174TIP3   OH278936   0.616   4.636   4.590 -0.3570  0.2234  0.5625
19174TIP3    H178937   0.543   4.683   4.631  0.2790  1.3921  0.3939
19174TIP3    H278938   0.653   4.699   4.528  1.2174 -0.1185  1.1452
19175TIP3   OH278939   6.877   3.735   5.192 -0.2771 -0.1748  0.3907
19175TIP3    H178940   6.799   3.771   5.235 -1.9497 -3.9793  0.7719
19175TIP3    H278941   6.951   3.767   5.244 -1.8005  0.8629  1.9707
19176TIP3   OH278942   0.791   0.732   6.090  0.0144  0.1803  0.0308
19176TIP3    H178943   0.703   0.751   6.122 -0.1175 -0.0499 -0.1977
19176TIP3    H278944   0.822   0.815   6.052 -0.4216  0.0321 -0.6421
19177TIP3   OH278945   1.246   6.887   5.556 -0.2588 -0.2615 -0.3784
19177TIP3    H178946   1.298   6.966   5.567 -0.7742 -0.0564  0.6098
19177TIP3    H278947   1.193   6.881   5.635 -1.8515 -0.3854 -1.4282
19178TIP3   OH278948   6.415   1.095   0.558  0.0931 -0.1754 -0.3163
19178TIP3    H178949   6.391   1.011   0.596  0.4166 -0.3693 -0.5354
19178TIP3    H278950   6.352   1.157   0.594 -1.3525 -0.8309 -1.6372
19179TIP3   OH278951   4.549   0.745   4.939  0.0563  0.0677 -0.7503
19179TIP3    H178952   4.643   0.754   4.921  0.0300  0.1160 -0.8621
19179TIP3    H278953   4.528   0.820   4.996  0.2021 -0.2576 -0.2667
19180TIP3   OH278954   6.338   3.979   4.256 -0.2399 -0.1719 -0.1591
19180TIP3    H178955   6.296   4.065   4.255 -1.0423 -0.5695 -1.9289
19180TIP3    H278956   6.421   3.994   4.302  0.0017  1.7377 -1.1345
19181TIP3   OH278957   1.093   6.116   4.621 -0.3903 -0.7933 -0.4629
19181TIP3    H178958   1.092   6.195   4.675 -0.1844 -0.2685 -1.2116
19181TIP3    H278959   1.057   6.048   4.677 -0.8471 -0.1026  0.1001
19182TIP3   OH278960   4.247   6.825   3.450  0.3592 -0.2056  0.4388
19182TIP3    H178961   4.318   6.878   3.487  1.2065  0.1271 -1.6052
19182TIP3    H278962   4.290   6.773   3.382 -0.9678 -1.6042  0.6525
19183TIP3   OH278963   4.239   6.834   2.562  0.8754 -0.2822 -0.2044
19183TIP3    H178964   4.270   6.912   2.608  0.4163  0.4879 -1.2102
19183TIP3    H278965   4.287   6.833   2.480  0.7185 -0.9492 -0.2939
19184TIP3   OH278966   5.311   2.052   2.858 -0.2239  0.5245  0.7589
19184TIP3    H178967   5.239   2.086   2.910 -0.5701  1.4490 -0.3016
19184TIP3    H278968   5.293   2.083   2.769  0.8048 -0.3034  0.2500
19185TIP3   OH278969   0.059   6.624   5.440  0.7985  0.2307 -0.3896
19185TIP3    H178970   0.037   6.624   5.533 -0.2068 -3.3217 -0.5442
19185TIP3    H278971  -0.006   6.682   5.400  0.8829  1.3397  1.0154
19186TIP3   OH278972   1.845   1.833   3.357  0.3495 -0.4078  0.2572
19186TIP3    H178973   1.904   1.877   3.297  1.0878 -0.9976  0.5420
19186TIP3    H278974   1.865   1.740   3.346 -1.1421 -0.6800 -0.2934
19187TIP3   OH278975   6.457   0.255   4.760  0.6702 -0.8332  0.2807
19187TIP3    H178976   6.504   0.211   4.830  1.7243  0.3737  0.3487
19187TIP3    H278977   6.438   0.342   4.795  2.6725  0.3732 -1.4997
19188TIP3   OH278978   1.485   2.307   2.418 -0.8610 -0.4007  0.1219
19188TIP3    H178979   1.490   2.356   2.500 -0.3612  1.4846 -0.9944
19188TIP3    H278980   1.396   2.324   2.386 -0.3005  0.8333 -0.8618
19189TIP3   OH278981   1.109   6.021   5.986 -0.2758 -0.2814 -0.0397
19189TIP3    H178982   1.038   5.957   5.976 -0.1057 -0.3901 -0.5638
19189TIP3    H278983   1.177   5.974   6.032  0.0272 -0.6211 -0.8212
19190TIP3   OH278984   3.481   4.757   4.055 -0.2712 -0.8847 -0.3729
19190TIP3    H178985   3.460   4.672   4.095 -2.8283 -0.6899 -1.1867
19190TIP3    H278986   3.414   4.816   4.088  0.6246  0.4828 -0.9699
19191TIP3   OH278987   0.155   2.308   5.239 -0.2464 -0.0800  0.1496
19191TIP3    H178988   0.134   2.215   5.240 -0.0827 -0.1357 -1.3460
19191TIP3    H278989   0.153   2.333   5.147  1.0457  1.0929  0.4173
19192TIP3   OH278990   3.992   4.038   3.287 -0.4590 -0.1083 -0.1694
19192TIP3    H178991   3.953   3.979   3.352 -2.0215  0.0108 -0.9728
19192TIP3    H278992   4.047   3.981   3.233 -0.4122 -0.4830  0.2706
19193TIP3   OH278993   5.891   0.987   1.501  0.0376 -0.1468 -0.0273
19193TIP3    H178994   5.815   0.963   1.554 -0.7541 -0.5909 -1.3388
19193TIP3    H278995   5.930   0.903   1.476 -1.0128 -0.0364 -2.1533
19194TIP3   OH278996   1.127   6.794   5.224  0.1793  0.4000  0.0802
19194TIP3    H178997   1.108   6.888   5.222  1.4847  0.6806  0.3795
19194TIP3    H278998   1.221   6.789   5.241 -0.2850 -0.9954  2.4365
19195TIP3   OH278999   2.263   5.738   2.107 -0.3655 -0.1147 -0.4988
19195TIP3    H179000   2.335   5.779   2.156  0.0919 -0.3446 -0.9731
19195TIP3    H279001   2.188   5.795   2.123  0.0344  0.3902 -0.3863
19196TIP3   OH279002   5.074   6.073   3.995 -0.5233 -0.4623 -0.0082
19196TIP3    H179003   5.045   6.050   4.083 -0.2557 -0.5826  0.0498
19196TIP3    H279004   5.029   6.010   3.938 -1.1889  0.0192 -0.0192
19197TIP3   OH279005   7.017   3.112   4.670  0.5913 -0.3943  0.1898
19197TIP3    H179006   7.105   3.148   4.659  0.6899 -0.7700 -0.2874
19197TIP3    H279007   7.024   3.055   4.746  0.8722 -0.7569 -0.1028
19198TIP3   OH279008   6.485   4.484   3.707  0.1178 -0.0844  0.1160
19198TIP3    H179009   6.460   4.450   3.793  0.5713 -0.5552  0.0639
19198TIP3    H279010   6.404   4.484   3.656 -0.0155 -0.4412  0.3275
19199TIP3   OH279011   0.153   6.344   4.282 -0.5647 -0.6119  0.0845
19199TIP3    H179012   0.125   6.343   4.190 -1.6405  1.6891  0.3601
19199TIP3    H279013   0.136   6.433   4.312  0.5878 -1.0887  2.2917
19200TIP3   OH279014   0.370   3.668   4.160 -0.0443  0.1567  0.3378
19200TIP3    H179015   0.314   3.693   4.086 -1.8642 -0.1904  1.5428
19200TIP3    H279016   0.320   3.599   4.205  1.6147 -0.5285  1.1527
19201TIP3   OH279017   0.547   5.835   5.542 -0.2530 -0.2727  0.5037
19201TIP3    H179018   0.511   5.833   5.631 -0.9632 -2.1628  0.1917
19201TIP3    H279019   0.641   5.851   5.555 -0.6784  1.5999  1.4664
19202TIP3   OH279020   0.787   4.316   6.146 -0.0561 -0.2296 -0.3025
19202TIP3    H179021   0.742   4.311   6.061  0.1982 -0.5956 -0.4166
19202TIP3    H279022   0.873   4.352   6.125 -1.0547  2.5990  0.2050
19203TIP3   OH279023   1.084   6.308   5.933 -0.4280  0.1724  0.0952
19203TIP3    H179024   0.989   6.316   5.944 -0.7241 -0.8176 -1.5657
19203TIP3    H279025   1.104   6.220   5.967 -0.3328 -0.1871 -0.8753
19204TIP3   OH279026   6.432   2.714   3.972  0.0356 -0.1018 -0.8012
19204TIP3    H179027   6.473   2.735   3.888 -0.1091  1.7573 -0.4407
19204TIP3    H279028   6.342   2.691   3.950  0.5003 -1.4537 -1.3247
19205TIP3   OH279029   6.457   0.944   3.269 -0.0189  0.1163  0.6075
19205TIP3    H179030   6.377   0.954   3.217 -0.8249  0.5970  1.9050
19205TIP3    H279031   6.472   0.850   3.274 -1.1740 -0.0383  1.3280
19206TIP3   OH279032   2.870   7.028   5.834 -0.0549 -0.3158  0.0304
19206TIP3    H179033   2.914   7.066   5.758 -0.5101  0.4656  0.1530
19206TIP3    H279034   2.884   6.933   5.826  1.8329 -0.0686  0.1870
19207TIP3   OH279035   4.842   1.065   4.830  0.3457 -0.1417  0.2481
19207TIP3    H179036   4.801   1.134   4.883 -0.1029  0.1325 -0.4463
19207TIP3    H279037   4.789   1.062   4.750 -1.8623 -3.7452  1.7381
19208TIP3   OH279038   0.465   5.398   4.330  0.3560 -0.4387  0.2466
19208TIP3    H179039   0.446   5.306   4.314 -0.5946 -0.4334  1.2776
19208TIP3    H279040   0.400   5.425   4.395  0.3236  1.0813 -0.4008
19209TIP3   OH279041   6.707   0.797   3.020 -0.0095 -0.2168 -0.4014
19209TIP3    H179042   6.721   0.875   3.074  0.7493 -1.0131  0.5748
19209TIP3    H279043   6.687   0.728   3.083  0.5233 -1.0793 -1.1694
19210TIP3   OH279044   5.813   3.182   1.947  0.0505  0.3267  0.1026
19210TIP3    H179045   5.833   3.131   1.869 -0.4581  1.3651 -0.7121
19210TIP3    H279046   5.888   3.240   1.958  0.9451 -1.0205  1.4184
19211TIP3   OH279047   6.492   6.046   4.861  0.1279 -0.0166  0.1815
19211TIP3    H179048   6.560   6.110   4.880  0.2211  0.1157 -0.5713
19211TIP3    H279049   6.499   5.981   4.931 -0.3520  1.0890  1.2911
19212TIP3   OH279050   4.967   5.903   3.805 -0.2924  0.2424  0.0403
19212TIP3    H179051   4.963   5.820   3.852  1.3417 -0.1156 -0.4097
19212TIP3    H279052   4.882   5.911   3.763 -0.6666 -0.9369  0.5517
19213TIP3   OH279053   3.937   6.911   4.391 -0.0584  0.3429  0.4418
19213TIP3    H179054   3.934   7.007   4.394 -0.9287  0.2897  2.1387
19213TIP3    H279055   3.901   6.884   4.476 -0.4283 -1.4937 -0.2837
19214TIP3   OH279056   0.276   6.451   3.872 -0.2486  0.1161 -0.2853
19214TIP3    H179057   0.350   6.494   3.914 -0.5149  1.7318 -1.4145
19214TIP3    H279058   0.242   6.516   3.811 -3.4840 -0.0374  1.2103
19215TIP3   OH279059   3.867   0.557   5.607 -0.6020 -0.2924 -0.0666
19215TIP3    H179060   3.931   0.487   5.617 -1.2072 -1.0838 -1.5612
19215TIP3    H279061   3.787   0.521   5.645 -0.1422  0.7715  1.9905
19216TIP3   OH279062   7.018   0.901   4.125  0.3371 -0.5183  0.2987
19216TIP3    H179063   7.100   0.924   4.081  0.2702  1.6103  1.2262
19216TIP3    H279064   6.952   0.957   4.085 -0.0382  0.1924  1.8744
19217TIP3   OH279065   4.629   6.569   0.922  0.3382  0.6714  0.2197
19217TIP3    H179066   4.672   6.514   0.857  0.7428  1.2769 -0.0331
19217TIP3    H279067   4.594   6.508   0.987  0.2308  0.0875 -0.3909
19218TIP3   OH279068   2.492   6.482   4.096  0.4114  0.1323  0.2846
19218TIP3    H179069   2.473   6.394   4.064  0.9082 -0.2457  0.9991
19218TIP3    H279070   2.473   6.540   4.023  1.7423 -0.7276 -0.7552
19219TIP3   OH279071   4.326   6.069   3.679  0.6116 -0.3788 -0.2663
19219TIP3    H179072   4.259   6.134   3.660  1.7092  0.4441 -1.3560
19219TIP3    H279073   4.279   5.985   3.676 -0.4947  0.2315 -0.3462
19220TIP3   OH279074   0.743   1.464   5.296  0.1430 -0.3349  0.7590
19220TIP3    H179075   0.735   1.491   5.387 -0.6081 -0.2229  0.6652
19220TIP3    H279076   0.793   1.382   5.300  2.4273  1.0292  1.0306
19221TIP3   OH279077   3.355   2.066   3.992 -0.5532  0.1630 -0.3500
19221TIP3    H179078   3.280   2.085   4.048 -0.3758  0.3662 -0.1800
19221TIP3    H279079   3.352   2.133   3.925 -1.8486 -1.1752 -1.6735
19222TIP3   OH279080   0.474   5.810   5.813 -0.0182 -0.2613 -0.0775
19222TIP3    H179081   0.551   5.840   5.861 -0.2073  0.1732 -0.0457
19222TIP3    H279082   0.411   5.881   5.821  1.0385  1.2284 -3.5807
19223TIP3   OH279083   5.744   2.104   4.774  0.5654 -0.0142  0.1678
19223TIP3    H179084   5.772   2.016   4.746  1.3542  0.5113 -0.7345
19223TIP3    H279085   5.824   2.157   4.769  0.0937  0.7584  0.7062
19224TIP3   OH279086   3.375   3.619   5.140 -0.4172 -0.4783 -0.3279
19224TIP3    H179087   3.296   3.639   5.189 -1.7888 -1.4344 -2.0889
19224TIP3    H279088   3.414   3.544   5.186 -0.8403 -0.3834  0.1891
19225TIP3   OH279089   6.929   6.868   3.937  0.0714  0.0562  0.1572
19225TIP3    H179090   6.980   6.808   3.883 -0.4816 -0.0775 -0.2199
19225TIP3    H279091   6.858   6.814   3.971 -1.3774  0.8689 -1.5080
19226TIP3   OH279092   4.041   7.055   1.051  0.3297  0.2483  0.2505
19226TIP3    H179093   4.063   7.147   1.064  0.6858  0.2215 -0.1635
19226TIP3    H279094   3.966   7.040   1.110  0.5305  0.6923  0.6227
19227TIP3   OH279095   3.596   5.822   5.460  0.0798  0.4956  0.4075
19227TIP3    H179096   3.565   5.902   5.417 -0.9418 -0.1278 -0.0153
19227TIP3    H279097   3.532   5.806   5.530  0.8013  0.5612  1.0908
19228TIP3   OH279098   5.678   6.471   5.101 -0.0432  0.6762  0.5883
19228TIP3    H179099   5.720   6.480   5.016  0.9838 -0.8852  0.9012
19228TIP3    H279100   5.662   6.560   5.131  0.8496  1.2424 -0.6213
19229TIP3   OH279101   5.929   5.525   3.588  0.0251 -0.0116  0.7296
19229TIP3    H179102   5.850   5.484   3.554 -0.7395  1.0575  1.1819
19229TIP3    H279103   5.899   5.609   3.622  1.4131  0.5379  0.6185
19230TIP3   OH279104   2.055   3.653   5.211 -0.5092 -0.2938  0.2841
19230TIP3    H179105   1.999   3.670   5.135 -1.0049 -1.8272  0.2836
19230TIP3    H279106   2.127   3.715   5.202 -1.1141  0.2675 -0.8670
19231TIP3   OH279107   6.559   2.577   2.959 -0.4096  0.6536  0.0138
19231TIP3    H179108   6.551   2.495   2.911  2.0093  0.4120 -0.0063
19231TIP3    H279109   6.536   2.644   2.895 -1.8838  0.0604 -0.1126
19232TIP3   OH279110   6.901   0.047   3.880 -0.7119  0.3023  0.0358
19232TIP3    H179111   6.869   0.038   3.970 -0.9253  3.7777  0.3443
19232TIP3    H279112   6.931  -0.041   3.857 -1.0473 -0.7392  3.3380
19233TIP3   OH279113   0.368   1.085   3.261  0.2422 -0.0172 -0.0583
19233TIP3    H179114   0.281   1.073   3.224  0.2860  0.9739 -0.5101
19233TIP3    H279115   0.427   1.071   3.187  0.3380  1.8419 -0.3570
19234TIP3   OH279116   1.442   2.055   4.885 -0.2439  0.2111 -0.2122
19234TIP3    H179117   1.499   2.014   4.950  0.2839  1.4573  0.1334
19234TIP3    H279118   1.465   2.148   4.888 -2.6909  0.8319  0.3331
19235TIP3   OH279119   0.726   6.325   4.468  0.7176  0.4120 -0.5356
19235TIP3    H179120   0.770   6.246   4.436 -0.0237  0.1852 -1.0193
19235TIP3    H279121   0.701   6.303   4.558 -0.2267 -0.2213 -0.9446
19236TIP3   OH279122   4.022   4.133   3.685 -0.4219  0.3696  0.0437
19236TIP3    H179123   4.092   4.113   3.623 -0.0334 -0.7040  0.8132
19236TIP3    H279124   3.944   4.094   3.646 -0.8372  2.5327 -1.3660
19237TIP3   OH279125   6.681   1.418   1.850 -0.6687  0.5364 -0.3024
19237TIP3    H179126   6.722   1.358   1.913  0.6146  0.6362 -1.0277
19237TIP3    H279127   6.590   1.389   1.846 -0.4473 -0.3185  0.5995
19238TIP3   OH279128   2.754   6.227   4.723 -0.3706  0.1419 -0.0594
19238TIP3    H179129   2.678   6.170   4.718 -1.9435  2.1051  0.6458
19238TIP3    H279130   2.765   6.261   4.634  1.1638 -1.9482 -0.7049
19239TIP3   OH279131   1.113   5.606   2.777 -0.6364 -0.2037  0.1007
19239TIP3    H179132   1.045   5.670   2.755 -0.6963  0.0596  1.0438
19239TIP3    H279133   1.135   5.625   2.868  0.1952 -0.7545  0.0158
19240TIP3   OH279134   4.939   4.805   3.353  0.1588 -0.2197  0.1922
19240TIP3    H179135   4.889   4.883   3.329 -1.9154 -1.4051  0.5816
19240TIP3    H279136   4.953   4.760   3.270  1.3981  0.5756 -0.0393
19241TIP3   OH279137   6.578   4.691   3.228 -0.0459  0.5224  0.0570
19241TIP3    H179138   6.630   4.619   3.193 -1.5232 -0.6729  0.2731
19241TIP3    H279139   6.569   4.672   3.322  0.7128  1.7240  0.3936
19242TIP3   OH279140   6.446   0.146   2.717 -0.0791  0.2922  0.3008
19242TIP3    H179141   6.517   0.123   2.777  0.1024 -0.2896 -0.1355
19242TIP3    H279142   6.473   0.110   2.632 -1.4198 -0.9317  0.3850
19243TIP3   OH279143   5.686   4.158   5.237 -0.9028 -0.0671  0.0707
19243TIP3    H179144   5.749   4.174   5.308 -1.1731 -0.0305  0.3035
19243TIP3    H279145   5.638   4.080   5.266  0.6611 -1.5483 -1.2217
19244TIP3   OH279146   0.830   6.898   4.785 -0.2315  0.5806  0.1825
19244TIP3    H179147   0.886   6.964   4.745  0.2924  0.8547  1.3297
19244TIP3    H279148   0.890   6.828   4.811 -0.4453  0.7853  1.2363
19245TIP3   OH279149   2.942   1.597   5.590  0.2313 -0.0521  0.2232
19245TIP3    H179150   2.959   1.624   5.680 -1.1590  0.1704  0.4273
19245TIP3    H279151   2.954   1.502   5.590 -0.6054 -0.1601  0.8349
19246TIP3   OH279152   5.159   0.000   3.976  0.6807  0.2038 -0.1046
19246TIP3    H179153   5.139  -0.090   3.951  1.0353  0.2828 -0.6877
19246TIP3    H279154   5.115   0.054   3.910  2.7604  0.3764 -1.3891
19247TIP3   OH279155   6.042   6.222   4.823 -0.2555  0.2129  0.2649
19247TIP3    H179156   5.997   6.235   4.906 -1.5005  1.4734 -0.5824
19247TIP3    H279157   6.094   6.302   4.811  1.5633 -0.8538  0.8128
19248TIP3   OH279158   2.346   1.062   4.572  0.4116 -0.8244 -0.1476
19248TIP3    H179159   2.314   1.021   4.653  0.4769  0.5188  0.5796
19248TIP3    H279160   2.441   1.065   4.582  0.3148  0.8067  0.4675
19249TIP3   OH279161   2.426   1.888   4.330  0.5042 -0.4240 -0.1928
19249TIP3    H179162   2.425   1.876   4.425  0.8652  0.2018 -0.1051
19249TIP3    H279163   2.510   1.851   4.302  1.6901  1.9436  0.0990
19250TIP3   OH279164   1.572   5.537   3.767  0.1272 -0.1185 -0.6502
19250TIP3    H179165   1.615   5.532   3.682 -1.0979  1.7026 -1.4087
19250TIP3    H279166   1.594   5.623   3.800  2.4635 -1.6376  1.9465
19251TIP3   OH279167   2.553   5.002   5.943  0.4277 -0.2908 -0.0447
19251TIP3    H179168   2.468   5.043   5.960  0.0445 -1.4444  0.8510
19251TIP3    H279169   2.612   5.076   5.928 -0.4578  0.5648  0.6129
19252TIP3   OH279170   0.511   1.944   6.022 -0.4837  0.4104 -0.0776
19252TIP3    H179171   0.543   2.001   6.092  1.0126  1.5500 -1.6376
19252TIP3    H279172   0.590   1.918   5.974 -1.4382 -0.6758 -1.1147
19253TIP3   OH279173   4.653   1.221   4.243  0.1607 -0.0713 -0.3512
19253TIP3    H179174   4.571   1.188   4.283  0.4650  0.3941  0.6821
19253TIP3    H279175   4.666   1.165   4.167 -0.0584 -1.4779  0.6224
19254TIP3   OH279176   2.421   6.932   4.307 -0.3610  0.1820 -0.5172
19254TIP3    H179177   2.420   6.965   4.397 -1.1044  0.0349 -0.4703
19254TIP3    H279178   2.424   6.837   4.317  2.2426  0.2029 -0.6519
19255TIP3   OH279179   5.723   0.584   4.797  0.3553  0.4416  0.1652
19255TIP3    H179180   5.765   0.515   4.848 -1.9481  1.1034  3.0926
19255TIP3    H279181   5.790   0.651   4.787  1.1295 -0.1207  1.5465
19256TIP3   OH279182   0.244   1.424   2.200  0.0161 -0.5019 -0.6758
19256TIP3    H179183   0.151   1.426   2.223 -0.5441 -0.2303 -2.8829
19256TIP3    H279184   0.253   1.346   2.145  0.9713 -0.1736 -0.9860
19257TIP3   OH279185   0.288   0.978   0.758 -0.1489  0.1537 -0.2395
19257TIP3    H179186   0.254   0.893   0.786  0.9838  0.1686  1.2529
19257TIP3    H279187   0.304   1.026   0.839  1.5061  0.8942 -0.9701
19258TIP3   OH279188   2.100   0.044   3.334  0.3706 -0.2170  0.2094
19258TIP3    H179189   2.067   0.015   3.418  2.9032 -1.3943  0.8498
19258TIP3    H279190   2.106  -0.036   3.281  2.0456 -0.0491  0.1025
19259TIP3   OH279191   1.937   0.758   4.272 -0.0668  0.1698 -0.0863
19259TIP3    H179192   1.908   0.819   4.204  1.8876  1.6332  0.3573
19259TIP3    H279193   1.919   0.804   4.354  0.5868 -0.2251  0.2782
19260TIP3   OH279194   6.080   5.568   4.365 -0.1906 -0.3768  0.3740
19260TIP3    H179195   6.002   5.579   4.420  0.9210 -0.6936  2.0290
19260TIP3    H279196   6.139   5.638   4.392 -0.5766  0.9675 -2.1369
19261TIP3   OH279197   3.433   1.355   4.234  0.1626  0.1114  0.5396
19261TIP3    H179198   3.413   1.430   4.177  0.4989 -0.5380 -0.4450
19261TIP3    H279199   3.355   1.343   4.287  0.3313  1.5541  1.1399
19262TIP3   OH279200   1.594   1.263   3.878  0.5310  0.4938  0.9702
19262TIP3    H179201   1.677   1.215   3.881  0.6209  0.6270  0.6084
19262TIP3    H279202   1.536   1.214   3.936  0.3931 -0.4942  0.0109
19263TIP3   OH279203   4.343   3.436   2.830  0.1503  0.0218  0.6238
19263TIP3    H179204   4.279   3.365   2.819  0.7790 -0.4971  0.2741
19263TIP3    H279205   4.319   3.476   2.914 -1.0944  0.3170  0.1335
19264TIP3   OH279206   3.202   5.901   1.969 -0.4269  0.3118 -0.1166
19264TIP3    H179207   3.248   5.855   2.040 -1.8997 -0.0866  0.6019
19264TIP3    H279208   3.177   5.985   2.008 -0.7302  0.3360 -0.3675
19265TIP3   OH279209   4.768   4.695   5.260 -0.2258 -0.4983 -0.3620
19265TIP3    H179210   4.736   4.745   5.335 -0.1180 -0.6882 -0.1904
19265TIP3    H279211   4.768   4.604   5.290  0.0657 -0.5458 -0.5047
19266TIP3   OH279212   6.486   1.567   4.623  0.5257  0.2289 -0.2147
19266TIP3    H179213   6.579   1.552   4.604  0.3958  0.6431 -1.1895
19266TIP3    H279214   6.473   1.661   4.609  0.1645  0.3455  0.8409
19267TIP3   OH279215   4.993   0.001   4.203  0.0620 -0.0784  0.0758
19267TIP3    H179216   5.040   0.020   4.122  0.2015 -1.4127 -0.1666
19267TIP3    H279217   5.031  -0.081   4.234 -2.3386 -1.3733 -0.2971
19268TIP3   OH279218   6.527   4.797   2.839 -0.1000 -0.2237 -0.0544
19268TIP3    H179219   6.536   4.850   2.919  2.5563 -0.4103 -0.1754
19268TIP3    H279220   6.487   4.716   2.868  0.8425 -0.2840  1.1273
19269TIP3   OH279221   5.433   6.757   4.731 -0.0904  0.5453 -0.0902
19269TIP3    H179222   5.345   6.748   4.769  0.6015 -0.6716  1.2622
19269TIP3    H279223   5.491   6.760   4.807  0.8965  3.4463 -0.8968
19270TIP3   OH279224   4.332   1.019   3.837  0.4569  0.2174  0.2700
19270TIP3    H179225   4.278   0.940   3.842 -1.2489  1.3580  0.0824
19270TIP3    H279226   4.372   1.026   3.924 -0.4150 -0.1291  0.7001
19271TIP3   OH279227   2.185   0.435   4.797 -0.5967  0.1636 -0.0793
19271TIP3    H179228   2.112   0.382   4.766 -0.0586 -0.7642  0.1909
19271TIP3    H279229   2.211   0.393   4.879  1.6646 -0.9000 -1.2854
19272TIP3   OH279230   4.144   0.262   4.528 -0.6042  0.5510 -0.1295
19272TIP3    H179231   4.198   0.332   4.565  0.6577 -0.0612 -0.7718
19272TIP3    H279232   4.205   0.188   4.517 -1.8098 -0.4920  0.1062
19273TIP3   OH279233   6.286   5.262   0.630  0.3892  0.1391 -0.7763
19273TIP3    H179234   6.341   5.291   0.702 -1.3928  1.9911 -0.1118
19273TIP3    H279235   6.339   5.277   0.552  0.4928  2.8735 -0.2264
19274TIP3   OH279236   0.342   1.806   2.860 -0.5525  0.4672  0.1435
19274TIP3    H179237   0.335   1.811   2.765 -3.7898  3.8439  0.4241
19274TIP3    H279238   0.260   1.767   2.889 -0.6613  1.7192  1.6454
19275TIP3   OH279239   4.316   4.006   3.808 -0.6135  0.1227  0.5043
19275TIP3    H179240   4.275   3.986   3.892 -0.9928 -0.5362  0.1666
19275TIP3    H279241   4.309   4.101   3.800 -1.3657  0.0975  0.8152
19276TIP3   OH279242   2.909   0.924   4.867 -0.0503  0.0468  0.2968
19276TIP3    H179243   2.877   0.996   4.922  1.0105 -0.0434  1.0401
19276TIP3    H279244   2.830   0.873   4.848 -0.9124  1.7102 -0.7189
19277TIP3   OH279245   3.180   5.990   3.798 -0.4340 -0.2011  0.2227
19277TIP3    H179246   3.138   6.075   3.785  0.3849  0.2583  0.5503
19277TIP3    H279247   3.203   5.962   3.709  0.4606  0.5220  0.2215
19278TIP3   OH279248   6.267   7.133   4.570 -0.2326  0.2728 -0.1373
19278TIP3    H179249   6.241   7.160   4.482 -0.1481 -1.8987 -0.8441
19278TIP3    H279250   6.340   7.073   4.556 -2.2115 -2.5385  1.2331
19279TIP3   OH279251   5.271   0.312   4.522 -0.0071  0.2645 -0.2168
19279TIP3    H179252   5.191   0.364   4.532  0.4680  0.5855  2.2488
19279TIP3    H279253   5.342   0.375   4.534  0.5851 -0.5971  0.8356
19280TIP3   OH279254   3.259   6.977   4.748 -0.0274 -0.3889  0.1411
19280TIP3    H179255   3.300   6.925   4.817 -1.0299 -0.7685  0.4644
19280TIP3    H279256   3.223   6.912   4.688  1.8513 -0.0752 -1.3870
19281TIP3   OH279257   1.942   1.903   5.195 -0.6242 -0.6592 -0.6064
19281TIP3    H179258   1.970   1.906   5.104 -3.0251  0.0233 -1.3534
19281TIP3    H279259   1.986   1.977   5.237  0.5664 -1.0396 -1.1642
19282TIP3   OH279260   5.014   1.033   4.528 -0.3353  0.5569  0.2047
19282TIP3    H179261   4.950   0.982   4.478  1.6459  0.8396 -2.6946
19282TIP3    H279262   4.980   1.123   4.526 -1.0483  0.3073  0.7363
19283TIP3   OH279263   3.358   0.083   4.537  0.1669  0.1121 -0.4837
19283TIP3    H179264   3.403   0.017   4.484 -1.6018 -0.0711 -1.7963
19283TIP3    H279265   3.265   0.066   4.521 -0.3338  1.5291  0.9027
19284TIP3   OH279266   0.175   5.090   5.289  0.0169 -0.5059  0.1486
19284TIP3    H179267   0.141   5.103   5.200  0.0731 -0.1308  0.1834
19284TIP3    H279268   0.266   5.117   5.284 -0.5680  1.7232  0.8683
19285TIP3   OH279269   7.117   3.995   3.391  0.0123  0.5668 -0.3092
19285TIP3    H179270   7.187   3.946   3.349 -0.0194  2.9700 -3.3448
19285TIP3    H279271   7.037   3.948   3.368  0.2302  0.3697 -0.6532
19286TIP3   OH279272   2.808   1.296   5.237  0.2545  0.2537  0.4475
19286TIP3    H179273   2.800   1.297   5.332 -0.7175  0.2462  0.3777
19286TIP3    H279274   2.718   1.281   5.206  0.5503  0.3427 -0.4671
19287TIP3   OH279275   5.305   4.799   4.890  0.2462 -0.0231  0.0852
19287TIP3    H179276   5.327   4.719   4.842 -0.2793  0.0270 -0.2423
19287TIP3    H279277   5.281   4.769   4.977 -1.2003 -0.3410 -0.4181
19288TIP3   OH279278   3.151   2.006   5.079  0.3980 -0.2684  0.3793
19288TIP3    H179279   3.064   1.978   5.051 -0.1160  0.7025  0.9873
19288TIP3    H279280   3.206   1.930   5.064 -0.8668 -1.4293  1.5081
19289TIP3   OH279281   5.105   0.999   4.163  0.2536  0.4294  0.3240
19289TIP3    H179282   5.164   0.975   4.234  0.6823  0.5799  0.0264
19289TIP3    H279283   5.018   1.000   4.202  0.0911 -2.6394  0.0928
19290TIP3   OH279284   4.072   5.486   5.839  0.2441  0.0179 -0.5476
19290TIP3    H179285   3.985   5.476   5.876  0.1164  1.6551 -0.3682
19290TIP3    H279286   4.125   5.420   5.883 -0.5018  0.2000  0.6383
19291TIP3   OH279287   1.629   2.270   3.864  0.1728 -0.1769  0.0643
19291TIP3    H179288   1.646   2.266   3.958 -1.0509 -1.5119  0.2375
19291TIP3    H279289   1.680   2.197   3.827 -0.3298 -0.4172 -0.1588
19292TIP3   OH279290   0.943   4.868   3.874  0.4896 -0.5309  0.5526
19292TIP3    H179291   0.964   4.802   3.809  1.1721 -0.4805  0.7112
19292TIP3    H279292   0.874   4.921   3.834  1.0677 -0.3521 -0.2290
19293TIP3   OH279293   2.554   4.706   3.076 -0.2426  0.0576  0.2632
19293TIP3    H179294   2.561   4.671   3.165 -0.1481  1.1250  0.6795
19293TIP3    H279295   2.637   4.683   3.035 -0.3142 -0.4999  0.4157
19294TIP3   OH279296   4.933   4.425   5.633  0.1257  0.6171 -0.2718
19294TIP3    H179297   4.904   4.497   5.577  0.6707  1.1478  0.1197
19294TIP3    H279298   4.855   4.402   5.685 -0.3968  0.0789 -1.2865
19295TIP3   OH279299   5.067   5.743   5.560  0.4563 -0.3422 -0.1910
19295TIP3    H179300   5.127   5.669   5.566  1.4608  0.1823 -2.8053
19295TIP3    H279301   4.981   5.707   5.583  1.4382 -1.5816  1.5659
19296TIP3   OH279302   0.930   5.024   5.110  0.7728 -0.0447  1.2279
19296TIP3    H179303   0.972   5.099   5.066  0.6379 -0.9680 -0.5402
19296TIP3    H279304   0.994   4.995   5.175  2.6683 -1.0310 -1.0049
19297TIP3   OH279305   4.088   4.696   4.337 -0.2788 -0.1412  0.2776
19297TIP3    H179306   4.109   4.623   4.396 -0.2099  0.5459  1.0972
19297TIP3    H279307   4.125   4.669   4.253 -0.4996 -1.1865  0.5042
19298TIP3   OH279308   3.706   2.510   5.838 -0.0113  0.3451 -0.0093
19298TIP3    H179309   3.639   2.515   5.906 -1.7344 -0.3952 -1.6056
19298TIP3    H279310   3.762   2.586   5.855 -1.4546  1.1952  1.1602
19299TIP3   OH279311   6.432   0.349   3.249 -0.2711 -0.1939  0.0839
19299TIP3    H179312   6.420   0.315   3.160 -1.9054  3.4106 -1.1816
19299TIP3    H279313   6.417   0.273   3.306 -2.1474 -1.9470 -2.5963
19300TIP3   OH279314   3.506   1.930   2.054  0.5717 -0.0855  0.0347
19300TIP3    H179315   3.506   2.025   2.045 -0.8351 -0.2170 -1.4858
19300TIP3    H279316   3.422   1.910   2.096  1.1957 -0.6077  1.0623
19301TIP3   OH279317   3.430   0.964   3.535 -0.1560  0.4356 -0.3683
19301TIP3    H179318   3.444   0.906   3.460 -0.8363  2.2965 -1.9869
19301TIP3    H279319   3.344   1.002   3.519  0.4633  2.2012  0.4531
19302TIP3   OH279320   2.616   2.500   4.358  0.7973 -0.6659 -0.3410
19302TIP3    H179321   2.686   2.549   4.315  0.4171 -1.9842 -2.5851
19302TIP3    H279322   2.580   2.444   4.289 -1.9711 -0.5832  0.9295
19303TIP3   OH279323   6.332   4.212   5.070 -0.2334 -0.6175 -0.1711
19303TIP3    H179324   6.249   4.241   5.108 -0.2989 -0.8940 -0.1090
19303TIP3    H279325   6.342   4.267   4.992 -0.3182 -0.3640 -0.0060
19304TIP3   OH279326   6.992   6.418   5.694 -0.4175 -0.2714 -0.2750
19304TIP3    H179327   7.024   6.508   5.689 -1.8296  0.1410 -2.8182
19304TIP3    H279328   6.939   6.416   5.774 -0.7412  1.2888 -0.4371
19305TIP3   OH279329   1.263   6.614   4.959  0.7028 -0.1425 -0.4433
19305TIP3    H179330   1.268   6.709   4.976  1.4730 -0.3282  0.4192
19305TIP3    H279331   1.170   6.593   4.969  0.4658  0.5988 -1.0422
19306TIP3   OH279332   2.646   6.019   5.886  0.1551  0.1981 -0.0420
19306TIP3    H179333   2.698   6.061   5.954  2.6771 -0.0613 -1.7520
19306TIP3    H279334   2.611   6.091   5.835 -1.1363  0.3698  1.0494
19307TIP3   OH279335   0.701   3.306   4.429 -0.5615 -0.1023 -0.3413
19307TIP3    H179336   0.724   3.313   4.522  1.3040  1.5111 -0.8827
19307TIP3    H279337   0.779   3.269   4.387 -0.6666  0.9221 -1.5020
19308TIP3   OH279338   0.612   2.089   4.377  0.4147 -0.4464 -0.5604
19308TIP3    H179339   0.676   2.082   4.306  0.0019  0.6902 -1.0572
19308TIP3    H279340   0.624   2.178   4.411  0.1434 -0.7575  0.3429
19309TIP3   OH279341   0.432   4.025   4.958 -0.4068  0.1131  0.3055
19309TIP3    H179342   0.495   4.083   5.001 -0.3122 -0.6841  1.2682
19309TIP3    H279343   0.485   3.956   4.919 -0.3270  1.8323 -2.7790
19310TIP3   OH279344   6.512   4.532   5.629  0.3519  0.1442  0.0905
19310TIP3    H179345   6.570   4.476   5.681 -1.1545 -2.5337 -1.0363
19310TIP3    H279346   6.455   4.573   5.693 -0.3889 -1.8374  0.7310
19311TIP3   OH279347   2.503   5.702   5.045  0.0200  0.9364 -0.5782
19311TIP3    H179348   2.534   5.774   5.100 -0.8157  0.0489  1.1142
19311TIP3    H279349   2.573   5.636   5.049  0.3558  1.2417 -1.3319
19312TIP3   OH279350   0.257   0.308   4.194 -0.1205  0.0012  0.0579
19312TIP3    H179351   0.315   0.342   4.262 -0.7479  0.6102  0.2954
19312TIP3    H279352   0.171   0.302   4.237 -0.3951 -0.1688 -0.5106
19313TIP3   OH279353   0.026   6.329   3.531  0.1797 -1.1824  0.6068
19313TIP3    H179354   0.002   6.383   3.606 -0.4394 -0.2104 -0.2894
19313TIP3    H279355   0.100   6.375   3.491 -1.0834 -0.3720 -0.8305
19314TIP3   OH279356   5.988   0.235   4.443  0.0834 -0.0232  0.6454
19314TIP3    H179357   5.898   0.209   4.464 -0.2568  1.3923  0.9661
19314TIP3    H279358   5.979   0.308   4.382  1.0321 -0.3917  0.0412
19315TIP3   OH279359   6.463   1.525   2.455  0.4769  0.2120 -0.2779
19315TIP3    H179360   6.440   1.478   2.376 -0.7246  0.9351 -0.3652
19315TIP3    H279361   6.381   1.535   2.503  1.2654 -0.6925  1.3288
19316TIP3   OH279362   1.456   2.152   4.103  0.2378  0.3708  0.1158
19316TIP3    H179363   1.461   2.175   4.196 -0.7491  0.8984  0.0527
19316TIP3    H279364   1.371   2.109   4.094  0.6502 -0.3425 -0.4061
19317TIP3   OH279365   1.947   5.235   5.852 -0.5157  0.2802  0.4800
19317TIP3    H179366   1.997   5.187   5.918 -0.4024  0.0597  0.2362
19317TIP3    H279367   1.858   5.200   5.859 -0.5460  0.3859  0.6370
19318TIP3   OH279368   6.880   2.531   4.468  0.1296  0.6024  0.0409
19318TIP3    H179369   6.796   2.497   4.500  0.6923 -1.5616 -0.6672
19318TIP3    H279370   6.944   2.499   4.531  0.6243  0.7222 -0.4048
19319TIP3   OH279371   3.373   6.389   2.730 -0.0925  0.4098  0.4719
19319TIP3    H179372   3.356   6.295   2.722 -0.9359  0.5459  0.6799
19319TIP3    H279373   3.397   6.402   2.821  0.8290  0.2765  0.2607
19320TIP3   OH279374   1.308   5.623   3.923 -0.0504  0.0564  0.2807
19320TIP3    H179375   1.314   5.692   3.857  2.1000 -0.8923 -0.5364
19320TIP3    H279376   1.308   5.541   3.874 -0.3265 -0.6058  1.3640
19321TIP3   OH279377   3.193   4.877   3.344  0.2912  0.0940  0.0025
19321TIP3    H179378   3.171   4.833   3.426  0.7708  1.0120  0.6267
19321TIP3    H279379   3.233   4.960   3.371  0.2262  0.5115 -1.1551
19322TIP3   OH279380   1.904   4.467   1.812 -0.8417 -0.0948 -0.3807
19322TIP3    H179381   1.871   4.421   1.735 -1.2954 -0.9910  0.3256
19322TIP3    H279382   1.896   4.560   1.792 -1.7897 -0.3231 -1.0600
19323TIP3   OH279383   1.645   0.423   2.372  0.6442  0.4931 -0.7267
19323TIP3    H179384   1.622   0.365   2.299  1.2173 -0.2968 -0.2932
19323TIP3    H279385   1.613   0.377   2.449  0.0426  1.3259 -0.4710
19324TIP3   OH279386   1.180   1.168   4.458 -0.5995  0.2505 -0.1996
19324TIP3    H179387   1.266   1.204   4.480 -0.2506 -1.2473  0.9701
19324TIP3    H279388   1.182   1.157   4.363  1.3720 -1.8434  0.0347
19325TIP3   OH279389   6.692   4.813   4.440  0.5552  0.2618  0.2411
19325TIP3    H179390   6.766   4.753   4.438  0.5654  0.2937 -0.8726
19325TIP3    H279391   6.616   4.757   4.454  0.8517  0.3127  2.2368
19326TIP3   OH279392   0.801   5.899   2.937 -0.3333 -0.9511  0.0275
19326TIP3    H179393   0.718   5.936   2.965  0.5196  1.7721 -0.9430
19326TIP3    H279394   0.865   5.935   2.998  0.1507 -3.1845  0.8869
19327TIP3   OH279395   5.370   0.289   5.915 -0.4799  0.3280  0.1399
19327TIP3    H179396   5.416   0.220   5.866 -0.4827  0.6956 -0.3915
19327TIP3    H279397   5.277   0.270   5.902 -0.4916  0.8266 -0.6029
19328TIP3   OH279398   3.663   4.814   5.846 -0.5574  0.4499  0.2873
19328TIP3    H179399   3.695   4.724   5.850  0.7383  0.8654 -0.1833
19328TIP3    H279400   3.702   4.857   5.922  1.6659  1.4516 -1.3320
19329TIP3   OH279401   1.005   6.544   5.087 -0.0326 -0.0550  0.1434
19329TIP3    H179402   1.009   6.625   5.139  1.3901  1.4235 -2.1172
19329TIP3    H279403   0.971   6.573   5.002  1.0689 -1.7024 -0.8833
19330TIP3   OH279404   3.485   5.701   3.304 -0.4048 -0.2910  0.1703
19330TIP3    H179405   3.519   5.676   3.218  1.1241 -1.1195  1.0001
19330TIP3    H279406   3.429   5.777   3.286  1.6263  0.9086 -1.2859
19331TIP3   OH279407   5.505   5.664   5.107 -0.0900 -0.6099  0.3770
19331TIP3    H179408   5.520   5.630   5.195  3.6000  1.1255  0.5437
19331TIP3    H279409   5.445   5.737   5.119 -1.2555 -1.6817  1.1467
19332TIP3   OH279410   6.440   6.676   5.020 -0.3308  0.5980 -0.4779
19332TIP3    H179411   6.386   6.749   4.991  1.4828  1.7622 -1.0167
19332TIP3    H279412   6.530   6.701   4.996  0.5932 -0.7957  1.3769
19333TIP3   OH279413   4.240   5.075   4.166 -0.2739  0.4604  0.1569
19333TIP3    H179414   4.184   5.127   4.109 -1.1338 -2.8872 -2.2142
19333TIP3    H279415   4.179   5.031   4.226  0.2206  0.4830  0.6779
19334TIP3   OH279416   6.727   0.174   1.827 -0.6364 -0.2364 -0.0993
19334TIP3    H179417   6.739   0.088   1.868 -1.2052 -0.9795 -1.4514
19334TIP3    H279418   6.713   0.154   1.735 -0.2774  1.3586 -0.5002
19335TIP3   OH279419   0.038   1.672   5.250  0.0964 -0.1672 -0.0029
19335TIP3    H179420   0.052   1.585   5.214 -1.2853 -0.0364 -0.8638
19335TIP3    H279421   0.126   1.702   5.274  0.5476 -1.8801  0.5413
19336TIP3   OH279422   1.778   0.290   0.242  0.0669 -0.0139 -0.1675
19336TIP3    H179423   1.828   0.289   0.161 -1.8890  0.7713 -1.4172
19336TIP3    H279424   1.759   0.198   0.259 -1.9439 -0.0002 -2.1703
19337TIP3   OH279425   4.989   0.372   4.094 -0.0836  0.0662 -0.3100
19337TIP3    H179426   5.069   0.418   4.118  0.9269 -2.3688  1.1225
19337TIP3    H279427   5.016   0.308   4.028 -0.9943 -0.2951 -0.3410
19338TIP3   OH279428   6.285   6.985   2.400  0.1881  0.1079 -0.6198
19338TIP3    H179429   6.325   7.049   2.459 -0.4966 -0.5345  0.5522
19338TIP3    H279430   6.263   7.035   2.322 -1.1844  1.5279  0.6336
19339TIP3   OH279431   4.776   0.558   3.289  0.0252 -0.4745 -0.5540
19339TIP3    H179432   4.708   0.512   3.338  0.3654 -2.3034 -1.7645
19339TIP3    H279433   4.825   0.489   3.245  0.7080  1.0176 -2.1899
19340TIP3   OH279434   1.028   7.035   4.123  0.2291 -0.1773  0.2013
19340TIP3    H179435   1.028   6.949   4.079 -3.0719 -0.6107  0.9113
19340TIP3    H279436   1.076   7.020   4.204 -1.7600 -1.8667  1.1280
19341TIP3   OH279437   4.988   6.579   5.213  0.6315  0.3100 -0.4421
19341TIP3    H179438   4.965   6.499   5.260  2.0466  0.0558 -0.1689
19341TIP3    H279439   5.021   6.638   5.280  1.6871  0.3149 -0.9452
19342TIP3   OH279440   2.195   5.340   4.603 -0.0592 -0.6627 -0.7648
19342TIP3    H179441   2.194   5.245   4.618  0.4958 -0.6226 -0.4454
19342TIP3    H279442   2.207   5.348   4.508 -1.9650 -0.9106 -1.0435
19343TIP3   OH279443   3.627   4.270   1.511  0.2765 -0.0795  0.1637
19343TIP3    H179444   3.637   4.252   1.604  1.0272 -2.8764 -0.3842
19343TIP3    H279445   3.544   4.229   1.488  0.2536  0.3045 -0.4525
19344TIP3   OH279446   0.936   4.240   2.023  0.1414 -0.3322  0.5000
19344TIP3    H179447   0.885   4.237   2.104  0.7413  0.9292  0.9439
19344TIP3    H279448   1.026   4.229   2.051  0.4634  1.2666  0.1349
19345TIP3   OH279449   3.234   0.930   5.789  0.2129 -0.0621 -0.3261
19345TIP3    H179450   3.177   0.894   5.857  0.1071 -1.5812 -1.1933
19345TIP3    H279451   3.177   0.991   5.742 -0.1938 -0.2319 -0.0664
19346TIP3   OH279452   6.854   0.126   4.455 -0.3929 -0.0290 -0.4582
19346TIP3    H179453   6.847   0.156   4.546 -0.2921  0.9750 -0.7809
19346TIP3    H279454   6.777   0.161   4.412 -0.8468 -1.1702 -0.5832
19347TIP3   OH279455   2.964   1.739   2.047  0.0527  0.3406 -0.4660
19347TIP3    H179456   2.925   1.810   1.997  0.2847  2.0816  1.7606
19347TIP3    H279457   3.044   1.776   2.084 -1.2082 -0.1797  2.9468
19348TIP3   OH279458   7.113   0.209   1.875  0.3458  0.0076 -0.1168
19348TIP3    H179459   7.141   0.154   1.948 -1.4256 -1.3706 -0.4230
19348TIP3    H279460   7.131   0.157   1.797 -1.4005 -0.2121 -0.4064
19349TIP3   OH279461   4.346   5.983   5.879 -0.0312 -0.1210 -0.5344
19349TIP3    H179462   4.383   5.951   5.796  0.1536 -0.0135 -0.4913
19349TIP3    H279463   4.300   5.907   5.915  1.9344 -0.8706  0.4575
19350TIP3   OH279464   2.822   0.847   4.241  0.1446 -0.4566 -0.4676
19350TIP3    H179465   2.857   0.856   4.152  1.5439  0.0583  0.1183
19350TIP3    H279466   2.879   0.781   4.282  0.1435  0.0488  0.3575
19351TIP3   OH279467   1.461   6.441   4.580  0.5261  0.5188 -0.1568
19351TIP3    H179468   1.530   6.498   4.615  0.0526  0.9802  0.0220
19351TIP3    H279469   1.470   6.448   4.485  2.0186 -0.9767 -0.1467
19352TIP3   OH279470   5.914   6.078   3.180  0.7612 -0.3969 -0.0661
19352TIP3    H179471   5.878   6.064   3.268  1.1140 -0.3401  0.0884
19352TIP3    H279472   5.886   6.001   3.130  1.0260 -0.7045  0.2486
19353TIP3   OH279473   0.079   2.868   2.475 -0.8128  0.0038 -0.3777
19353TIP3    H179474   0.053   2.859   2.567 -2.2769 -0.7203 -0.8595
19353TIP3    H279475   0.136   2.793   2.459 -1.8795 -0.7965 -0.5055
19354TIP3   OH279476   3.676   2.059   3.049  0.0116  0.3391 -0.3518
19354TIP3    H179477   3.680   1.999   3.124  1.6182 -1.3307 -1.7037
19354TIP3    H279478   3.749   2.119   3.063  0.1061  0.2355 -0.3961
19355TIP3   OH279479   7.128   0.770   1.116  0.4212  0.0540  0.0738
19355TIP3    H179480   7.062   0.710   1.080  0.4332 -1.0498  1.8315
19355TIP3    H279481   7.078   0.827   1.174  1.2441 -1.8804  2.7297
19356TIP3   OH279482   1.189   1.555   4.138  0.1923 -0.0995 -0.2333
19356TIP3    H179483   1.179   1.535   4.045  0.1884  0.2408 -0.3067
19356TIP3    H279484   1.227   1.643   4.139 -0.4572  0.1745  0.1014
19357TIP3   OH279485   1.796   6.848   3.481  0.3527 -0.4144 -0.3668
19357TIP3    H179486   1.742   6.895   3.544  2.3485 -0.1926  1.2282
19357TIP3    H279487   1.802   6.907   3.406  0.6837  0.7637  0.5760
19358TIP3   OH279488   2.811   2.243   4.647  0.0398 -0.3501 -0.7820
19358TIP3    H179489   2.737   2.213   4.594 -0.4104  0.8425 -0.8581
19358TIP3    H279490   2.772   2.305   4.709  0.6577 -1.2876  0.5512
19359TIP3   OH279491   1.994   0.495   4.301  0.0291  0.3347 -0.0438
19359TIP3    H179492   1.967   0.586   4.317  1.7920  0.6679  1.1913
19359TIP3    H279493   2.079   0.488   4.344 -0.0434 -1.8827 -0.2285
19360TIP3   OH279494   1.862   4.614   5.019  0.6004  0.3689  0.1616
19360TIP3    H179495   1.894   4.669   5.091  0.1774  1.4038 -0.4474
19360TIP3    H279496   1.933   4.616   4.954  0.9180 -0.4452  0.4745
19361TIP3   OH279497   1.535   1.113   2.394  0.3927  0.2091  0.3771
19361TIP3    H179498   1.543   1.208   2.389 -0.8295  0.2686 -0.5184
19361TIP3    H279499   1.615   1.085   2.440  0.8952  1.6293  0.3970
19362TIP3   OH279500   6.661   3.972   4.669  0.2707 -0.0350 -0.1709
19362TIP3    H179501   6.641   4.024   4.747 -1.1625  1.6669 -1.6105
19362TIP3    H279502   6.604   3.896   4.676 -2.4270  1.8004 -1.1996
19363TIP3   OH279503   0.978   6.557   5.516 -0.1530 -0.1172 -0.0135
19363TIP3    H179504   0.944   6.605   5.592  2.2227 -1.3204  1.8731
19363TIP3    H279505   1.072   6.571   5.519  0.3102 -2.7395 -0.9557
19364TIP3   OH279506   3.077   7.117   3.360  0.2764  0.6488 -0.3087
19364TIP3    H179507   3.091   7.052   3.429  2.5723 -0.5246 -1.8102
19364TIP3    H279508   2.984   7.137   3.364 -0.4005 -2.4411  0.4276
19365TIP3   OH279509   5.099   3.057   4.708 -0.5677  0.6595  0.4391
19365TIP3    H179510   5.043   3.060   4.630  0.1032 -0.3405 -0.0964
19365TIP3    H279511   5.171   2.999   4.683  0.5663  1.7080  1.2108
19366TIP3   OH279512   2.875   5.549   5.984 -0.4565 -0.9925  0.2276
19366TIP3    H179513   2.968   5.525   5.990 -0.0831  0.5303  0.9182
19366TIP3    H279514   2.867   5.624   6.042 -1.7411  0.0244 -1.2370
19367TIP3   OH279515   2.797   4.371   1.154 -0.3907  0.1124  0.1303
19367TIP3    H179516   2.804   4.340   1.245 -0.3295 -0.0528  0.0698
19367TIP3    H279517   2.760   4.459   1.162 -1.9792 -0.5375  0.2367
19368TIP3   OH279518   7.078   0.515   5.192 -0.0698 -0.8226  0.4297
19368TIP3    H179519   7.085   0.506   5.287 -1.6613 -1.0579  0.5339
19368TIP3    H279520   6.992   0.480   5.171  0.4506 -1.1779 -1.1578
19369TIP3   OH279521   0.585   2.351   4.096  0.1416 -0.1785  0.0888
19369TIP3    H179522   0.498   2.379   4.124 -0.3513 -1.9165  0.3391
19369TIP3    H279523   0.569   2.296   4.019  1.0683  0.0585 -0.2733
19370TIP3   OH279524   4.902   1.065   5.305  0.4488  0.5044 -0.2655
19370TIP3    H179525   4.934   0.997   5.364 -0.5694 -0.8813 -1.2675
19370TIP3    H279526   4.964   1.064   5.232  0.9707  1.3257  0.1541
19371TIP3   OH279527   1.760   4.420   5.720  0.0596  0.3225  0.8862
19371TIP3    H179528   1.775   4.511   5.747 -0.2716  0.7703 -0.4352
19371TIP3    H279529   1.843   4.392   5.682 -0.1544  0.4061  0.3559
19372TIP3   OH279530   3.853   6.270   3.960  0.0278 -0.6251 -0.3096
19372TIP3    H179531   3.887   6.181   3.956 -0.6659 -0.8990 -0.0462
19372TIP3    H279532   3.884   6.311   3.879 -0.2885 -1.3260 -0.7908
19373TIP3   OH279533   4.479   6.328   5.947  0.1614  0.0970 -0.4323
19373TIP3    H179534   4.562   6.288   5.921  1.6456  2.7653 -0.0261
19373TIP3    H279535   4.453   6.280   6.026  2.1014  0.1543  0.2794
19374TIP3   OH279536   3.881   0.412   4.106 -0.0822  0.2777  0.2720
19374TIP3    H179537   3.953   0.376   4.157  0.7889  1.6007 -0.0006
19374TIP3    H279538   3.804   0.399   4.161  0.1326 -2.3671 -0.0155
19375TIP3   OH279539   2.617   5.424   5.015  0.2852 -0.1185  0.1160
19375TIP3    H179540   2.550   5.418   5.083  0.1415 -0.6604 -0.0758
19375TIP3    H279541   2.660   5.339   5.015 -0.1486 -0.3370 -0.9182
19376TIP3   OH279542   2.028   5.928   2.013  0.3191  0.2188 -0.0034
19376TIP3    H179543   1.963   5.997   2.006  1.0056  0.8290 -0.4547
19376TIP3    H279544   2.072   5.927   1.928  1.8691  0.8010  0.7637
19377TIP3   OH279545   5.219   5.524   2.804  0.5737  0.3653  0.5157
19377TIP3    H179546   5.149   5.554   2.747  0.9008  2.7481  1.3104
19377TIP3    H279547   5.185   5.540   2.893  0.2765 -2.7867  1.0342
19378TIP3   OH279548   4.819   6.012   5.416 -0.0291 -0.0565  0.4192
19378TIP3    H179549   4.905   6.008   5.375 -0.2361 -0.9158  0.0606
19378TIP3    H279550   4.836   6.000   5.509  0.2853  0.3188  0.4131
19379TIP3   OH279551   4.555   6.183   3.778  0.6475  0.1414  0.0732
19379TIP3    H179552   4.482   6.135   3.739  0.3098  1.6070 -1.1290
19379TIP3    H279553   4.522   6.210   3.864 -0.4038  1.1962 -0.6506
19380TIP3   OH279554   3.668   0.165   4.241 -0.1076 -0.9891 -0.0500
19380TIP3    H179555   3.577   0.150   4.215 -0.6892  1.5049  0.4361
19380TIP3    H279556   3.666   0.247   4.289  1.9924 -2.3270  2.4064
19381TIP3   OH279557   5.322   5.767   4.561  0.0062 -0.2689  0.2583
19381TIP3    H179558   5.416   5.750   4.570 -0.3262 -1.8503  0.8837
19381TIP3    H279559   5.281   5.684   4.584 -1.4923 -0.0415 -1.5367
19382TIP3   OH279560   2.799   2.551   5.287  0.4050 -0.2777  0.2595
19382TIP3    H179561   2.747   2.482   5.328 -0.0788  1.1378  2.0942
19382TIP3    H279562   2.753   2.632   5.310  2.6296  0.8878  0.6830
19383TIP3   OH279563   1.186   1.743   3.728  0.5692  0.8135  0.0651
19383TIP3    H179564   1.266   1.795   3.737  1.4656 -0.5629  0.1121
19383TIP3    H279565   1.140   1.784   3.655  1.6388  1.1869 -0.4221
19384TIP3   OH279566   3.818   5.448   5.919  0.3890 -0.0499 -0.2283
19384TIP3    H179567   3.808   5.357   5.895 -1.1636  0.8521 -3.1875
19384TIP3    H279568   3.729   5.484   5.920  1.1245  1.9125 -1.2153
19385TIP3   OH279569   1.228   3.176   3.726  0.2813 -0.2047 -0.5959
19385TIP3    H179570   1.305   3.233   3.731 -0.9993  1.4667  0.8906
19385TIP3    H279571   1.155   3.232   3.754 -1.2397 -2.1862 -0.4895
19386TIP3   OH279572   0.702   5.499   0.700 -0.7219 -0.1199 -0.2767
19386TIP3    H179573   0.785   5.462   0.727 -0.3730  0.6641 -0.2574
19386TIP3    H279574   0.703   5.492   0.604  0.4322  2.0790 -0.4602
19387TIP3   OH279575   0.966   0.683   4.660  0.5229  0.1980 -0.2400
19387TIP3    H179576   1.012   0.647   4.736  0.0880  1.0204  0.4140
19387TIP3    H279577   0.881   0.638   4.660  0.4920  0.2570 -0.2008
19388TIP3   OH279578   1.259   2.021   0.557  0.1447  0.2228 -0.1702
19388TIP3    H179579   1.244   1.927   0.553 -0.0090  0.1383  1.8358
19388TIP3    H279580   1.289   2.037   0.647 -1.3544  2.2844  0.0149
19389TIP3   OH279581   1.521   3.949   4.713 -0.3384  0.1965 -0.2007
19389TIP3    H179582   1.514   4.040   4.742 -0.6382  0.1265 -0.0475
19389TIP3    H279583   1.537   3.899   4.793 -0.3483  0.0944 -0.2618
19390TIP3   OH279584   2.919   0.121   5.310 -0.0975 -0.4643 -0.6001
19390TIP3    H179585   2.969   0.186   5.360  1.9676 -2.4498 -0.0375
19390TIP3    H279586   2.828   0.153   5.316  0.6637  1.5890  0.8812
19391TIP3   OH279587   6.267   4.135   5.819  0.5986 -0.0471 -0.0863
19391TIP3    H179588   6.244   4.224   5.790  0.6864 -0.0846 -0.2714
19391TIP3    H279589   6.338   4.148   5.881  1.1692 -0.0480 -0.7401
19392TIP3   OH279590   3.783   1.885   1.674  0.4206 -0.0125 -0.1485
19392TIP3    H179591   3.697   1.916   1.702  0.3758 -0.0810 -0.2076
19392TIP3    H279592   3.799   1.808   1.729 -0.2162 -0.8734 -1.1627
19393TIP3   OH279593   2.048   0.167   1.451  0.2567 -0.0487 -0.4811
19393TIP3    H179594   2.044   0.079   1.488  1.3139  0.5704  1.1785
19393TIP3    H279595   2.109   0.159   1.378  2.5134 -0.1774  1.3280
19394TIP3   OH279596   5.976   5.384   5.363  0.7370  0.2095  0.2775
19394TIP3    H179597   5.918   5.412   5.434  0.2524 -0.2565  0.0647
19394TIP3    H279598   5.970   5.289   5.363  0.2949  0.2265 -0.7527
19395TIP3   OH279599   2.807   4.952   5.273 -0.6050  0.1306 -0.2862
19395TIP3    H179600   2.714   4.937   5.255 -0.8180  1.4006 -0.2685
19395TIP3    H279601   2.810   4.972   5.366 -0.3324  0.1962 -0.3093
19396TIP3   OH279602   4.793   2.470   5.362  0.1432  0.0451 -0.5992
19396TIP3    H179603   4.772   2.447   5.452  1.3034 -0.1144 -0.3604
19396TIP3    H279604   4.799   2.565   5.362  0.0011  0.0547 -0.5454
19397TIP3   OH279605   6.944   6.490   5.143  0.1877  0.2152 -0.3256
19397TIP3    H179606   6.903   6.568   5.181 -1.4185 -1.3015  1.1621
19397TIP3    H279607   7.037   6.511   5.139  0.0502  1.4435  2.0108
19398TIP3   OH279608   1.134   1.689   4.991  0.1591 -0.0053  0.4711
19398TIP3    H179609   1.083   1.711   4.913 -1.4613  0.5715  1.6640
19398TIP3    H279610   1.184   1.768   5.011  1.3298 -0.4756 -0.5314
19399TIP3   OH279611   3.909   6.075  15.144 -0.0258 -0.1140  0.4117
19399TIP3    H179612   3.858   6.155  15.154  1.3620  1.2389 -2.5801
19399TIP3    H279613   3.994   6.097  15.182 -0.0042 -0.5698  0.6281
19400TIP3   OH279614   4.401   5.651   4.435  0.1936 -0.0237 -0.1151
19400TIP3    H179615   4.382   5.742   4.459 -1.8387 -0.6724  0.8703
19400TIP3    H279616   4.428   5.610   4.516 -0.7367 -0.7401 -0.1562
19401TIP3   OH279617   3.458   2.579   2.691  0.5333  0.5609 -0.1443
19401TIP3    H179618   3.417   2.500   2.659  0.1814  0.8327 -0.3613
19401TIP3    H279619   3.499   2.619   2.614 -0.1307  1.1025 -0.2184
19402TIP3   OH279620   2.085   4.215   4.733 -0.0365 -0.0612 -0.7776
19402TIP3    H179621   2.141   4.140   4.715 -1.5289 -1.1132 -1.1611
19402TIP3    H279622   2.070   4.211   4.827  0.8464  0.4614 -0.6089
19403TIP3   OH279623   6.629   0.203   3.752  0.2161 -0.7325  0.0043
19403TIP3    H179624   6.717   0.229   3.727  0.1861 -1.7644 -1.2057
19403TIP3    H279625   6.573   0.237   3.682 -0.1640 -1.4390 -0.0426
19404TIP3   OH279626   5.258   5.846   4.837 -0.0246  0.5551 -0.3025
19404TIP3    H179627   5.333   5.901   4.858  1.2971 -0.6813 -1.6235
19404TIP3    H279628   5.271   5.821   4.745 -1.0433 -1.2202  0.0071
19405TIP3   OH279629   1.087   3.851   5.144 -0.2516  0.0984 -0.7510
19405TIP3    H179630   1.171   3.892   5.127  1.2332 -2.2803  0.6274
19405TIP3    H279631   1.077   3.786   5.074 -0.1360 -0.7656  0.0154
19406TIP3   OH279632   0.464   4.424   4.272  0.5095 -0.5716  1.0485
19406TIP3    H179633   0.556   4.446   4.285  0.1732  1.0155  0.8734
19406TIP3    H279634   0.435   4.483   4.202 -0.2969 -2.0094  0.1351
19407TIP3   OH279635   4.941   4.279   5.921  0.7807  0.1735 -0.1764
19407TIP3    H179636   4.980   4.366   5.921 -0.5505  0.8088  1.0327
19407TIP3    H279637   4.866   4.286   5.862 -2.2984  1.3425  3.6193
19408TIP3   OH279638   3.862   2.512   4.632 -0.5163  0.6978 -0.4973
19408TIP3    H179639   3.786   2.467   4.594 -0.9574  0.5929  0.5007
19408TIP3    H279640   3.856   2.601   4.599 -1.3830  0.8357 -0.0080
19409TIP3   OH279641   2.704   5.743   4.571 -0.5888  0.6221  0.2440
19409TIP3    H179642   2.623   5.757   4.619  0.1475  0.0036  1.7165
19409TIP3    H279643   2.721   5.649   4.580 -0.1878  0.5812 -0.8423
19410TIP3   OH279644   4.783   1.102   4.006  0.2493  0.5324  0.0616
19410TIP3    H179645   4.781   1.011   3.976  0.2878  0.3815  0.5223
19410TIP3    H279646   4.732   1.149   3.940  0.1432  0.1650 -0.1240
19411TIP3   OH279647   1.723   6.655   5.401 -0.2554  0.3335  0.7355
19411TIP3    H179648   1.630   6.630   5.397  0.0691 -1.0605  1.4184
19411TIP3    H279649   1.730   6.705   5.482 -0.4875  0.7604  0.4910
19412TIP3   OH279650   3.346   6.498   4.322 -0.7532 -1.0455 -0.3481
19412TIP3    H179651   3.348   6.403   4.310 -0.8076 -0.9820 -0.8648
19412TIP3    H279652   3.375   6.534   4.238 -1.5598 -0.5876 -0.4393
19413TIP3   OH279653   3.150   5.498   5.981 -0.1533  0.1400 -0.4232
19413TIP3    H179654   3.215   5.508   5.911  0.2592  0.1680 -0.0375
19413TIP3    H279655   3.174   5.564   6.046 -0.9015  0.5219 -0.5285
19414TIP3   OH279656   3.136   6.654   5.601 -0.2370  0.1625 -0.1930
19414TIP3    H179657   3.052   6.671   5.559 -1.0680  0.9735  1.7227
19414TIP3    H279658   3.186   6.735   5.588  0.5324 -0.5565 -1.9073
19415TIP3   OH279659   3.201   4.268   1.483 -0.0754  0.1153  0.5592
19415TIP3    H179660   3.166   4.183   1.456 -1.7453  0.6977  0.8532
19415TIP3    H279661   3.265   4.246   1.551 -0.1157 -0.9452  0.2717
19416TIP3   OH279662   1.941   4.756   4.189  0.3193  0.4351 -0.2440
19416TIP3    H179663   1.870   4.813   4.159  1.3770  1.5885 -0.6037
19416TIP3    H279664   1.897   4.681   4.228 -1.1027  1.3179 -0.1269
19417TIP3   OH279665   0.153   5.118   0.389 -0.4459 -0.2223 -0.4688
19417TIP3    H179666   0.221   5.075   0.443 -1.1404 -2.6400 -1.4654
19417TIP3    H279667   0.200   5.148   0.311 -0.0678  0.3277 -0.0363
19418TIP3   OH279668   0.729   6.241   5.505  0.4079 -0.6194 -0.2820
19418TIP3    H179669   0.710   6.334   5.511  1.3427 -0.3690 -0.9940
19418TIP3    H279670   0.700   6.216   5.417  1.7103 -0.6026 -0.7403
19419TIP3   OH279671   0.454   6.700   3.736 -0.3108 -0.2282 -0.4895
19419TIP3    H179672   0.448   6.770   3.800 -0.4038 -0.6508 -0.0374
19419TIP3    H279673   0.547   6.697   3.713 -0.3169  0.0841 -0.5563
19420TIP3   OH279674   2.500   3.954   4.124 -0.3301 -0.4198  0.2063
19420TIP3    H179675   2.477   3.873   4.078 -0.4778 -0.8728  1.0461
19420TIP3    H279676   2.515   3.925   4.215 -0.9036  0.5728  0.6243
19421TIP3   OH279677   1.348   3.238   4.292 -0.1785  0.3793 -0.3589
19421TIP3    H179678   1.341   3.270   4.382  0.4717 -0.8711  0.1457
19421TIP3    H279679   1.346   3.317   4.238  1.5996  1.2965  0.8733
19422TIP3   OH279680   5.770   2.713   3.247 -0.3628  0.2222  0.3717
19422TIP3    H179681   5.686   2.721   3.201 -1.0598 -2.3310  1.1437
19422TIP3    H279682   5.805   2.629   3.219  1.5443  0.8620  0.7485
19423TIP3   OH279683   2.694   2.400   5.848  0.0770 -0.2383 -0.1273
19423TIP3    H179684   2.603   2.370   5.857  0.3940 -0.9311  0.9533
19423TIP3    H279685   2.692   2.462   5.775 -1.4973  0.6492  0.6258
19424TIP3   OH279686   1.675   6.120   5.803 -0.0975  0.0151 -0.6045
19424TIP3    H179687   1.617   6.045   5.794 -1.0669  0.6204  0.3838
19424TIP3    H279688   1.738   6.093   5.871  1.3597 -0.9804 -2.3200
19425TIP3   OH279689   5.764   5.061   5.149 -0.7198  0.2995  0.2306
19425TIP3    H179690   5.856   5.064   5.177 -1.1034  0.8843  1.4420
19425TIP3    H279691   5.765   5.097   5.061  0.3538 -0.5710 -0.1304
19426TIP3   OH279692   3.864   6.504   2.850 -0.3884  0.2024 -0.0046
19426TIP3    H179693   3.931   6.546   2.906 -0.3675 -0.6698  0.6409
19426TIP3    H279694   3.848   6.420   2.892  0.1292 -0.7711 -1.7174
19427TIP3   OH279695   3.737   6.542   5.051 -0.6123  0.0724 -0.9284
19427TIP3    H179696   3.714   6.472   5.113 -0.5781  0.4827 -0.4466
19427TIP3    H279697   3.732   6.622   5.103  0.8934  0.2756 -1.0778
19428TIP3   OH279698   4.296   1.820   5.406  0.5418  0.3237  0.0284
19428TIP3    H179699   4.367   1.877   5.378  1.4190 -0.4348  0.6788
19428TIP3    H279700   4.271   1.853   5.493 -1.7686  2.2971 -1.3218
19429TIP3   OH279701   1.984   6.528   4.802 -0.1363 -0.2755  0.2256
19429TIP3    H179702   1.907   6.482   4.834 -0.0727  0.2281  1.1214
19429TIP3    H279703   1.981   6.613   4.844  1.8782 -0.9074  1.7338
19430TIP3   OH279704   5.940   1.063   4.618  0.1751  0.0339  0.2495
19430TIP3    H179705   5.863   1.111   4.647 -0.0542 -0.2956  0.1779
19430TIP3    H279706   5.907   0.996   4.559  0.7938  1.8205 -2.2172
19431TIP3   OH279707   4.480   4.800   4.093  0.6703 -0.4844 -0.4102
19431TIP3    H179708   4.497   4.793   4.187 -0.0281  1.4216 -0.1183
19431TIP3    H279709   4.513   4.886   4.069 -0.7474 -0.2317 -1.5355
19432TIP3   OH279710   3.275   5.121   2.665 -0.0701  0.1471 -0.4833
19432TIP3    H179711   3.231   5.082   2.741 -1.6477  1.1246 -0.8670
19432TIP3    H279712   3.266   5.055   2.596  0.1477 -0.1682 -0.2119
19433TIP3   OH279713   3.615   6.373   3.220  0.0980  0.1239  0.1448
19433TIP3    H179714   3.681   6.432   3.183  0.2485  0.3820  0.8136
19433TIP3    H279715   3.598   6.309   3.151 -0.7782  1.5275 -0.9631
19434TIP3   OH279716   4.386   5.707   5.377  0.2483 -0.4188  0.4976
19434TIP3    H179717   4.456   5.675   5.433 -1.3039 -2.5584  1.2862
19434TIP3    H279718   4.377   5.640   5.309  0.6013  1.0541 -1.0515
19435TIP3   OH279719   4.957   4.668   1.657  0.1444 -0.1071 -0.1904
19435TIP3    H179720   4.914   4.598   1.706 -0.4492  0.3759 -0.0167
19435TIP3    H279721   4.911   4.671   1.573 -1.2322  1.4786  0.6012
19436TIP3   OH279722   7.002   4.972   5.689 -0.3580  0.6062  0.2121
19436TIP3    H179723   7.021   4.984   5.596 -1.2556  0.8809  0.0531
19436TIP3    H279724   6.966   5.056   5.716 -0.5654  0.3641  0.6855
19437TIP3   OH279725   0.160   4.295   0.791 -0.1421 -0.1257  0.1041
19437TIP3    H179726   0.234   4.355   0.793 -0.5985  0.4270  0.6350
19437TIP3    H279727   0.155   4.266   0.700  0.6110 -0.0243  0.0325
19438TIP3   OH279728   7.047   0.313   2.358 -0.0054  0.5394 -0.4216
19438TIP3    H179729   7.115   0.358   2.307 -0.1523  3.7201  2.0511
19438TIP3    H279730   6.965   0.353   2.330 -0.1775  1.6097  1.5939
19439TIP3   OH279731   4.816   6.786   3.641  0.5172  0.4696  0.2228
19439TIP3    H179732   4.722   6.798   3.649  0.2856 -0.2328 -1.3401
19439TIP3    H279733   4.850   6.807   3.728 -1.0090  1.3101  0.6278
19440TIP3   OH279734   6.767   5.764   3.461 -0.0974  0.0171  0.2857
19440TIP3    H179735   6.760   5.672   3.436  1.2311  0.1051 -0.4567
19440TIP3    H279736   6.738   5.767   3.552 -0.0764 -1.1459  0.3352
19441TIP3   OH279737   2.499   1.333   4.473  0.1323  0.5018 -0.5198
19441TIP3    H179738   2.579   1.385   4.475  0.6605 -0.3220  0.3154
19441TIP3    H279739   2.447   1.371   4.403  0.3011  2.4629  0.3964
19442TIP3   OH279740   1.338   0.069   4.663 -0.3295 -0.3848 -0.0903
19442TIP3    H179741   1.383   0.111   4.590  0.6531 -0.8022  0.2566
19442TIP3    H279742   1.332   0.138   4.730  1.6179 -0.8584  0.6204
19443TIP3   OH279743   5.673   0.584   5.394 -0.7995 -0.0405 -0.0046
19443TIP3    H179744   5.719   0.535   5.461  2.1119  1.3660 -0.8586
19443TIP3    H279745   5.686   0.533   5.314 -0.3431  0.5773 -0.3298
19444TIP3   OH279746   5.244   1.236   4.504  0.0564 -0.1769  0.4091
19444TIP3    H179747   5.261   1.323   4.542 -0.2120 -0.5434  1.3678
19444TIP3    H279748   5.151   1.221   4.518 -0.2234  0.0115 -1.0991
19445TIP3   OH279749   4.489   4.061   4.825  0.9097  0.5143 -0.1565
19445TIP3    H179750   4.578   4.032   4.809  1.0483 -1.0237  2.9824
19445TIP3    H279751   4.435   4.008   4.767  1.7076 -1.4622  0.8912
19446TIP3   OH279752   4.895   0.540   0.836  0.2360  0.0592 -0.3464
19446TIP3    H179753   4.803   0.518   0.846  0.3726 -1.1560 -1.6001
19446TIP3    H279754   4.898   0.596   0.757  0.7154 -0.9575 -1.0615
19447TIP3   OH279755   4.820   6.709   4.225  0.1200  0.2001  0.2246
19447TIP3    H179756   4.792   6.797   4.248  0.8049  0.1064  1.4934
19447TIP3    H279757   4.818   6.707   4.129  3.4378  2.7277  0.0100
19448TIP3   OH279758   2.071   5.316   1.495  0.6164 -0.2018 -0.1653
19448TIP3    H179759   2.006   5.300   1.427 -0.7487 -0.4144  1.1576
19448TIP3    H279760   2.080   5.411   1.498  0.7656 -0.1952 -0.7011
19449TIP3   OH279761   6.135   2.351   2.421  0.0275  0.0725 -0.7158
19449TIP3    H179762   6.132   2.432   2.472 -0.6853 -0.4462  0.1000
19449TIP3    H279763   6.047   2.314   2.432  0.7034 -1.4026 -0.0824
19450TIP3   OH279764   6.627   4.940   5.477  0.1213 -0.4099  0.6106
19450TIP3    H179765   6.665   4.991   5.406  0.5661 -0.2025  0.9908
19450TIP3    H279766   6.626   5.001   5.552  0.1182 -0.7799  0.9113
19451TIP3   OH279767   0.577   3.694   2.352 -0.1129  0.0956  0.2134
19451TIP3    H179768   0.497   3.692   2.404 -0.6510  1.4943 -0.5538
19451TIP3    H279769   0.553   3.657   2.268  0.2957 -0.3832  0.3002
19452TIP3   OH279770   6.985   3.410   5.466 -0.7449 -0.0578 -0.3212
19452TIP3    H179771   7.058   3.472   5.461 -1.7127  1.0171 -1.1473
19452TIP3    H279772   6.943   3.415   5.381 -2.0045 -0.4253  0.2753
19453TIP3   OH279773   0.391   4.821   5.347 -0.2160 -0.2141 -0.4811
19453TIP3    H179774   0.385   4.909   5.310 -1.4524 -0.4518 -0.8726
19453TIP3    H279775   0.467   4.782   5.304 -1.1115 -0.1740 -2.1230
19454TIP3   OH279776   5.539   1.003   2.931  0.8224  0.1936 -0.3241
19454TIP3    H179777   5.570   1.001   2.841 -0.6788 -1.5660 -0.8191
19454TIP3    H279778   5.486   0.924   2.941  0.1892  0.8372  1.8243
19455TIP3   OH279779   6.465   5.489   4.752  0.0337 -0.0257 -0.1635
19455TIP3    H179780   6.377   5.525   4.740  0.1268 -0.0891 -1.0587
19455TIP3    H279781   6.453   5.414   4.810 -0.4554  0.1485 -0.0384
19456TIP3   OH279782   1.193   0.859   4.824 -0.4104  0.0479 -0.3376
19456TIP3    H179783   1.136   0.935   4.817 -1.7576 -1.0234 -1.3434
19456TIP3    H279784   1.193   0.837   4.917 -1.0502  0.5026 -0.2291
19457TIP3   OH279785   6.003   7.050   4.578 -0.1058  0.5593 -0.0202
19457TIP3    H179786   6.094   7.076   4.583 -0.6619  2.4069  0.7962
19457TIP3    H279787   5.982   7.017   4.665 -0.6699  1.7289  0.2978
19458TIP3   OH279788   0.733   2.530   3.832  0.5067  0.0757  0.3147
19458TIP3    H179789   0.737   2.566   3.921 -0.2518  0.4008  0.2236
19458TIP3    H279790   0.640   2.519   3.815  0.6748 -0.4898 -0.2440
19459TIP3   OH279791   5.508   4.456   3.914  0.0189 -0.9785  0.2198
19459TIP3    H179792   5.523   4.384   3.976  0.3163 -1.6358 -0.6069
19459TIP3    H279793   5.474   4.413   3.836  1.6659 -0.4066 -0.8327
19460TIP3   OH279794   1.782   5.604   2.741 -0.0877  0.1420 -0.0474
19460TIP3    H179795   1.824   5.688   2.730 -1.9142  1.2850  1.2977
19460TIP3    H279796   1.834   5.543   2.689  2.5602  1.6622  0.7583
19461TIP3   OH279797   0.389   0.485   5.861 -0.1476 -0.2299 -0.1284
19461TIP3    H179798   0.383   0.404   5.912 -1.5350 -0.7638 -1.1048
19461TIP3    H279799   0.301   0.496   5.824  0.7276  0.3135 -2.1153
19462TIP3   OH279800   3.345   6.068   5.244  0.1502  0.3879  0.0998
19462TIP3    H179801   3.393   6.078   5.326 -0.0420 -1.5914  0.4789
19462TIP3    H279802   3.401   6.111   5.179  2.3177 -1.5956  0.5773
19463TIP3   OH279803   6.600   4.143   3.092 -0.1352 -0.2861  0.4812
19463TIP3    H179804   6.628   4.182   3.175 -1.7848 -0.3185  1.0573
19463TIP3    H279805   6.641   4.056   3.091  2.7781  1.0258 -0.3783
19464TIP3   OH279806   1.982   2.728   1.217  0.2098 -0.5350  0.1987
19464TIP3    H179807   2.072   2.728   1.249  0.2975  0.1237 -0.0266
19464TIP3    H279808   1.936   2.787   1.277  0.3681  0.6946 -0.8530
19465TIP3   OH279809   4.874   6.351   4.531  0.5059  0.1623 -0.0591
19465TIP3    H179810   4.861   6.423   4.592 -1.1088  1.1349 -1.5312
19465TIP3    H279811   4.835   6.275   4.575  0.5255  0.5659  0.6610
19466TIP3   OH279812   5.410   3.179   5.120  0.0366  0.1231  0.1376
19466TIP3    H179813   5.345   3.182   5.050  0.0470 -1.2968  0.0574
19466TIP3    H279814   5.489   3.215   5.081 -0.0721 -0.2800 -0.4696
19467TIP3   OH279815   1.687   1.196   5.105 -0.1180  0.4870 -0.3624
19467TIP3    H179816   1.633   1.190   5.184 -2.7187 -0.9580 -2.2096
19467TIP3    H279817   1.625   1.211   5.034  2.0814  0.6279 -2.3214
19468TIP3   OH279818   3.482   5.815   4.112 -0.0896  0.3647 -0.1660
19468TIP3    H179819   3.565   5.775   4.085 -0.6029 -0.3924 -0.6380
19468TIP3    H279820   3.444   5.848   4.030 -0.6774 -0.0907 -0.0782
19469TIP3   OH279821   7.149   3.916   4.642  0.1525 -0.4302 -0.3510
19469TIP3    H179822   7.230   3.867   4.632  1.1836  1.3537 -0.9790
19469TIP3    H279823   7.166   3.977   4.713 -1.0210 -0.7986  0.2501
19470TIP3   OH279824   4.858   1.112   3.643 -0.0634 -0.3919  0.2393
19470TIP3    H179825   4.764   1.118   3.657 -0.1691 -1.2237 -0.0473
19470TIP3    H279826   4.897   1.166   3.712 -0.7793  0.7882 -0.2775
19471TIP3   OH279827   5.605   4.879   3.408 -0.1638  0.8639 -0.3204
19471TIP3    H179828   5.525   4.866   3.356  0.5021 -3.0905 -0.5362
19471TIP3    H279829   5.672   4.902   3.344 -0.2575  0.1017 -0.7020
19472TIP3   OH279830   3.566   5.412   4.517 -0.3747  0.2913 -0.1611
19472TIP3    H179831   3.540   5.429   4.427  0.1426  0.9173 -0.1953
19472TIP3    H279832   3.600   5.495   4.549  0.5749 -0.2245  0.2217
19473TIP3   OH279833   1.109   1.645   1.934 -0.4549  0.6407  0.1520
19473TIP3    H179834   1.197   1.661   1.969 -0.1864  1.1247 -0.7216
19473TIP3    H279835   1.124   1.622   1.842 -1.2340  0.5830  0.0395
19474TIP3   OH279836   2.275   6.866   3.307 -0.5890 -0.6788 -0.2032
19474TIP3    H179837   2.202   6.923   3.282  0.1915  1.0009  1.1780
19474TIP3    H279838   2.352   6.923   3.303  0.4878 -2.1292 -0.5455
19475TIP3   OH279839   3.539   5.825   4.552  1.1597 -0.1773 -0.1199
19475TIP3    H179840   3.520   5.908   4.597 -0.0323 -1.0450  1.0355
19475TIP3    H279841   3.466   5.814   4.491  0.9824 -0.6716  0.1762
19476TIP3   OH279842   0.575   0.528   4.849  0.5962 -0.1515 -0.3061
19476TIP3    H179843   0.549   0.617   4.874  1.7206  0.5783 -1.6874
19476TIP3    H279844   0.668   0.523   4.872 -0.0441 -1.8407  2.1263
19477TIP3   OH279845   3.888   3.822  14.901 -0.4926 -1.1718 -0.5121
19477TIP3    H179846   3.814   3.853  14.954 -0.4623 -2.1998  0.1584
19477TIP3    H279847   3.850   3.807  14.814 -0.4714  0.8176 -0.8750
19478TIP3   OH279848   5.662   1.428   3.415 -0.5263 -0.1625 -0.1495
19478TIP3    H179849   5.615   1.501   3.378 -0.6910  0.3890  1.1183
19478TIP3    H279850   5.594   1.365   3.441 -0.7317  1.1821  2.8598
19479TIP3   OH279851   3.938   7.087   3.536  0.8174  0.2714 -0.3403
19479TIP3    H179852   3.934   7.123   3.447 -1.5521  0.7200 -0.0851
19479TIP3    H279853   3.956   7.163   3.592 -1.4904  0.6925 -0.0871
19480TIP3   OH279854   6.241   0.618   2.731 -0.1845 -0.1977  0.0761
19480TIP3    H179855   6.290   0.687   2.776  0.9723 -0.3828 -0.8807
19480TIP3    H279856   6.258   0.540   2.784 -2.1685  0.3774  1.6355
19481TIP3   OH279857   4.103   5.870   3.141  0.2801  0.6330  0.5820
19481TIP3    H179858   4.070   5.790   3.183 -1.5893  1.2715  0.3728
19481TIP3    H279859   4.197   5.870   3.160  0.7570 -2.8624 -1.4919
19482TIP3   OH279860   3.915   5.345   5.604  0.1430  0.0440  0.0064
19482TIP3    H179861   3.893   5.305   5.688  0.4543  2.2130  1.1429
19482TIP3    H279862   3.992   5.399   5.622  1.0834 -0.5760 -1.9898
19483TIP3   OH279863   3.142   4.677   2.718  0.3321  0.5772  0.4919
19483TIP3    H179864   3.066   4.699   2.771  0.4133  1.8742  0.0822
19483TIP3    H279865   3.208   4.742   2.742  1.7834 -1.3260  1.8264
19484TIP3   OH279866   3.279   6.204   4.744 -0.0447  0.0597 -0.2180
19484TIP3    H179867   3.215   6.140   4.776 -0.7729  1.3884  1.0706
19484TIP3    H279868   3.301   6.257   4.821  3.1537 -0.7867 -0.4701
19485TIP3   OH279869   2.195   2.492   6.192 -0.3059  0.5292  0.1259
19485TIP3    H179870   2.142   2.420   6.156 -0.8822  0.1404  1.7310
19485TIP3    H279871   2.283   2.456   6.200  0.3228  1.2624 -2.8227
19486TIP3   OH279872   1.643   2.947   1.862 -0.1619 -0.0503 -0.2535
19486TIP3    H179873   1.557   2.987   1.847 -0.7261 -1.0022  0.3713
19486TIP3    H279874   1.625   2.853   1.866  0.8335 -0.2210  0.3897
19487TIP3   OH279875   5.545   6.819   1.756 -0.2182  0.4349  0.5460
19487TIP3    H179876   5.617   6.879   1.774  0.8187  0.3355 -2.8195
19487TIP3    H279877   5.588   6.741   1.720 -1.8774 -0.3899  0.3199
19488TIP3   OH279878   5.146   0.532   4.933  0.5388 -0.3078  0.6578
19488TIP3    H179879   5.238   0.548   4.911 -0.0996  1.3594 -0.9261
19488TIP3    H279880   5.098   0.599   4.884 -1.8430 -3.5752 -1.7106
19489TIP3   OH279881   5.799   1.395   3.653  0.0117 -0.2818  0.0802
19489TIP3    H179882   5.734   1.380   3.584 -2.2646  0.2059  2.0527
19489TIP3    H279883   5.879   1.417   3.606 -1.1321 -1.2526 -2.4321
19490TIP3   OH279884   5.066   3.785   2.723 -0.1909 -0.0488  0.1126
19490TIP3    H179885   5.124   3.802   2.798 -1.9255 -1.6101  1.8849
19490TIP3    H279886   4.980   3.814   2.753 -1.0254 -1.2925 -1.0141
19491TIP3   OH279887   6.804   2.804   4.598 -0.5051  0.3002 -0.2857
19491TIP3    H179888   6.816   2.730   4.539  1.0532  2.3384 -2.6657
19491TIP3    H279889   6.816   2.881   4.542  1.5064  2.3374  2.8099
19492TIP3   OH279890   3.860   0.225   3.884  0.2745 -0.2882 -0.3685
19492TIP3    H179891   3.776   0.204   3.925  0.5064  0.7603  0.6803
19492TIP3    H279892   3.886   0.307   3.925  2.1153 -0.9236 -0.2247
19493TIP3   OH279893   0.186   2.961   3.531 -0.2297 -0.2301 -0.1635
19493TIP3    H179894   0.223   2.874   3.542 -1.3022 -0.6236  0.4126
19493TIP3    H279895   0.104   2.947   3.483 -0.5263  0.4186  0.1346
19494TIP3   OH279896   3.040   6.729   5.088 -0.1241  0.0370 -0.6552
19494TIP3    H179897   3.044   6.796   5.156 -0.7987  0.3319 -0.9041
19494TIP3    H279898   3.072   6.772   5.009 -0.7077  0.1112 -0.8512
19495TIP3   OH279899   3.485   6.398   5.411  0.8741 -0.2782  0.5851
19495TIP3    H179900   3.536   6.322   5.438  0.2617 -0.4477  1.2699
19495TIP3    H279901   3.514   6.469   5.469  2.2034  0.2904 -0.7392
19496TIP3   OH279902   4.120   5.430   2.398  0.1183 -0.4973 -0.5407
19496TIP3    H179903   4.207   5.470   2.400 -0.6645  1.2596 -0.0409
19496TIP3    H279904   4.115   5.389   2.312  1.3441 -0.3699 -0.6853
19497TIP3   OH279905   0.442   6.149   4.245 -0.1905 -0.9295  0.6891
19497TIP3    H179906   0.472   6.112   4.328 -3.3375 -0.9225  1.8968
19497TIP3    H279907   0.347   6.136   4.246 -0.4548  0.4008 -2.2598
19498TIP3   OH279908   6.041   2.498   3.277  0.0237  0.2787 -0.0619
19498TIP3    H179909   5.988   2.423   3.250 -0.7135  1.8529 -3.1686
19498TIP3    H279910   5.997   2.532   3.355 -0.0863 -1.9872  0.8992
19499TIP3   OH279911   2.093   0.383   3.865  0.2677  0.3014 -0.4436
19499TIP3    H179912   2.141   0.303   3.842  1.6185  1.0114 -0.1411
19499TIP3    H279913   2.065   0.368   3.955  0.8197  0.3092 -0.2688
19500TIP3   OH279914   2.613   1.943   2.560  0.7851  0.0819 -0.4529
19500TIP3    H179915   2.644   2.002   2.630  0.3119 -0.5558  0.3078
19500TIP3    H279916   2.621   1.994   2.480  2.3026  0.4896 -0.0679
19501TIP3   OH279917   3.171   5.630   5.268  0.4517  0.1545 -0.8922
19501TIP3    H179918   3.237   5.644   5.200  1.7504  0.5638  0.4294
19501TIP3    H279919   3.156   5.716   5.306  0.8048 -0.3074  0.3181
19502TIP3   OH279920   4.365   2.410   3.727 -0.5150 -0.2213 -0.0490
19502TIP3    H179921   4.290   2.365   3.766 -0.4714  0.5217  0.8869
19502TIP3    H279922   4.340   2.421   3.635 -1.4102 -0.2733  0.1795
19503TIP3   OH279923   1.177   6.740   3.637  0.3591 -0.1799 -0.3565
19503TIP3    H179924   1.219   6.748   3.723 -0.6105 -1.9633  0.3098
19503TIP3    H279925   1.246   6.709   3.579  0.7059 -0.1839  0.0531
19504TIP3   OH279926   5.634   1.501   3.820  0.5445  0.7586 -0.1867
19504TIP3    H179927   5.554   1.496   3.768 -0.3055  1.6353  1.0058
19504TIP3    H279928   5.701   1.458   3.766 -1.5048 -3.2370  0.3129
19505TIP3   OH279929   5.544   5.283   3.937 -0.0078  0.0301  0.3547
19505TIP3    H179930   5.572   5.366   3.901  0.2310  0.0055  0.4740
19505TIP3    H279931   5.615   5.258   3.996 -0.7806  0.4923  1.5002
19506TIP3   OH279932   2.963   6.177   4.310 -0.1124  0.7760 -0.2711
19506TIP3    H179933   2.882   6.173   4.361 -2.3003 -0.1345 -3.6783
19506TIP3    H279934   3.023   6.119   4.356 -2.0577 -0.1742  1.1524
19507TIP3   OH279935   2.542   4.807   3.517 -0.2824  0.1022 -0.3229
19507TIP3    H179936   2.495   4.794   3.599  0.4983 -1.8755 -0.1699
19507TIP3    H279937   2.487   4.766   3.450 -0.9786  1.8155 -0.8278
19508TIP3   OH279938   3.333   5.885   2.937 -0.3751 -0.7789  1.0246
19508TIP3    H179939   3.374   5.815   2.886  1.5107  0.1357  1.2612
19508TIP3    H279940   3.246   5.896   2.897  0.9883 -0.2198 -1.8897
19509TIP3   OH279941   4.699   3.926   2.530  0.1557  0.1746  0.0881
19509TIP3    H179942   4.753   3.918   2.609  0.8733 -1.2610 -0.5205
19509TIP3    H279943   4.717   4.014   2.498  0.5564  0.4502  1.0387
19510TIP3   OH279944   2.819   4.686   1.909 -0.6458 -0.3161 -1.2170
19510TIP3    H179945   2.887   4.724   1.854 -0.4910  0.9098 -0.1900
19510TIP3    H279946   2.848   4.597   1.926  0.5762  0.1202 -1.0005
19511TIP3   OH279947   0.047   4.203   5.120 -0.0254  0.2102  0.4933
19511TIP3    H179948   0.030   4.165   5.206 -2.1645 -0.8556 -0.3421
19511TIP3    H279949   0.014   4.292   5.125 -1.9881 -0.4623  0.2398
19512TIP3   OH279950   5.198   0.439   5.266 -0.5327 -0.1336  0.0398
19512TIP3    H179951   5.127   0.410   5.209  0.1487  0.0057 -0.8919
19512TIP3    H279952   5.162   0.515   5.312 -1.2656 -0.5678  0.1873
19513TIP3   OH279953   1.905   4.814  14.674 -0.0709 -0.1568 -0.0109
19513TIP3    H179954   1.941   4.808  14.586  1.1722 -0.4434  0.5046
19513TIP3    H279955   1.837   4.747  14.677 -0.7288  0.4515 -1.0218
19514TIP3   OH279956   4.089   5.894   5.175 -0.4670  0.0514 -0.3713
19514TIP3    H179957   4.127   5.959   5.234 -3.1690  1.6195 -0.2887
19514TIP3    H279958   4.131   5.910   5.091 -1.1314  1.9611 -0.3563
19515TIP3   OH279959   3.020   5.310   2.255  0.1878  0.1338 -0.5934
19515TIP3    H179960   2.933   5.349   2.248 -0.0214 -0.2782 -0.3290
19515TIP3    H279961   3.020   5.266   2.340  0.4907 -0.2696 -0.7995
19516TIP3   OH279962   6.371   4.935   2.024 -0.2717 -0.2604 -0.0867
19516TIP3    H179963   6.322   4.947   1.942 -1.1495 -1.8070  0.1903
19516TIP3    H279964   6.413   4.850   2.014  1.1363  0.3711  0.3256
19517TIP3   OH279965   6.185   0.993   5.168  0.2408 -0.0529 -0.2500
19517TIP3    H179966   6.269   0.964   5.132 -0.1456  0.4414 -1.5567
19517TIP3    H279967   6.119   0.948   5.116 -0.3219 -0.1695  0.5518
19518TIP3   OH279968   5.917   4.560   3.334 -0.1059  0.0551 -0.3157
19518TIP3    H179969   5.934   4.574   3.427 -1.8490 -1.4552  0.2606
19518TIP3    H279970   5.950   4.639   3.292 -0.1402  1.1800  1.6802
19519TIP3   OH279971   6.168   6.534   4.324 -0.2330  0.2426  0.1884
19519TIP3    H179972   6.076   6.516   4.307 -0.4685  2.6801 -1.4703
19519TIP3    H279973   6.215   6.466   4.276 -1.1564 -2.0671  2.4750
19520TIP3   OH279974   3.553   4.137   3.532  0.0106 -0.1522 -0.2186
19520TIP3    H179975   3.634   4.181   3.508 -0.0029  0.0083  0.0302
19520TIP3    H279976   3.576   4.044   3.533  0.5669 -0.0035  1.3101
19521TIP3   OH279977   6.023   5.278  15.230 -0.6321 -0.0664 -0.1008
19521TIP3    H179978   6.076   5.222  15.288 -1.0272 -1.6514 -1.2392
19521TIP3    H279979   5.963   5.323  15.289  0.7448  0.3644  1.0103
19522TIP3   OH279980   1.224   1.655   2.601 -0.1570 -0.0538  0.6064
19522TIP3    H179981   1.146   1.670   2.654 -0.8778  0.5717 -0.6091
19522TIP3    H279982   1.212   1.567   2.566  0.2720 -0.4283  1.3716
19523TIP3   OH279983   2.286   0.086   0.684  0.3383 -0.2241 -0.5990
19523TIP3    H179984   2.250   0.154   0.740 -0.6901 -0.3265 -1.1145
19523TIP3    H279985   2.213   0.026   0.668  1.6068 -2.3047  1.0911
19524TIP3   OH279986   3.164   2.838   1.732  0.1828  0.3090  0.2130
19524TIP3    H179987   3.125   2.874   1.652  0.7393  0.6411  0.0869
19524TIP3    H279988   3.233   2.779   1.701 -0.5650 -0.6911  0.4238
19525TIP3   OH279989   5.177   6.166   5.803  0.4917 -0.5723  0.2128
19525TIP3    H179990   5.141   6.138   5.887 -0.8800  0.5292  0.0165
19525TIP3    H279991   5.167   6.262   5.804  2.0810 -0.3938 -0.4682
19526TIP3   OH279992   6.273   6.214   5.021 -0.1021 -0.0864  0.1499
19526TIP3    H179993   6.265   6.227   5.116 -0.2373  0.1030  0.1128
19526TIP3    H279994   6.230   6.131   5.005 -0.2521 -0.0255  0.2299
19527TIP3   OH279995   0.574   6.981   3.321 -0.3166  0.0790 -0.1287
19527TIP3    H179996   0.650   6.924   3.311  1.3872  1.9412  1.7378
19527TIP3    H279997   0.549   7.003   3.232  3.3813  2.0197 -0.7718
19528TIP3   OH279998   5.633   0.265   5.938  0.3406 -0.1548  0.4917
19528TIP3    H179999   5.545   0.274   5.974 -0.7711  0.1876 -2.1590
19528TIP3    H280000   5.691   0.297   6.007 -1.6094 -0.4440  2.3019
19529TIP3   OH280001   2.472   3.216   4.857 -0.1342 -0.1968  0.3229
19529TIP3    H180002   2.444   3.203   4.947 -0.4487 -0.7610  0.1513
19529TIP3    H280003   2.445   3.136   4.812 -2.5841  1.2505 -0.8975
19530TIP3   OH280004   5.427   0.166   3.448  0.0984 -0.0956 -0.3511
19530TIP3    H180005   5.501   0.182   3.390  1.5146 -0.1130  1.3909
19530TIP3    H280006   5.354   0.214   3.410  1.7583  2.3010 -0.5480
19531TIP3   OH280007   4.201   4.176   0.696 -0.0878 -0.4508 -0.1656
19531TIP3    H180008   4.167   4.228   0.769 -0.6922  1.0389 -1.4803
19531TIP3    H280009   4.278   4.131   0.732 -0.3169  0.3451  1.3421
19532TIP3   OH280010   3.631   1.187   5.802  0.5908 -0.0236  0.1338
19532TIP3    H180011   3.582   1.264   5.832  0.4824 -0.3519  0.7861
19532TIP3    H280012   3.698   1.173   5.869 -0.4698 -1.5415  0.9003
19533TIP3   OH280013   5.764   4.349   2.408 -0.4435  0.3048 -0.4608
19533TIP3    H180014   5.858   4.345   2.424 -0.6904  0.6409  1.1621
19533TIP3    H280015   5.732   4.414   2.470 -2.3085 -2.6894  1.8099
19534TIP3   OH280016   6.413   1.884   3.662 -0.0370  0.1892  0.8175
19534TIP3    H180017   6.389   1.898   3.570 -0.4556  0.9128  1.0310
19534TIP3    H280018   6.356   1.943   3.710  0.2991 -0.0718  1.5347
19535TIP3   OH280019   7.025   0.797   2.476  0.3122  0.2763 -0.0606
19535TIP3    H180020   7.116   0.795   2.507 -0.0316  0.1059  0.9630
19535TIP3    H280021   6.988   0.714   2.504  0.3959 -0.5254 -2.2662
19536TIP3   OH280022   2.080   4.645   2.550 -0.0427 -0.2019  0.0449
19536TIP3    H180023   2.035   4.576   2.501 -0.1612 -0.4378  0.4744
19536TIP3    H280024   2.130   4.598   2.617  0.2473  0.1046  0.0458
19537TIP3   OH280025   3.260   3.866   4.574  0.2879  0.1001 -0.1106
19537TIP3    H180026   3.219   3.866   4.488 -0.7195  0.9337  0.3476
19537TIP3    H280027   3.284   3.958   4.589  3.0680 -0.5084 -0.6991
19538TIP3   OH280028   4.501   5.958   5.306  0.0902  0.3496 -0.0889
19538TIP3    H180029   4.473   5.868   5.322 -0.3711  0.2938 -1.2013
19538TIP3    H280030   4.497   5.999   5.392  0.3892 -0.7111  0.4492
19539TIP3   OH280031   4.593   4.957   3.873  0.1167 -0.4181  0.2081
19539TIP3    H180032   4.619   4.984   3.785  2.0255  1.9044  1.4033
19539TIP3    H280033   4.647   4.881   3.892 -0.5392 -1.1227 -0.7480
19540TIP3   OH280034   5.347   0.019   5.837 -0.5861  0.1177 -0.5529
19540TIP3    H180035   5.379  -0.069   5.856 -0.0104  0.2944 -0.6951
19540TIP3    H280036   5.312   0.013   5.748 -1.5982 -0.2502 -0.1401
19541TIP3   OH280037   2.087   6.662   1.925 -0.9234  0.0715 -0.3791
19541TIP3    H180038   2.179   6.644   1.906 -1.1540  1.1205 -2.5006
19541TIP3    H280039   2.040   6.590   1.883 -1.1250 -0.1854  0.2748
19542TIP3   OH280040   4.967   6.602   3.119  0.4916 -0.3986  0.5798
19542TIP3    H180041   4.945   6.575   3.029 -1.3366  0.1591  0.8404
19542TIP3    H280042   5.056   6.570   3.132 -0.4338 -3.5502 -0.2505
19543TIP3   OH280043   6.155   6.449   5.459 -0.3675  0.3623 -0.4000
19543TIP3    H180044   6.112   6.503   5.393  0.6731  2.4691  0.6112
19543TIP3    H280045   6.106   6.466   5.540 -0.1481 -0.3472 -0.1104
19544TIP3   OH280046   2.615   5.255   5.340  0.3330  0.6880  0.7607
19544TIP3    H180047   2.612   5.280   5.432  1.2686  3.5451  0.0549
19544TIP3    H280048   2.554   5.314   5.296 -0.5354 -1.0195 -0.3809
19545TIP3   OH280049   4.365   0.027   5.633 -0.4255  0.2526  0.1157
19545TIP3    H180050   4.426   0.027   5.707 -0.0820  0.1574 -0.1649
19545TIP3    H280051   4.309   0.103   5.648 -2.2153 -1.3799  2.0025
19546TIP3   OH280052   3.005   6.629   4.263 -0.3844 -0.3562  0.1491
19546TIP3    H180053   2.921   6.583   4.272 -0.2940 -0.8428 -1.3504
19546TIP3    H280054   3.041   6.596   4.180  1.1827  0.0137  0.6749
19547TIP3   OH280055   4.460   6.111   6.105  0.1518  0.3187  0.1766
19547TIP3    H180056   4.542   6.064   6.088  0.1689  0.5557 -0.4138
19547TIP3    H280057   4.395   6.068   6.049 -0.0860  0.2586  0.4959
19548TIP3   OH280058   0.629   2.850   3.101  0.2201  0.2039 -0.2630
19548TIP3    H180059   0.700   2.889   3.050  0.0674 -1.1434 -1.5200
19548TIP3    H280060   0.549   2.875   3.056 -0.2105  2.5071  1.6782
19549TIP3   OH280061   1.115   2.348   3.985  0.7632  0.4221 -0.5111
19549TIP3    H180062   1.196   2.347   3.933  0.3106  0.9242 -1.2328
19549TIP3    H280063   1.057   2.286   3.940  0.2342  1.1436 -0.8206
19550TIP3   OH280064   0.592   3.750   5.041 -0.2778 -0.0174 -0.0338
19550TIP3    H180065   0.648   3.738   5.118 -0.3536  2.0014  0.3519
19550TIP3    H280066   0.649   3.730   4.967 -0.3595 -2.5564  0.5129
19551TIP3   OH280067   1.104   3.921   3.674  0.0604  0.3303  0.1080
19551TIP3    H180068   1.013   3.905   3.653  0.6464 -0.8408 -1.6304
19551TIP3    H280069   1.145   3.834   3.674  0.7754  0.5928  2.9378
19552TIP3   OH280070   2.517   5.604   2.232  0.1188  0.7026  0.1387
19552TIP3    H180071   2.513   5.697   2.211 -0.4617  0.3547 -1.4327
19552TIP3    H280072   2.449   5.591   2.298 -1.6768  0.9438 -1.6115
19553TIP3   OH280073   6.071   5.376   2.695 -0.3517  0.0861 -0.3785
19553TIP3    H180074   6.118   5.292   2.694  0.8008  0.6581  1.6135
19553TIP3    H280075   6.083   5.412   2.608  2.0104 -0.2960 -0.2458
19554TIP3   OH280076   5.491   4.263   5.076  0.0532 -0.5042 -0.3803
19554TIP3    H180077   5.553   4.235   5.143  1.1873 -0.3502 -1.3366
19554TIP3    H280078   5.517   4.215   4.998 -2.5781 -2.2758 -0.2022
19555TIP3   OH280079   4.801   6.790   6.107 -0.0429 -0.3413 -0.3721
19555TIP3    H180080   4.711   6.815   6.130  0.3862  0.0283  0.8975
19555TIP3    H280081   4.809   6.700   6.138 -0.5528 -1.0146 -2.1153
19556TIP3   OH280082   5.574   2.947  15.375  0.0621  0.2964  0.1590
19556TIP3    H180083   5.496   2.992  15.409  0.2223  1.2606 -0.7336
19556TIP3    H280084   5.539   2.865  15.337 -0.3165 -0.0095  1.1578
19557TIP3   OH280085   5.274   6.460   3.170  0.8832 -0.2904  0.0756
19557TIP3    H180086   5.326   6.472   3.090  0.8979  2.1737  0.3998
19557TIP3    H280087   5.277   6.546   3.213 -1.1927 -0.8846  1.4747
19558TIP3   OH280088   3.848   6.949   3.874 -0.5817 -0.5573 -0.0941
19558TIP3    H180089   3.814   6.862   3.895 -1.3891 -0.2430 -0.0480
19558TIP3    H280090   3.836   7.000   3.954  2.2248 -1.0667  0.7014
19559TIP3   OH280091   1.316   6.170   4.450 -0.5101  0.4553 -0.2134
19559TIP3    H180092   1.263   6.113   4.504  1.9594 -0.9468  0.8087
19559TIP3    H280093   1.330   6.248   4.503  1.5071 -0.7190  1.0346
19560TIP3   OH280094   4.810   4.410   5.346  0.2178  0.3054 -0.5973
19560TIP3    H180095   4.790   4.320   5.372  0.7172  0.3740  0.0313
19560TIP3    H280096   4.777   4.464   5.417  0.6950  0.5590 -0.5666
19561TIP3   OH280097   0.742   6.379   3.510 -0.6328 -0.7137  0.2125
19561TIP3    H180098   0.682   6.353   3.440 -0.8731 -1.8660  0.8356
19561TIP3    H280099   0.829   6.359   3.476 -0.5366  1.4696 -0.9115
19562TIP3   OH280100   6.194   5.620   4.766 -0.3935 -0.2122 -0.4542
19562TIP3    H180101   6.150   5.539   4.740 -1.6718  0.2421  0.2490
19562TIP3    H280102   6.123   5.683   4.777  0.4657  0.6155  0.4217
19563TIP3   OH280103   1.387   3.155   5.002  0.6292 -0.0318 -0.6493
19563TIP3    H180104   1.344   3.071   4.985  0.3709 -0.0209 -0.0762
19563TIP3    H280105   1.475   3.131   5.031  1.2502 -0.0311 -2.4996
19564TIP3   OH280106   3.768   4.916   6.089 -0.4004  0.3690 -0.3227
19564TIP3    H180107   3.863   4.902   6.093 -0.3505  1.0516  1.2946
19564TIP3    H280108   3.755   5.001   6.132 -1.7901  0.0850 -0.1727
19565TIP3   OH280109   2.007   2.089   4.436 -0.3740  0.4830 -0.6086
19565TIP3    H180110   2.034   2.181   4.440  0.2104  0.2866  0.1031
19565TIP3    H280111   2.079   2.041   4.478 -1.1403 -0.1940 -0.0485
19566TIP3   OH280112   5.000   6.103   4.307  0.1934 -0.5141  0.3301
19566TIP3    H180113   5.001   6.198   4.297 -1.0925 -0.5774 -0.4283
19566TIP3    H280114   5.039   6.088   4.393 -0.6647  0.7562  0.9485
19567TIP3   OH280115   5.907   6.729   2.386 -0.3706  0.1316 -0.0562
19567TIP3    H180116   5.881   6.776   2.465  0.9258  1.0163 -0.1501
19567TIP3    H280117   5.912   6.637   2.413 -0.9541  0.2959  0.6219
19568TIP3   OH280118   3.793   4.700   2.177 -0.1935 -0.3501 -0.1598
19568TIP3    H180119   3.863   4.688   2.242 -0.4315 -0.3316  0.0997
19568TIP3    H280120   3.715   4.721   2.229 -0.3606 -0.2323 -0.4580
19569TIP3   OH280121   5.924   5.555   2.395 -0.0066 -0.4130 -0.0760
19569TIP3    H180122   5.928   5.588   2.485 -1.9762 -1.4140  0.4027
19569TIP3    H280123   6.006   5.585   2.355  1.3518 -0.7630  2.3355
19570TIP3   OH280124   4.132   1.283   3.483  0.0453  0.0930  0.1362
19570TIP3    H180125   4.110   1.237   3.564 -3.1244  1.9682  0.4378
19570TIP3    H280126   4.223   1.309   3.493  0.8399 -2.9884  1.4359
19571TIP3   OH280127   4.488   4.113   2.378 -0.6245 -0.0457 -0.3325
19571TIP3    H180128   4.399   4.108   2.344 -0.7819  0.1971  0.0368
19571TIP3    H280129   4.482   4.173   2.452 -0.5648 -1.6664  1.0126
19572TIP3   OH280130   0.549   1.201   5.316  0.3032  0.5174  0.3125
19572TIP3    H180131   0.458   1.191   5.343 -0.4361  2.2401 -1.3735
19572TIP3    H280132   0.594   1.238   5.392 -0.7108  0.9172  0.7226
19573TIP3   OH280133   5.511   2.774   3.155  0.3082 -0.6446  0.3350
19573TIP3    H180134   5.429   2.823   3.150  0.4494 -0.2205  1.8862
19573TIP3    H280135   5.486   2.684   3.135 -0.1979 -0.1890 -1.1326
19574TIP3   OH280136   4.883   1.449   1.431  0.3900 -0.2557 -0.2310
19574TIP3    H180137   4.973   1.423   1.409  0.9935  0.9962  0.7034
19574TIP3    H280138   4.830   1.373   1.405  1.5006 -0.3626 -2.3828
19575TIP3   OH280139   0.573   1.082   4.167  0.2812 -0.1405 -0.4096
19575TIP3    H180140   0.629   1.056   4.240  0.3300 -0.9998 -0.7474
19575TIP3    H280141   0.549   1.173   4.186 -0.5489 -0.6694  1.2079
19576TIP3   OH280142   4.165   0.158   3.423 -0.1067  0.0150  0.2204
19576TIP3    H180143   4.184   0.088   3.361 -0.4839 -1.0957  1.3545
19576TIP3    H280144   4.220   0.139   3.499 -1.8375 -0.2863  1.4166
19577TIP3   OH280145   5.365   0.294   3.861  0.3366  0.1756  0.2432
19577TIP3    H180146   5.426   0.220   3.860  2.1501  1.6193 -1.9140
19577TIP3    H280147   5.284   0.259   3.824 -0.0414 -1.6226  2.6214
19578TIP3   OH280148   6.455   4.288   4.459  0.4950 -0.5172 -0.2755
19578TIP3    H180149   6.516   4.225   4.423 -0.5992 -1.6264 -0.2315
19578TIP3    H280150   6.501   4.327   4.534  1.3674 -0.8791 -0.6215
19579TIP3   OH280151   0.232   1.651   3.257  0.2704  0.2441  0.1097
19579TIP3    H180152   0.282   1.731   3.244  0.4551 -0.1114 -1.4162
19579TIP3    H280153   0.237   1.634   3.351  2.3504  0.6430  0.0790
19580TIP3   OH280154   5.769   5.214   4.103  0.5390  0.3187 -0.5739
19580TIP3    H180155   5.779   5.144   4.167 -0.2626 -0.8696 -1.7324
19580TIP3    H280156   5.846   5.270   4.115 -0.2370  0.8381  2.2942
19581TIP3   OH280157   3.867   0.729   2.468  0.1725  0.3560 -0.4693
19581TIP3    H180158   3.798   0.771   2.416 -0.8070 -0.5245  0.0983
19581TIP3    H280159   3.826   0.650   2.503  1.9796 -1.0760 -1.4865
19582TIP3   OH280160   4.240   6.064   2.386  0.1235 -0.0127  0.0864
19582TIP3    H180161   4.322   6.112   2.383 -0.1987  0.6252  1.2863
19582TIP3    H280162   4.213   6.068   2.478 -0.8323 -0.9119 -0.1454
19583TIP3   OH280163   6.294   4.111   4.620  0.4810 -0.2678  0.3860
19583TIP3    H180164   6.353   4.136   4.549 -0.4485 -0.4049 -0.4435
19583TIP3    H280165   6.273   4.193   4.664 -1.2507  0.2618 -1.3161
19584TIP3   OH280166   6.479   4.950   5.033 -0.0124  0.7644 -0.1315
19584TIP3    H180167   6.455   4.861   5.006  0.8060  0.8475 -1.1937
19584TIP3    H280168   6.407   4.979   5.088 -1.5578  0.3920 -1.8879
19585TIP3   OH280169   2.533   2.322   3.581 -0.3579  0.5179 -0.4248
19585TIP3    H180170   2.543   2.232   3.551  0.4945  0.9099 -1.3430
19585TIP3    H280171   2.476   2.315   3.658 -1.9089 -0.5831 -1.6384
19586TIP3   OH280172   1.965   4.289   4.133  0.0841 -0.0261  0.1011
19586TIP3    H180173   1.879   4.328   4.118  0.7367  1.3556 -0.1086
19586TIP3    H280174   1.984   4.240   4.052 -0.0293  0.5643 -0.2834
19587TIP3   OH280175   4.047   4.101   5.477 -0.1162 -0.2690 -0.1809
19587TIP3    H180176   4.052   4.062   5.390 -1.5665 -1.1260  0.1139
19587TIP3    H280177   4.033   4.027   5.537  0.8218  0.3109  0.7881
19588TIP3   OH280178   1.268   4.597   5.257  0.5365 -0.2179 -0.3783
19588TIP3    H180179   1.199   4.561   5.313 -0.5601  2.0721 -0.1849
19588TIP3    H280180   1.271   4.537   5.182 -1.0017 -0.8810  0.0642
19589TIP3   OH280181   3.875   4.258   4.910 -0.7030  0.0865 -0.2639
19589TIP3    H180182   3.780   4.244   4.908 -1.1711  2.6359  1.7683
19589TIP3    H280183   3.895   4.302   4.827 -1.2732 -0.4458 -0.6884
19590TIP3   OH280184   3.856   4.002   5.216 -0.5472  0.6719  0.0458
19590TIP3    H180185   3.947   4.032   5.216 -0.2159 -0.2888 -0.2453
19590TIP3    H280186   3.863   3.907   5.204 -1.5034  0.2798  2.4745
19591TIP3   OH280187   5.010   5.000   5.260  0.2860  0.0767 -1.1862
19591TIP3    H180188   4.944   5.067   5.241  0.9521  0.0822 -3.7503
19591TIP3    H280189   5.022   4.955   5.176  1.7748 -1.5191 -0.1466
19592TIP3   OH280190   3.915   3.364   2.621 -0.2712 -0.2514  0.0325
19592TIP3    H180191   3.957   3.449   2.606  1.2346 -0.9487  0.1518
19592TIP3    H280192   3.899   3.362   2.715 -0.0034 -0.2344  0.0784
19593TIP3   OH280193   0.048   5.257   4.351  0.5934  0.1975 -0.8795
19593TIP3    H180194   0.008   5.225   4.432  0.4286 -0.3339 -1.1689
19593TIP3    H280195   0.043   5.182   4.291  0.7966  0.5610 -1.3486
19594TIP3   OH280196   4.327   5.615   3.930  0.6610 -1.0792 -0.4674
19594TIP3    H180197   4.312   5.525   3.901 -0.2315 -1.5778  1.5203
19594TIP3    H280198   4.240   5.652   3.943  1.0334 -0.4385  0.2803
19595TIP3   OH280199   2.143   5.174   2.734 -0.4537  0.0766 -0.3945
19595TIP3    H180200   2.147   5.097   2.678 -1.1443  0.8639 -1.5420
19595TIP3    H280201   2.164   5.247   2.677 -2.2584  1.0063  0.0909
19596TIP3   OH280202   6.153   0.531   3.103  0.6832 -0.0465 -0.0929
19596TIP3    H180203   6.200   0.510   3.022  1.2230  2.3601 -0.4304
19596TIP3    H280204   6.183   0.619   3.126 -0.0985 -0.3778  2.2816
19597TIP3   OH280205   6.883   5.474   3.590  0.7765  0.1444 -0.3272
19597TIP3    H180206   6.931   5.534   3.647  1.2812 -1.3601  0.8783
19597TIP3    H280207   6.821   5.430   3.648 -0.3051  0.2355 -1.3927
19598TIP3   OH280208   2.729   5.752   1.939 -0.0721  0.2819  0.0857
19598TIP3    H180209   2.824   5.739   1.938 -0.4965 -3.5277  0.9133
19598TIP3    H280210   2.702   5.736   1.848 -0.3851 -3.3836  0.7558
19599TIP3   OH280211   3.208   3.815   3.822  0.3794  0.2006  0.5266
19599TIP3    H180212   3.194   3.796   3.915  1.6091 -1.7206  0.3459
19599TIP3    H280213   3.156   3.749   3.776  0.0965  0.8906 -0.1455
19600TIP3   OH280214   6.907   5.402   2.100 -0.2119 -0.4517 -0.1983
19600TIP3    H180215   6.971   5.419   2.030  0.4051  1.4545  0.7847
19600TIP3    H280216   6.823   5.427   2.062  0.1290  0.6673 -0.2280
19601TIP3   OH280217   4.349   0.412   3.017 -0.0970  0.0137  0.7491
19601TIP3    H180218   4.387   0.324   3.023  0.3612  0.0719 -1.2062
19601TIP3    H280219   4.335   0.438   3.109 -0.2598 -2.0943  1.3387
19602TIP3   OH280220   6.989   6.861   2.657 -0.0236  0.5211  0.4724
19602TIP3    H180221   7.046   6.855   2.733  0.0305  0.2651  0.4113
19602TIP3    H280222   6.935   6.782   2.661  0.4278  0.1810 -0.1190
19603TIP3   OH280223   6.223   5.607  14.656  0.2654  0.3185 -0.0876
19603TIP3    H180224   6.222   5.532  14.715  2.6622  0.3358  0.0482
19603TIP3    H280225   6.273   5.577  14.580  1.8773  1.9614  0.2781
19604TIP3   OH280226   3.999   0.662   1.483 -0.0739 -0.0869 -0.1370
19604TIP3    H180227   3.939   0.588   1.492  0.6157 -0.5281  1.0157
19604TIP3    H280228   4.086   0.622   1.482  0.3316  0.7541  1.0968
19605TIP3   OH280229   5.095   5.677   5.191  0.1699 -0.6561  0.0786
19605TIP3    H180230   5.070   5.593   5.152  3.4456 -1.3062 -0.7128
19605TIP3    H280231   5.161   5.656   5.256 -2.6123  0.8416  3.6152
19606TIP3   OH280232   4.912   0.522   2.142 -0.4581  0.5709 -0.4088
19606TIP3    H180233   4.977   0.469   2.096  0.5608  0.7329  0.7979
19606TIP3    H280234   4.832   0.515   2.089 -0.2922 -2.0079 -0.3750
19607TIP3   OH280235   6.899   5.612   4.777  0.2183 -0.0786  0.3996
19607TIP3    H180236   6.879   5.608   4.683 -1.1695  0.1908  0.6839
19607TIP3    H280237   6.934   5.526   4.798  3.2452  0.7277 -0.9691
19608TIP3   OH280238   5.006   0.653   6.059 -0.8619 -0.5410  0.1746
19608TIP3    H180239   4.975   0.717   5.994 -0.1817 -0.6850 -0.2988
19608TIP3    H280240   4.943   0.581   6.053 -1.6357  0.0846  0.7113
19609TIP3   OH280241   1.639   3.778   2.250  0.6026  0.9717  0.0441
19609TIP3    H180242   1.631   3.716   2.323  1.0340  0.5512 -0.2623
19609TIP3    H280243   1.659   3.723   2.174 -2.9653  1.0701 -1.0585
19610TIP3   OH280244   1.089   4.160   3.397 -0.0247  0.3459  0.1662
19610TIP3    H180245   1.164   4.164   3.456 -0.0625  0.8648  0.1766
19610TIP3    H280246   1.127   4.163   3.309  0.0105 -0.1091  0.1633
19611TIP3   OH280247   5.457   2.924   5.189  0.1020 -0.6318  0.2387
19611TIP3    H180248   5.436   3.014   5.163  0.8755 -0.3893  0.4464
19611TIP3    H280249   5.530   2.933   5.249  1.2821 -1.5134 -1.0246
19612TIP3   OH280250   6.878   1.883   2.550  0.0545 -0.1222 -0.4998
19612TIP3    H180251   6.852   1.854   2.638 -0.3598  1.9969  0.1049
19612TIP3    H280252   6.973   1.870   2.548  0.1554  0.3652  0.5023
19613TIP3   OH280253   2.418   6.188   3.542 -0.3057 -0.5942 -0.2495
19613TIP3    H180254   2.447   6.108   3.499  0.8704  0.7792 -2.1058
19613TIP3    H280255   2.482   6.202   3.612 -0.7045 -1.4456  0.2871
19614TIP3   OH280256   0.031   6.733   0.922 -0.4710  0.0861  0.3668
19614TIP3    H180257   0.089   6.657   0.913 -1.1591 -0.2542 -1.6002
19614TIP3    H280258   0.035   6.757   1.014 -0.5246 -2.5868  1.1001
19615TIP3   OH280259   0.857   5.158   4.459  0.0066 -0.5996 -0.1444
19615TIP3    H180260   0.779   5.169   4.514 -0.5433  0.3279 -1.0904
19615TIP3    H280261   0.834   5.201   4.377  0.4330 -2.8962 -1.5050
19616TIP3   OH280262   0.857   6.990   2.113 -0.2224 -0.2514  0.0634
19616TIP3    H180263   0.819   7.076   2.131  3.0827  1.4715 -0.7783
19616TIP3    H280264   0.858   6.947   2.199 -1.7082  0.5987  0.5435
19617TIP3   OH280265   6.501   4.664   3.926 -0.6055  0.5084  0.8003
19617TIP3    H180266   6.446   4.699   3.856 -0.1795 -0.5436 -0.0681
19617TIP3    H280267   6.562   4.735   3.947 -0.5726  0.7430 -0.0735
19618TIP3   OH280268   4.119   4.408   1.652  0.2798 -0.2339 -0.9346
19618TIP3    H180269   4.081   4.320   1.652 -0.5279  0.1103 -0.5105
19618TIP3    H280270   4.167   4.413   1.570  0.9812 -1.3475 -0.6051
19619TIP3   OH280271   0.859   3.543   1.809 -0.6118  0.4313  0.0043
19619TIP3    H180272   0.810   3.464   1.832  0.6605 -0.3582  0.0643
19619TIP3    H280273   0.842   3.554   1.715  1.2811 -1.4274 -0.5876
19620TIP3   OH280274   4.657   6.044   0.298 -0.1171 -0.4772  0.3052
19620TIP3    H180275   4.658   5.948   0.288 -0.1537 -0.4748  0.2814
19620TIP3    H280276   4.565   6.067   0.302 -0.0924 -0.6032  1.9165
19621TIP3   OH280277   1.502   1.717  14.765  0.0035  0.2727 -0.0599
19621TIP3    H180278   1.466   1.729  14.852 -2.0351 -0.7067 -0.7494
19621TIP3    H280279   1.552   1.636  14.770 -2.3227 -1.2201 -0.4698
19622TIP3   OH280280   5.603   4.884   4.103 -0.0843 -0.6180  0.6234
19622TIP3    H180281   5.554   4.892   4.021  1.8333  2.4002 -0.3242
19622TIP3    H280282   5.639   4.796   4.102  1.4685 -0.0391 -2.7657
19623TIP3   OH280283   4.277   3.079   4.435  0.1813 -0.7005 -0.4143
19623TIP3    H180284   4.331   3.072   4.356 -1.1541  0.7355 -1.4685
19623TIP3    H280285   4.339   3.100   4.504  1.0983  0.1914 -1.4817
19624TIP3   OH280286   5.085   4.394  14.734  0.7067 -0.4261  1.0165
19624TIP3    H180287   5.036   4.354  14.663 -1.0573  4.0393 -0.5000
19624TIP3    H280288   5.174   4.405  14.699  0.9130 -1.9051  1.0475
19625TIP3   OH280289   2.313   5.571   3.428  0.0683 -0.7877  0.6112
19625TIP3    H180290   2.379   5.632   3.461 -0.6001  0.7155 -0.8109
19625TIP3    H280291   2.252   5.560   3.502  1.5763 -1.7560  1.7426
19626TIP3   OH280292   0.048   2.144   0.368  0.0810  0.3325 -0.6496
19626TIP3    H180293   0.013   2.070   0.318  1.3625 -0.4992 -0.3550
19626TIP3    H280294  -0.023   2.169   0.427 -0.5410 -0.3422 -1.1137
19627TIP3   OH280295   2.335   4.854   5.482  0.4172 -0.3557  0.2546
19627TIP3    H180296   2.349   4.760   5.489  1.3219 -0.3324 -1.0637
19627TIP3    H280297   2.412   4.893   5.525  0.8163 -0.2214 -0.5786
19628TIP3   OH280298   7.012   0.745   4.591  0.5014 -0.0840  0.3254
19628TIP3    H180299   6.970   0.787   4.516  0.1357 -1.4100 -0.2346
19628TIP3    H280300   6.989   0.652   4.582  0.9873 -0.3474  1.7268
19629TIP3   OH280301   2.001   0.726   5.275  0.4551 -0.5468  0.4943
19629TIP3    H180302   2.007   0.643   5.227  0.7352 -0.0099 -0.4139
19629TIP3    H280303   2.038   0.707   5.361 -0.6854 -1.7076  0.7493
19630TIP3   OH280304   2.218   5.076   2.988 -0.4337 -0.2317  0.2224
19630TIP3    H180305   2.300   5.029   3.000 -0.9432 -0.7615  1.8704
19630TIP3    H280306   2.233   5.133   2.913  2.1728  1.2572  1.7849
19631TIP3   OH280307   0.695   1.166   2.563  0.3398 -0.5478  0.1694
19631TIP3    H180308   0.614   1.213   2.582  0.5434 -0.1309  0.0207
19631TIP3    H280309   0.709   1.178   2.469 -0.0335 -1.5930 -0.0196
19632TIP3   OH280310   2.971   5.890   3.177  0.6411 -0.4703 -0.0134
19632TIP3    H180311   3.044   5.829   3.187  0.1416 -1.2600 -1.0506
19632TIP3    H280312   2.959   5.929   3.264  0.6107 -2.2715  0.8053
19633TIP3   OH280313   6.839   1.540   3.534 -0.1655  0.1129  0.3611
19633TIP3    H180314   6.927   1.522   3.501 -0.7805 -1.0346 -0.7237
19633TIP3    H280315   6.800   1.599   3.470 -0.0206  1.0394  1.1112
19634TIP3   OH280316   5.890   6.564   4.939 -0.1445 -0.5916 -0.4941
19634TIP3    H180317   5.911   6.644   4.986 -0.7039 -2.6158  3.4186
19634TIP3    H280318   5.823   6.589   4.876 -1.8474  1.6192  2.1229
19635TIP3   OH280319   0.038   3.884  14.550  0.1037 -0.4122 -0.0397
19635TIP3    H180320   0.097   3.842  14.613  1.9902 -0.2214 -1.5986
19635TIP3    H280321   0.017   3.814  14.488 -0.3092 -0.1515 -0.1899
19636TIP3   OH280322   4.190   5.824   3.561  0.0137 -0.0595 -0.8599
19636TIP3    H180323   4.141   5.892   3.514  1.7037  2.0191  0.2662
19636TIP3    H280324   4.155   5.827   3.650  0.7386  0.0345 -0.5699
19637TIP3   OH280325   0.474   0.305   5.633  0.0142  0.3240  0.4979
19637TIP3    H180326   0.390   0.262   5.650  0.8315 -1.1227  0.9703
19637TIP3    H280327   0.522   0.244   5.577  1.4296  0.3222  1.6678
19638TIP3   OH280328   3.907   4.904   3.320 -0.1928 -0.0572  0.1511
19638TIP3    H180329   3.961   4.932   3.394  0.0130 -3.6353  1.4258
19638TIP3    H280330   3.969   4.895   3.247  0.4422 -1.1182  0.8057
19639TIP3   OH280331   3.398   0.261   1.709  0.0175 -0.1305  0.2895
19639TIP3    H180332   3.312   0.252   1.668  0.4916 -0.3690 -0.6730
19639TIP3    H280333   3.379   0.293   1.797 -0.9559  1.4922 -0.4866
19640TIP3   OH280334   5.134   1.341   3.670  0.3920 -0.2967 -0.0001
19640TIP3    H180335   5.158   1.250   3.649  0.5351 -0.4511  0.8339
19640TIP3    H280336   5.054   1.333   3.721  0.4685  0.0412  0.1722
19641TIP3   OH280337   0.034   0.143   3.449  0.2516 -0.3808  0.5767
19641TIP3    H180338   0.115   0.189   3.470  0.3373  0.7569 -2.0779
19641TIP3    H280339  -0.025   0.212   3.417 -0.5827 -1.7107 -0.7698
19642TIP3   OH280340   6.313   1.035   4.731 -0.0954 -0.1918 -0.4901
19642TIP3    H180341   6.343   1.103   4.791  1.4049 -2.1259  1.0325
19642TIP3    H280342   6.369   1.043   4.654  0.0207  0.3491 -0.3448
19643TIP3   OH280343   4.761   6.185   4.773  0.0712 -0.4120 -0.6561
19643TIP3    H180344   4.755   6.090   4.766  0.9112 -0.7037  1.8938
19643TIP3    H280345   4.779   6.201   4.866  0.9861  2.1834 -1.2339
19644TIP3   OH280346   4.880   0.230   4.312 -0.0946 -0.6099  0.1026
19644TIP3    H180347   4.915   0.288   4.245 -0.6360 -0.4125 -0.0167
19644TIP3    H280348   4.929   0.149   4.302  0.7825 -0.1177  0.3817
19645TIP3   OH280349   4.760   1.601   3.181 -0.5737  0.4116 -0.1898
19645TIP3    H180350   4.675   1.557   3.179 -0.6678  0.5714  0.1602
19645TIP3    H280351   4.807   1.558   3.252 -0.6146  0.7789  0.0601
19646TIP3   OH280352   4.782   5.489   5.206 -0.1746  0.1974 -0.1194
19646TIP3    H180353   4.826   5.504   5.123 -1.1104  1.3380 -0.4160
19646TIP3    H280354   4.758   5.576   5.237  0.0611 -0.2285  1.2869
19647TIP3   OH280355   5.855   1.015   5.158  0.0128  0.1577 -0.3601
19647TIP3    H180356   5.814   1.038   5.074  1.2331  0.9007 -0.7693
19647TIP3    H280357   5.850   0.920   5.163  0.8555  0.0275 -1.7727
19648TIP3   OH280358   0.596   5.884   6.079 -0.3670  0.0161 -0.1494
19648TIP3    H180359   0.605   5.789   6.086 -0.8928 -0.2262 -2.2320
19648TIP3    H280360   0.675   5.919   6.120  0.9043 -1.4124 -1.3110
19649TIP3   OH280361   0.045   6.171   2.316  0.4098  0.1380  0.4721
19649TIP3    H180362  -0.019   6.240   2.296  2.0323  1.0920 -1.5765
19649TIP3    H280363   0.084   6.149   2.232  3.7378  0.5165  1.8350
19650TIP3   OH280364   1.171   3.938   2.171 -0.3238 -0.2637 -0.0337
19650TIP3    H180365   1.102   3.986   2.218 -1.7138 -1.3197 -0.9610
19650TIP3    H280366   1.250   3.953   2.224 -1.2713  0.8693  1.1132
19651TIP3   OH280367   0.772   0.235   4.281 -0.0906 -0.1133 -0.3820
19651TIP3    H180368   0.828   0.220   4.204 -0.5467 -1.2734 -0.4868
19651TIP3    H280369   0.724   0.153   4.292 -0.1745  0.1236  1.0252
19652TIP3   OH280370   5.783   3.874   3.996 -0.6088  0.2244  0.0684
19652TIP3    H180371   5.710   3.815   4.015  0.2936  0.1458  3.6855
19652TIP3    H280372   5.852   3.817   3.962 -1.3962 -0.0483 -1.0903
19653TIP3   OH280373   0.073   4.380   3.085 -0.2543 -0.2775  0.5248
19653TIP3    H180374   0.056   4.316   3.016  0.5178  0.4018 -0.2861
19653TIP3    H280375   0.043   4.336   3.165  1.1840 -2.0639  0.1177
19654TIP3   OH280376   4.906   4.962   5.663  0.0154 -0.1700 -0.3572
19654TIP3    H180377   4.993   4.956   5.625  0.7944  1.0708  1.1842
19654TIP3    H280378   4.920   4.983   5.755 -1.8959  1.4308 -0.3667
19655TIP3   OH280379   5.151   5.891   1.744 -0.1229  0.1032  0.7672
19655TIP3    H180380   5.218   5.823   1.745 -0.3672 -0.1594 -0.1830
19655TIP3    H280381   5.146   5.918   1.652  1.0318  2.4395  1.3363
19656TIP3   OH280382   0.452   5.106   5.245  0.4147  0.7001 -0.5655
19656TIP3    H180383   0.500   5.069   5.319 -0.3576  0.5786 -0.1150
19656TIP3    H280384   0.517   5.114   5.175  0.9225 -0.1322 -0.1944
19657TIP3   OH280385   4.761   7.159   2.561  0.0210  0.7250 -0.2016
19657TIP3    H180386   4.841   7.120   2.596 -1.3501 -2.0736 -0.0551
19657TIP3    H280387   4.720   7.202   2.635  0.9204  1.3630 -0.0721
19658TIP3   OH280388   6.132   3.627   3.728 -0.0959 -0.0515 -0.6562
19658TIP3    H180389   6.195   3.563   3.763 -0.8370 -0.7783 -0.6372
19658TIP3    H280390   6.094   3.667   3.806  0.8541  0.9019 -0.6725
19659TIP3   OH280391   3.842   2.468   1.735  0.3178 -0.2779  0.2874
19659TIP3    H180392   3.880   2.466   1.647 -2.8305 -2.0390 -1.1022
19659TIP3    H280393   3.842   2.376   1.763 -0.9995 -0.0358  1.1052
19660TIP3   OH280394   6.507   2.517   1.692 -0.2447  0.5847 -0.2617
19660TIP3    H180395   6.548   2.559   1.616  0.8327 -1.1812 -0.6862
19660TIP3    H280396   6.578   2.470   1.735 -1.4481 -0.9290  0.1039
19661TIP3   OH280397   0.125   2.547   3.768  0.8253  0.0776 -0.1089
19661TIP3    H180398   0.058   2.598   3.815 -0.1402 -2.0353  0.8814
19661TIP3    H280399   0.079   2.512   3.692  1.6693  1.2332 -1.1601
19662TIP3   OH280400   4.384   5.219   2.291  0.1787 -0.2768  0.4399
19662TIP3    H180401   4.295   5.188   2.310  0.2527  0.1243  1.4992
19662TIP3    H280402   4.372   5.302   2.245 -0.0075 -1.1239 -1.0560
19663TIP3   OH280403   0.305   0.988   4.801  0.1177 -0.5876 -0.0801
19663TIP3    H180404   0.302   0.979   4.706  0.4841 -1.3786 -0.0147
19663TIP3    H280405   0.215   0.974   4.830  0.1554 -1.1295 -0.2329
19664TIP3   OH280406   0.971   0.493  13.035 -0.4926 -0.2454  0.4791
19664TIP3    H180407   0.981   0.468  12.943 -0.5131 -1.2437  0.7327
19664TIP3    H280408   0.877   0.482  13.052 -0.8918  2.2678 -0.0184
19665TIP3   OH280409   5.656   2.348   4.494  0.1541 -0.7160 -0.0473
19665TIP3    H180410   5.588   2.282   4.478  0.6318 -1.0176 -0.8662
19665TIP3    H280411   5.662   2.397   4.412 -1.3654  1.4432  1.1102
19666TIP3   OH280412   1.016   3.440   4.327 -0.2975  0.4102  0.2368
19666TIP3    H180413   0.995   3.488   4.408 -0.6374 -0.0987  0.4577
19666TIP3    H280414   1.019   3.348   4.355  0.1273  0.2871 -0.2251
19667TIP3   OH280415   5.148   6.872   3.105  0.2004 -0.0430  0.0239
19667TIP3    H180416   5.241   6.894   3.110  0.0744  0.2237  1.3787
19667TIP3    H280417   5.146   6.779   3.085  0.7473  0.0633 -0.5460
19668TIP3   OH280418   0.449   4.801   4.774 -0.4408  0.0205 -0.5217
19668TIP3    H180419   0.385   4.737   4.806  0.4475  0.0330  1.3558
19668TIP3    H280420   0.523   4.792   4.834 -0.4058  2.9939 -0.0372
19669TIP3   OH280421   6.192   6.249  15.348  0.1798 -0.0651 -0.7453
19669TIP3    H180422   6.101   6.276  15.332 -0.1787 -1.1623 -0.6044
19669TIP3    H280423   6.212   6.282  15.435  0.3575  1.3044 -1.2878
19670TIP3   OH280424   1.068   5.330   3.905  0.3858 -0.5067  0.9430
19670TIP3    H180425   0.996   5.380   3.865  0.5823 -0.2804  0.8748
19670TIP3    H280426   1.145   5.353   3.854  0.3852 -1.2803  0.5820
19671TIP3   OH280427   1.797   2.491   1.240  0.6989  0.4975  0.1188
19671TIP3    H180428   1.718   2.544   1.241  0.2226 -0.2091  0.4389
19671TIP3    H280429   1.861   2.544   1.193 -0.0389  0.9667 -0.3713
19672TIP3   OH280430   0.700   5.375   5.042 -0.7413 -0.1052  0.0457
19672TIP3    H180431   0.783   5.353   5.085 -1.4803 -1.6201  0.7098
19672TIP3    H280432   0.722   5.449   4.986  1.1054 -0.5960  0.0785
19673TIP3   OH280433   1.590   1.705   4.124  0.0452  0.1129  0.3419
19673TIP3    H180434   1.612   1.789   4.085  1.4199 -0.7195 -0.7362
19673TIP3    H280435   1.646   1.699   4.201  0.7498 -0.2847 -0.1957
19674TIP3   OH280436   1.954   3.709   2.804 -0.1387 -0.0494 -0.3978
19674TIP3    H180437   1.975   3.639   2.866  1.9359  0.2196 -0.7860
19674TIP3    H280438   1.938   3.664   2.721  1.4951 -0.0643 -0.7216
19675TIP3   OH280439   1.362   4.184   0.465  0.1329 -0.4236  0.0232
19675TIP3    H180440   1.345   4.092   0.482  1.0790 -0.7596 -0.8779
19675TIP3    H280441   1.455   4.189   0.443  0.0674  0.7270 -0.0503
19676TIP3   OH280442   2.454   3.622   0.102  0.0546 -0.0748  0.1533
19676TIP3    H180443   2.368   3.617   0.060 -0.1325  0.5265  0.4612
19676TIP3    H280444   2.439   3.592   0.192  0.1133  0.2807  0.2830
19677TIP3   OH280445   4.358   1.456   3.412 -0.5728 -0.2588  0.4010
19677TIP3    H180446   4.294   1.439   3.343 -0.2891 -0.6216  0.2254
19677TIP3    H280447   4.339   1.545   3.441 -0.9727 -0.2621  0.1538
19678TIP3   OH280448   2.164   4.271   2.514  0.3008  0.7825  0.3476
19678TIP3    H180449   2.238   4.327   2.493  1.7428 -1.9973 -2.4029
19678TIP3    H280450   2.104   4.281   2.439 -1.7084  2.2365  2.0712
19679TIP3   OH280451   1.239   0.111   4.295  0.8011  0.0344 -0.4440
19679TIP3    H180452   1.166   0.115   4.358  1.1223 -3.0103  0.2171
19679TIP3    H280453   1.202   0.144   4.214 -0.8902  0.0135  0.2920
19680TIP3   OH280454   5.656   0.096   5.002 -0.4840  0.0860 -0.5095
19680TIP3    H180455   5.680   0.188   4.998  0.3054 -0.1495 -1.4294
19680TIP3    H280456   5.573   0.090   4.955  0.1256  0.1141 -1.5832
19681TIP3   OH280457   6.091   7.085   5.481  0.3949 -0.3072 -0.2833
19681TIP3    H180458   6.077   7.106   5.574  0.1682  0.7438 -0.5543
19681TIP3    H280459   6.154   7.150   5.451  1.5090 -1.4819 -0.5359
19682TIP3   OH280460   0.299   4.797   2.782  0.0555 -0.0116 -0.4135
19682TIP3    H180461   0.237   4.862   2.817 -2.1306 -1.9522 -0.5596
19682TIP3    H280462   0.295   4.724   2.844  0.9673 -0.8209 -1.2954
19683TIP3   OH280463   4.976   0.202   4.828 -0.7269 -0.0349 -0.0834
19683TIP3    H180464   4.886   0.213   4.858  0.5534  0.5858  3.7493
19683TIP3    H280465   4.970   0.137   4.758 -3.9880 -1.0849  1.0994
19684TIP3   OH280466   1.053   1.469   4.348 -0.0743 -0.1994 -0.3758
19684TIP3    H180467   1.118   1.469   4.277  1.5859 -1.1624  1.1136
19684TIP3    H280468   1.086   1.535   4.410 -1.2602  0.2897 -0.2498
19685TIP3   OH280469   2.044   6.620   4.327  0.2282 -0.5464 -0.3418
19685TIP3    H180470   1.954   6.590   4.310  0.9212 -3.8380  1.3573
19685TIP3    H280471   2.058   6.603   4.420  2.4610  0.3595 -0.4911
19686TIP3   OH280472   5.599   6.864   4.202 -0.2516  0.2140  0.3909
19686TIP3    H180473   5.551   6.932   4.251 -0.2956 -0.6139  1.5114
19686TIP3    H280474   5.534   6.796   4.186 -0.2864  0.5723 -1.0189
19687TIP3   OH280475   6.768   5.318   1.219  0.2823 -0.1410  0.2305
19687TIP3    H180476   6.721   5.238   1.244  0.7238 -0.1290  1.1212
19687TIP3    H280477   6.830   5.332   1.290  3.6534 -1.7696 -2.2851
19688TIP3   OH280478   0.206   5.459   4.374  0.1374  1.0993 -0.1886
19688TIP3    H180479   0.137   5.400   4.345  1.8739 -0.7818 -0.6538
19688TIP3    H280480   0.167   5.507   4.447 -2.2224  1.3984 -1.5951
19689TIP3   OH280481   6.274   5.045   1.028 -0.4704 -0.0019 -0.0751
19689TIP3    H180482   6.315   5.018   1.110 -0.7614  1.7146  0.6575
19689TIP3    H280483   6.343   5.036   0.963 -0.0215 -0.6611  0.4815
19690TIP3   OH280484   7.054   1.251   0.321  0.2041 -0.1058 -0.4331
19690TIP3    H180485   6.980   1.292   0.365  0.6235  1.0605 -0.8047
19690TIP3    H280486   7.014   1.186   0.262 -0.4110 -0.8650  0.8044
19691TIP3   OH280487   5.370   1.419   4.912 -0.9014 -0.1806 -0.0260
19691TIP3    H180488   5.295   1.390   4.860 -1.1827 -0.9001  0.7570
19691TIP3    H280489   5.343   1.503   4.949 -0.8581  0.1342 -0.7021
19692TIP3   OH280490   2.336   1.120   5.328  0.2896 -0.4704 -0.1237
19692TIP3    H180491   2.282   1.088   5.256 -0.6063 -1.6732  1.0581
19692TIP3    H280492   2.278   1.179   5.377  0.4324 -0.8136  0.4585
19693TIP3   OH280493   6.287   0.396   3.956  0.0169 -0.0611 -0.2859
19693TIP3    H180494   6.293   0.458   3.883  1.3393  0.3196  0.1459
19693TIP3    H280495   6.274   0.311   3.913 -1.3277  0.4322 -0.8932
19694TIP3   OH280496   2.114   5.561   2.968  0.6307 -0.4849 -0.0820
19694TIP3    H180497   2.148   5.546   3.056 -1.4132 -0.8568  0.6652
19694TIP3    H280498   2.061   5.484   2.949 -1.6580  1.0834 -0.2697
19695TIP3   OH280499   4.888   7.108   3.436  0.0486 -0.0931 -0.4673
19695TIP3    H180500   4.828   7.036   3.416  0.3964 -0.4039 -0.4029
19695TIP3    H280501   4.971   7.081   3.397  0.0852  0.4474 -0.7719
19696TIP3   OH280502   5.252   3.891   2.909  0.4797 -0.3490  0.1012
19696TIP3    H180503   5.223   3.983   2.905  1.7101  0.0769  0.7437
19696TIP3    H280504   5.343   3.894   2.882  0.0356 -1.6543 -1.6460
19697TIP3   OH280505   6.348   5.847   3.872  0.0231 -0.2781 -0.2685
19697TIP3    H180506   6.416   5.913   3.887 -1.2964  1.1307 -0.3705
19697TIP3    H280507   6.363   5.782   3.940  2.2373 -0.6274 -1.0373
19698TIP3   OH280508   6.777   4.437   1.795 -0.4992 -0.1080  0.5051
19698TIP3    H180509   6.775   4.454   1.701  1.5178 -0.8472  0.3063
19698TIP3    H280510   6.833   4.506   1.831  0.9246 -1.3986  0.7952
19699TIP3   OH280511   0.244   1.911   2.399  0.5765 -0.5035  0.0268
19699TIP3    H180512   0.331   1.949   2.392  0.3858 -0.3553 -2.1766
19699TIP3    H280513   0.194   1.973   2.452  1.1524  0.6834 -0.8011
19700TIP3   OH280514   2.289   0.266   6.062  0.1887  0.6550  0.3701
19700TIP3    H180515   2.361   0.307   6.111  1.1061 -0.0596 -0.3733
19700TIP3    H280516   2.279   0.320   5.983  0.3080  0.3957  0.1782
19701TIP3   OH280517   6.848   4.127   5.117  0.1824 -0.1567 -0.1732
19701TIP3    H180518   6.782   4.197   5.116 -1.2048 -1.4228 -0.2260
19701TIP3    H280519   6.889   4.134   5.203 -0.8383 -0.0896  0.3167
19702TIP3   OH280520   3.113   5.328   4.137 -0.6243  0.7758 -0.1055
19702TIP3    H180521   3.046   5.263   4.116  0.1421  0.1840 -0.7368
19702TIP3    H280522   3.099   5.398   4.074 -0.7919  0.7591 -0.0879
19703TIP3   OH280523   3.152   1.982   5.631  0.4042 -0.4490  0.8259
19703TIP3    H180524   3.090   2.014   5.695 -0.2961  1.5215 -0.7880
19703TIP3    H280525   3.104   1.913   5.583 -0.3444  0.6345 -0.0029
19704TIP3   OH280526   2.574   6.993   5.202  0.3266  0.0026  0.2974
19704TIP3    H180527   2.636   7.009   5.132 -0.4911 -0.4101 -0.5305
19704TIP3    H280528   2.502   6.946   5.160 -0.2391 -0.1107  1.3755
19705TIP3   OH280529   6.729   6.833   5.479  0.3646 -0.3391 -0.2389
19705TIP3    H180530   6.650   6.844   5.426 -0.2245 -1.2926  0.4289
19705TIP3    H280531   6.752   6.923   5.504 -1.1831 -0.1287  0.5248
19706TIP3   OH280532   3.468   0.685   3.420 -0.5165  0.3834 -0.2913
19706TIP3    H180533   3.426   0.621   3.477 -1.5539  0.4894 -0.9252
19706TIP3    H280534   3.561   0.680   3.443 -0.7526 -0.4617  0.5240
19707TIP3   OH280535   1.541   4.811   2.696  0.4731  0.1218 -0.6476
19707TIP3    H180536   1.604   4.742   2.675  0.2384 -0.8177  1.5849
19707TIP3    H280537   1.567   4.842   2.782 -0.8690  1.1762 -0.5963
19708TIP3   OH280538   6.368   6.000  12.298  0.3784  0.4422 -0.1416
19708TIP3    H180539   6.281   6.031  12.321  0.9093  1.0326  1.1527
19708TIP3    H280540   6.368   5.996  12.202 -0.5810  1.8593 -0.2113
19709TIP3   OH280541   0.169   0.628  15.008 -0.2142  0.5357  0.0511
19709TIP3    H180542   0.136   0.570  14.940 -1.9701 -1.6309  2.6342
19709TIP3    H280543   0.091   0.674  15.040  0.4592  1.0048  1.0374
19710TIP3   OH280544   0.104   5.501   3.189 -0.4273  0.0055  0.5217
19710TIP3    H180545   0.073   5.590   3.206  0.2483 -0.0807  2.3717
19710TIP3    H280546   0.199   5.507   3.194 -0.3166 -0.5235 -0.9450
19711TIP3   OH280547   5.195   5.265  14.481  0.2245  0.9560  0.0914
19711TIP3    H180548   5.210   5.334  14.416  0.3635  1.4021  0.5909
19711TIP3    H280549   5.216   5.184  14.436 -1.3996  1.1014 -0.9874
19712TIP3   OH280550   7.077   6.239   4.408 -0.9822 -0.2479 -0.2952
19712TIP3    H180551   7.104   6.176   4.475 -0.0082 -0.7100 -1.1202
19712TIP3    H280552   7.156   6.258   4.359 -1.3782  1.2413 -0.3789
19713TIP3   OH280553   2.115   4.261   4.356  0.0631 -0.3155  0.2637
19713TIP3    H180554   2.147   4.171   4.349 -2.2002 -1.1206 -0.2028
19713TIP3    H280555   2.069   4.277   4.274 -0.6881  0.8220  0.8930
19714TIP3   OH280556   5.998   6.325   4.108  0.1713 -0.0230  0.0746
19714TIP3    H180557   6.041   6.249   4.069 -1.8121 -0.7940 -0.6475
19714TIP3    H280558   5.967   6.295   4.193 -0.8106 -0.1076 -0.3031
19715TIP3   OH280559   5.692   1.821  15.327  0.2906  0.2796  0.2724
19715TIP3    H180560   5.613   1.854  15.286  2.0298 -0.4622 -3.9501
19715TIP3    H280561   5.680   1.726  15.328  1.4442  0.0918 -1.2545
19716TIP3   OH280562   6.550   1.761   5.467  0.1998 -0.0507  0.0935
19716TIP3    H180563   6.522   1.713   5.545  0.2945  0.5181  0.4740
19716TIP3    H280564   6.499   1.722   5.396  0.8885 -1.3165  0.2612
19717TIP3   OH280565   6.013   5.740   0.323 -0.1654  0.1116  0.0832
19717TIP3    H180566   6.068   5.747   0.402  0.2011  0.7086 -0.2195
19717TIP3    H280567   6.067   5.692   0.261 -1.2527 -2.2213  0.8894
19718TIP3   OH280568   2.699   7.160   6.011  0.3202 -0.4458  0.0430
19718TIP3    H180569   2.708   7.114   6.095  1.0122 -0.5079 -0.0669
19718TIP3    H280570   2.758   7.114   5.952  0.2684 -0.0334 -0.3322
19719TIP3   OH280571   5.639   3.538   2.973  0.0795 -0.0409  0.1782
19719TIP3    H180572   5.602   3.529   3.061 -0.9264  0.1899 -0.2125
19719TIP3    H280573   5.562   3.550   2.917  0.6326 -1.4585 -0.8943
19720TIP3   OH280574   4.858   5.074   3.243 -0.2874  0.4155 -0.0254
19720TIP3    H180575   4.921   5.110   3.181 -0.0952 -1.1147 -0.7382
19720TIP3    H280576   4.862   5.132   3.318 -0.4166  2.2207 -1.3775
19721TIP3   OH280577   4.758   0.400   4.508 -0.0120 -0.3348  0.0396
19721TIP3    H180578   4.784   0.342   4.436 -1.3588  0.2370 -0.9393
19721TIP3    H280579   4.839   0.445   4.533  0.4098 -0.2724 -1.3801
19722TIP3   OH280580   5.881   0.531   4.076 -0.1708  0.3221  0.3477
19722TIP3    H180581   5.906   0.620   4.102 -1.8658  1.0780 -0.5399
19722TIP3    H280582   5.866   0.485   4.159 -0.2970  1.1752  0.8027
19723TIP3   OH280583   4.093   3.867   5.318 -0.6506 -0.2128  0.5630
19723TIP3    H180584   4.093   3.805   5.391 -0.9534 -1.5607 -0.5560
19723TIP3    H280585   4.180   3.857   5.279 -0.1660  1.1646  1.2860
19724TIP3   OH280586   0.735   6.706   2.735 -0.3557 -0.0792  0.3506
19724TIP3    H180587   0.733   6.801   2.723  0.1490 -0.1834 -0.6230
19724TIP3    H280588   0.643   6.682   2.746 -0.4236  0.6131  1.4096
19725TIP3   OH280589   6.942   2.584   1.534  0.2138 -0.2210 -0.3946
19725TIP3    H180590   7.009   2.621   1.592 -0.4220  0.6075 -0.1686
19725TIP3    H280591   6.991   2.542   1.464  0.9963 -1.1360  0.6896
19726TIP3   OH280592   3.432   6.699   4.479 -0.4144  0.8005 -0.1529
19726TIP3    H180593   3.407   6.608   4.461 -0.7376  0.9207 -0.3167
19726TIP3    H280594   3.396   6.717   4.565 -1.4648  1.1792 -0.6608
19727TIP3   OH280595   1.686   5.399   4.983  0.1482  0.6823 -0.2865
19727TIP3    H180596   1.602   5.373   5.020  1.6754 -0.5097  2.4824
19727TIP3    H280597   1.671   5.486   4.948 -2.6091 -0.0943 -1.1706
19728TIP3   OH280598   7.109   2.937   1.886 -0.3546  0.5448 -0.4935
19728TIP3    H180599   7.058   2.870   1.933 -0.6049 -0.0208 -1.5671
19728TIP3    H280600   7.177   2.963   1.949 -0.5153 -0.4123  0.0907
19729TIP3   OH280601   3.931   4.454   4.119 -0.3245  0.5841  0.0069
19729TIP3    H180602   3.837   4.447   4.136 -0.2811 -0.5351 -0.1807
19729TIP3    H280603   3.942   4.418   4.030  0.3641  0.0804  0.2913
19730TIP3   OH280604   0.484   6.350   5.346 -1.0124  0.5046 -0.1307
19730TIP3    H180605   0.411   6.409   5.362 -0.5065  0.5313  2.3203
19730TIP3    H280606   0.559   6.394   5.386 -0.4042 -1.2291  0.7146
19731TIP3   OH280607   0.428   6.294   4.731  0.5660  0.0927 -0.2364
19731TIP3    H180608   0.493   6.364   4.740  1.3296 -0.5209 -0.8615
19731TIP3    H280609   0.345   6.340   4.719  1.1865  0.9236 -1.5719
19732TIP3   OH280610   2.505   6.893   3.754  0.9770  0.0406  0.2901
19732TIP3    H180611   2.481   6.833   3.825  1.2934  0.6139  0.8891
19732TIP3    H280612   2.452   6.864   3.679  1.9428 -1.7056  0.2383
19733TIP3   OH280613   6.559   5.448   5.775 -0.1055 -0.5725  0.1425
19733TIP3    H180614   6.653   5.460   5.790 -0.0916 -0.2602 -0.1831
19733TIP3    H280615   6.551   5.439   5.680 -0.4177 -0.4475  0.1547
19734TIP3   OH280616   5.955   5.293   3.005 -0.4017  0.3586 -0.1083
19734TIP3    H180617   5.975   5.294   3.099  0.2924  0.4521 -0.2534
19734TIP3    H280618   6.029   5.246   2.966 -0.1634  1.2389 -0.7255
19735TIP3   OH280619   1.908   4.014   4.260  0.6461  0.3035  0.3133
19735TIP3    H180620   1.997   4.025   4.294  0.2718  2.5447  0.6784
19735TIP3    H280621   1.919   3.968   4.177  2.1287  0.4525  0.4135
19736TIP3   OH280622   6.115   0.708   3.696  0.2564 -0.3335 -0.1948
19736TIP3    H180623   6.110   0.657   3.615  1.5275 -0.9368  0.0880
19736TIP3    H280624   6.162   0.650   3.758 -1.6853 -0.3317  1.3207
19737TIP3   OH280625   7.087   4.005   1.892 -0.0723  0.0211  1.1451
19737TIP3    H180626   7.015   3.944   1.879  0.6741 -0.4654 -0.8269
19737TIP3    H280627   7.058   4.061   1.965 -0.7989 -2.5821  2.9223
19738TIP3   OH280628   5.243   6.652   3.734  0.1328 -0.3280  0.3081
19738TIP3    H180629   5.227   6.632   3.826 -2.6322 -2.6476 -0.5984
19738TIP3    H280630   5.244   6.566   3.690  1.6043  0.7162 -1.7961
19739TIP3   OH280631   4.383   4.839   4.792  0.2496 -0.8863  0.5291
19739TIP3    H180632   4.377   4.796   4.877  0.6441 -2.1342 -0.0736
19739TIP3    H280633   4.292   4.856   4.767  0.1138 -0.9509  0.9851
19740TIP3   OH280634   4.071   7.154   1.964 -0.0574  0.8006  0.4249
19740TIP3    H180635   4.093   7.074   1.917  1.8355  2.1856 -1.1496
19740TIP3    H280636   4.096   7.137   2.055  2.0402  0.1954 -0.2266
19741TIP3   OH280637   6.862   1.470   4.834  0.2238 -0.0763 -0.4390
19741TIP3    H180638   6.778   1.425   4.825  0.0423  0.4774 -1.5323
19741TIP3    H280639   6.897   1.439   4.918 -0.3517 -1.4885 -0.7079
19742TIP3   OH280640   5.738   0.287  13.473 -0.8198 -0.2963  0.1552
19742TIP3    H180641   5.719   0.238  13.553 -2.2056  0.8408  0.5228
19742TIP3    H280642   5.676   0.254  13.409 -2.0763  1.2872  0.5309
19743TIP3   OH280643   1.305   5.542   2.602  0.4619 -0.1341 -0.0324
19743TIP3    H180644   1.374   5.589   2.648 -0.3413  1.2500 -0.2036
19743TIP3    H280645   1.227   5.555   2.656 -0.0248 -0.2799 -0.6967
19744TIP3   OH280646   0.855   7.060   3.228  0.4919  0.3820 -0.4717
19744TIP3    H180647   0.945   7.040   3.253  0.6253  0.6955 -0.6953
19744TIP3    H280648   0.833   7.139   3.277  0.3476  0.3224 -0.4393
19745TIP3   OH280649   5.046   4.383   0.973  0.3286 -0.4595 -0.2692
19745TIP3    H180650   5.118   4.357   1.030  1.4929 -1.6788 -2.2282
19745TIP3    H280651   5.012   4.463   1.013  1.4503 -0.9664  1.8027
19746TIP3   OH280652   7.062   5.157   2.508  0.0023 -1.0270 -0.1260
19746TIP3    H180653   7.053   5.138   2.602 -0.3360 -0.0952  0.0431
19746TIP3    H280654   7.111   5.083   2.473  0.3081 -1.2931  0.8284
19747TIP3   OH280655   3.330   1.105   4.592  0.1529 -0.0470  0.0257
19747TIP3    H180656   3.270   1.089   4.519  1.1142  3.1415 -1.5236
19747TIP3    H280657   3.277   1.089   4.670 -2.3564  1.4083 -1.3327
19748TIP3   OH280658   6.154   5.956   5.024  0.6562 -0.1446  0.5511
19748TIP3    H180659   6.215   5.885   5.041 -0.8837 -1.5935  0.2041
19748TIP3    H280660   6.071   5.912   5.004  0.4135  1.6472 -2.7645
19749TIP3   OH280661   5.945   3.410   4.784 -0.3809 -0.1464 -0.0688
19749TIP3    H180662   5.870   3.458   4.820  1.1435  3.5955 -1.7059
19749TIP3    H280663   6.003   3.397   4.859 -0.8169  0.5015  0.3924
19750TIP3   OH280664   5.738   4.725   5.184 -0.3307  0.2351 -0.1254
19750TIP3    H180665   5.644   4.708   5.192 -0.0464 -1.0263  0.7175
19750TIP3    H280666   5.762   4.767   5.266  0.1485 -1.0232  0.4012
19751TIP3   OH280667   5.855   2.568   4.216  0.4042 -0.5302 -0.0569
19751TIP3    H180668   5.764   2.547   4.235  0.2740  0.2136  0.1836
19751TIP3    H280669   5.860   2.663   4.227  0.8128 -0.3490 -1.6860
19752TIP3   OH280670   2.937   4.277   5.190 -0.3861  0.3477  0.1087
19752TIP3    H180671   3.000   4.230   5.245  0.6505  1.1319 -0.3905
19752TIP3    H280672   2.881   4.209   5.153  1.7225 -0.6014 -1.4113
19753TIP3   OH280673   3.714   3.921   3.725 -0.1883  0.2511 -0.0557
19753TIP3    H180674   3.753   3.897   3.809 -2.0786  0.0053  0.7738
19753TIP3    H280675   3.697   3.838   3.681  2.9027  0.4249 -1.7132
19754TIP3   OH280676   7.070   3.726   1.690 -0.1402 -0.4016 -0.0045
19754TIP3    H180677   6.995   3.745   1.747 -0.1870 -1.6825  0.3675
19754TIP3    H280678   7.114   3.652   1.732 -0.1240 -1.3065 -1.5892
19755TIP3   OH280679   4.984   7.073   2.707  0.3515  0.4468  0.1122
19755TIP3    H180680   5.029   7.029   2.635  1.3784 -0.0973  1.0685
19755TIP3    H280681   5.031   7.155   2.718  0.1771  0.5420  0.1563
19756TIP3   OH280682   6.376   6.390   4.195 -0.4072 -0.1159  0.6521
19756TIP3    H180683   6.381   6.435   4.110 -0.3917 -0.2471  0.5840
19756TIP3    H280684   6.340   6.304   4.174  1.4005 -0.8590  0.5126
19757TIP3   OH280685   6.787   0.469   2.790  0.3425  0.3902 -0.0167
19757TIP3    H180686   6.718   0.413   2.753  0.0959 -0.3069  1.4712
19757TIP3    H280687   6.858   0.409   2.811  1.1419  1.0146 -0.8883
19758TIP3   OH280688   5.387   5.091   3.817  0.3213  0.2215 -0.3729
19758TIP3    H180689   5.456   5.128   3.872  1.4216 -2.6949  0.3146
19758TIP3    H280690   5.434   5.046   3.746 -0.8511 -1.1440 -0.3205
19759TIP3   OH280691   4.114   3.117   1.232  0.0770 -0.0532 -0.8356
19759TIP3    H180692   4.087   3.191   1.177 -1.3395  0.0953  0.0361
19759TIP3    H280693   4.037   3.059   1.234  0.1204 -0.0868  0.9264
19760TIP3   OH280694   4.820   5.397   3.395 -0.3552 -0.0107 -0.0573
19760TIP3    H180695   4.784   5.380   3.308 -0.8892  2.8139 -0.4398
19760TIP3    H280696   4.888   5.464   3.381 -1.0114  1.0840  1.7668
19761TIP3   OH280697   2.261   6.875   4.778 -0.5205 -0.0510 -0.5592
19761TIP3    H180698   2.258   6.792   4.729  0.9116  0.3536 -1.3741
19761TIP3    H280699   2.181   6.875   4.830 -0.4189 -2.0763 -0.3521
19762TIP3   OH280700   5.109   5.791   1.029 -0.4525  0.1551 -0.5313
19762TIP3    H180701   5.090   5.743   1.110  1.2734 -1.3056 -0.9793
19762TIP3    H280702   5.165   5.863   1.058 -0.0242 -0.2322 -0.3915
19763TIP3   OH280703   6.839   5.344   0.163  0.3297  0.6093  0.4658
19763TIP3    H180704   6.838   5.278   0.232  0.8987  3.1221  2.9522
19763TIP3    H280705   6.752   5.339   0.123 -0.6273  0.3060  2.5419
19764TIP3   OH280706   1.162   6.139   0.520  0.4658  0.4930 -0.0538
19764TIP3    H180707   1.133   6.068   0.462  0.0873  0.9022 -0.3725
19764TIP3    H280708   1.212   6.197   0.464 -0.6127  1.3307 -0.1660
19765TIP3   OH280709   2.277   5.622  15.544 -0.3415  0.7390 -0.1696
19765TIP3    H180710   2.324   5.659  15.470 -0.6269 -0.0288 -0.7420
19765TIP3    H280711   2.222   5.554  15.506 -0.0928 -0.0246  0.8089
19766TIP3   OH280712   4.572   0.244   0.218 -0.0578 -0.0090  0.1535
19766TIP3    H180713   4.614   0.181   0.277  1.7329 -1.0483 -2.1403
19766TIP3    H280714   4.620   0.326   0.232 -1.3002  0.4708  1.9140
19767TIP3   OH280715   6.301   4.999   5.404 -0.2916  0.0021  0.0572
19767TIP3    H180716   6.292   4.995   5.309 -1.2594  0.3333  0.1352
19767TIP3    H280717   6.322   4.909   5.430 -3.2791 -0.8091 -0.1425
19768TIP3   OH280718   0.258   0.784   2.387  0.1874 -0.0082 -0.2421
19768TIP3    H180719   0.196   0.831   2.443 -1.2473 -1.6366 -0.4202
19768TIP3    H280720   0.332   0.764   2.444 -0.1041  0.6393  0.3728
19769TIP3   OH280721   6.697   0.507   5.954 -0.0381  0.2637 -0.6836
19769TIP3    H180722   6.689   0.588   6.005 -2.6985  0.5109 -1.4237
19769TIP3    H280723   6.717   0.536   5.865 -0.5293  0.1052 -0.8503
19770TIP3   OH280724   1.481   1.714   4.394 -0.4263 -0.3192  0.1288
19770TIP3    H180725   1.512   1.624   4.399 -1.2465 -0.5667  0.9677
19770TIP3    H280726   1.557   1.767   4.417 -0.0939 -0.8186  0.1952
19771TIP3   OH280727   0.121   3.284   5.763  0.2874  0.0284  0.6898
19771TIP3    H180728   0.150   3.233   5.838  0.9995 -1.2230 -0.4098
19771TIP3    H280729   0.056   3.344   5.799  2.3389  1.1151  2.7271
19772TIP3   OH280730   7.091   2.564   2.888  0.0104 -0.4239 -0.3661
19772TIP3    H180731   7.124   2.614   2.962  0.1468  1.1499 -1.4642
19772TIP3    H280732   6.996   2.574   2.894  0.0090 -0.4925 -0.2673
19773TIP3   OH280733   3.027   6.032   4.690 -0.0290  0.0250  0.3285
19773TIP3    H180734   3.036   5.937   4.701  0.7526  0.0222 -0.3061
19773TIP3    H280735   3.039   6.046   4.596 -0.1914  0.7482  0.4158
19774TIP3   OH280736   7.083   0.460   5.891  0.2481  0.4039 -0.3110
19774TIP3    H180737   7.046   0.511   5.819 -0.7214  0.1993  0.0430
19774TIP3    H280738   7.010   0.408   5.924  1.1232 -0.8754 -0.3621
19775TIP3   OH280739   2.432   0.672   4.403  0.2779 -0.2323 -0.3151
19775TIP3    H180740   2.461   0.582   4.395  0.1046 -0.4480  1.2937
19775TIP3    H280741   2.337   0.668   4.395  0.2719 -0.1834 -0.2698
19776TIP3   OH280742   0.101   1.071   4.108  0.1473  0.2148 -0.2303
19776TIP3    H180743   0.162   1.144   4.092  1.3210 -0.9579 -1.2368
19776TIP3    H280744   0.020   1.113   4.136  0.9801  1.8870 -0.2671
19777TIP3   OH280745   1.588   0.373   6.018  0.1513  0.3473 -0.0194
19777TIP3    H180746   1.531   0.442   5.983 -0.1477  1.2003  2.0765
19777TIP3    H280747   1.558   0.360   6.108  2.2079 -0.3584  0.5927
19778TIP3   OH280748   5.697   5.977   5.425 -0.2451 -0.1960  0.1344
19778TIP3    H180749   5.715   5.883   5.425 -1.1195 -0.3750  1.1449
19778TIP3    H280750   5.602   5.983   5.439 -0.2513  0.8225 -0.3003
19779TIP3   OH280751   5.041   1.447   5.200  0.2964  0.1264  0.0644
19779TIP3    H180752   4.961   1.401   5.177  0.4392 -1.0168  1.7207
19779TIP3    H280753   5.111   1.383   5.184  0.8254  0.8829 -0.7308
19780TIP3   OH280754   0.811   0.266   5.761  0.4327 -0.5217  0.1245
19780TIP3    H180755   0.729   0.224   5.786 -0.2758  1.3034  0.9580
19780TIP3    H280756   0.853   0.287   5.844  0.0012  1.8402 -0.2114
19781TIP3   OH280757   6.805   1.785   3.939 -0.3055 -0.0997  0.8034
19781TIP3    H180758   6.822   1.871   3.901 -0.6722  0.8815  2.7581
19781TIP3    H280759   6.710   1.776   3.938 -0.2828 -0.3538  0.8663
19782TIP3   OH280760   5.265   0.401   4.143 -0.0861 -0.1486  0.0258
19782TIP3    H180761   5.321   0.372   4.071 -1.0491  1.4897 -1.3993
19782TIP3    H280762   5.322   0.456   4.197  0.7182 -1.6161  0.7303
19783TIP3   OH280763   1.774   0.911   3.677  0.5276 -0.0506  0.1607
19783TIP3    H180764   1.717   0.864   3.615  0.5863 -0.4670  0.4282
19783TIP3    H280765   1.720   0.923   3.755  0.1326  1.3013 -0.3053
19784TIP3   OH280766   5.045   0.906   5.489 -0.6180  0.3361 -0.3179
19784TIP3    H180767   5.019   0.846   5.558  0.9206  0.4972  0.4320
19784TIP3    H280768   5.091   0.851   5.425  1.0278  0.7405  0.5009
19785TIP3   OH280769   0.447   5.407   4.683  0.0900 -0.3585 -0.1466
19785TIP3    H180770   0.394   5.475   4.641 -0.0882 -1.1737 -1.2774
19785TIP3    H280771   0.386   5.364   4.743 -0.7408 -1.6656 -1.8592
19786TIP3   OH280772   0.563   0.682   3.969 -0.3563  0.0307 -0.6229
19786TIP3    H180773   0.582   0.599   4.014 -1.2630  0.0003 -0.2769
19786TIP3    H280774   0.649   0.718   3.948  0.0842 -0.1310  0.8429
19787TIP3   OH280775   2.072   2.220   4.682  0.3810 -0.1540  0.0052
19787TIP3    H180776   2.100   2.210   4.773 -2.7394 -0.8338  0.9334
19787TIP3    H280777   2.054   2.313   4.672 -0.8820 -0.3238  0.5977
19788TIP3   OH280778   3.131   6.649   2.445  0.1979 -0.2201  0.5982
19788TIP3    H180779   3.084   6.717   2.396  0.1706  0.0882  1.0542
19788TIP3    H280780   3.109   6.568   2.399 -0.6769 -0.0626  0.7276
19789TIP3   OH280781   2.042   6.479   4.542 -0.1466 -0.6255  0.0353
19789TIP3    H180782   1.964   6.425   4.531  0.5432 -1.5707 -0.2821
19789TIP3    H280783   2.030   6.522   4.626 -0.7756 -1.1550  0.2189
19790TIP3   OH280784   6.342   5.124   4.121 -0.2909  0.0659 -0.2677
19790TIP3    H180785   6.252   5.090   4.124 -0.9109  1.5741 -1.3198
19790TIP3    H280786   6.380   5.098   4.205 -1.5081 -1.1105 -0.0553
19791TIP3   OH280787   1.151   1.811   5.758  0.1532 -0.3510  0.1676
19791TIP3    H180788   1.217   1.778   5.818  1.9993  3.1926  0.2215
19791TIP3    H280789   1.179   1.781   5.672  0.8522 -0.3825  0.4036
19792TIP3   OH280790   3.737   1.963   4.889 -0.2828  0.2388  0.0703
19792TIP3    H180791   3.717   2.041   4.837 -1.8444 -0.1626  0.0514
19792TIP3    H280792   3.809   1.921   4.842  0.2061  1.3745 -0.2116
19793TIP3   OH280793   0.622   6.510   5.511 -0.3238  0.2680 -0.2410
19793TIP3    H180794   0.639   6.520   5.605 -0.5819  0.3123 -0.1973
19793TIP3    H280795   0.645   6.595   5.474 -0.3898  0.3068 -0.1924
19794TIP3   OH280796   4.369   5.280   4.532  0.1636  0.8117 -0.4846
19794TIP3    H180797   4.397   5.233   4.610 -0.6412  1.5648  0.2741
19794TIP3    H280798   4.350   5.369   4.563  0.0354  1.1779 -1.5757
19795TIP3   OH280799   0.015   5.495   5.013 -0.0782  0.4402  0.5956
19795TIP3    H180800  -0.069   5.450   5.026 -1.0461  1.3172 -2.0913
19795TIP3    H280801  -0.009   5.587   5.001  1.4905  1.0359  1.8678
19796TIP3   OH280802   2.268   0.883   5.082 -0.2131 -0.0649 -0.1975
19796TIP3    H180803   2.249   0.790   5.075 -1.3040  0.1385 -0.0401
19796TIP3    H280804   2.200   0.917   5.141  1.1425  0.5398  1.0434
19797TIP3   OH280805   0.229   6.154   2.675 -0.2186 -0.5607 -0.0358
19797TIP3    H180806   0.198   6.086   2.614 -0.5097  0.9387 -1.6080
19797TIP3    H280807   0.150   6.185   2.719  0.0278 -1.8415  1.3424
19798TIP3   OH280808   2.904   4.266   4.864  0.8410  0.0851 -0.0909
19798TIP3    H180809   2.968   4.258   4.935  0.5462  0.4661  0.2194
19798TIP3    H280810   2.879   4.359   4.865 -0.4105 -0.2483  0.3989
19799TIP3   OH280811   3.731   0.663   5.883  0.4221  0.2571  0.1330
19799TIP3    H180812   3.643   0.647   5.917  1.4779  0.1362  2.9223
19799TIP3    H280813   3.768   0.729   5.941  2.1000  0.5044 -1.1555
19800TIP3   OH280814   5.784   6.043   1.448  0.1361  0.1771  0.1329
19800TIP3    H180815   5.812   6.010   1.362 -1.2501 -3.6924  1.0560
19800TIP3    H280816   5.716   6.107   1.429 -0.9177 -1.4273 -1.6744
19801TIP3   OH280817   3.420   1.157   2.511  0.0812  0.0245  0.3400
19801TIP3    H180818   3.415   1.245   2.475 -2.5283 -0.3505 -0.3013
19801TIP3    H280819   3.402   1.100   2.437 -1.9006 -0.8809  1.4615
19802TIP3   OH280820   2.503   0.825   5.898 -0.0776 -0.4032 -0.0952
19802TIP3    H180821   2.525   0.798   5.987  0.6563 -0.2174 -0.2181
19802TIP3    H280822   2.427   0.883   5.910  0.6256  0.4214  0.5152
19803TIP3   OH280823   0.038   1.970   2.188 -0.0922  0.1412 -0.0365
19803TIP3    H180824   0.126   1.949   2.218 -0.1328  1.2896  0.8832
19803TIP3    H280825  -0.008   2.000   2.266 -1.6039 -1.4012 -0.3056
19804TIP3   OH280826   2.947   1.189   3.447 -0.4646 -0.0884  0.2916
19804TIP3    H180827   3.037   1.165   3.470 -0.2384  0.1507 -0.3405
19804TIP3    H280828   2.895   1.163   3.524  0.5969  2.8458  2.1143
19805TIP3   OH280829   6.660   6.003   3.293 -0.3034 -0.2625  0.7904
19805TIP3    H180830   6.660   5.920   3.340 -1.0468  0.7483  2.5920
19805TIP3    H280831   6.616   6.064   3.351  0.6188  1.5155 -0.3316
19806TIP3   OH280832   5.654   1.376   5.958 -0.1068 -0.4852 -0.3922
19806TIP3    H180833   5.727   1.383   5.897 -1.9118 -2.0759 -2.8424
19806TIP3    H280834   5.629   1.283   5.956 -1.2672 -0.2514  1.4961
19807TIP3   OH280835   1.564   0.535   5.079 -0.0634  0.1762 -0.5258
19807TIP3    H180836   1.623   0.478   5.128 -0.2521 -1.3329 -2.0104
19807TIP3    H280837   1.622   0.596   5.035  0.2871 -0.2633 -0.6819
19808TIP3   OH280838   6.874   6.592   3.681 -0.4019 -0.7753 -0.6218
19808TIP3    H180839   6.869   6.682   3.651 -0.0341 -1.3879 -2.6376
19808TIP3    H280840   6.879   6.598   3.776  1.0667  1.3939 -0.8001
19809TIP3   OH280841   1.769   6.588   4.322  0.6429  0.1478 -0.3537
19809TIP3    H180842   1.683   6.605   4.284  0.2736 -2.5729 -0.8770
19809TIP3    H280843   1.798   6.507   4.280  2.2316 -0.4883  1.8503
19810TIP3   OH280844   6.139   2.110   5.710  0.2056 -0.9745 -0.1887
19810TIP3    H180845   6.219   2.158   5.689 -0.8922  0.7005 -0.6794
19810TIP3    H280846   6.165   2.018   5.710  2.3822 -0.3806  0.8507
19811TIP3   OH280847   2.235   4.519   4.448  0.5807 -0.0011  0.0927
19811TIP3    H180848   2.212   4.442   4.396 -1.6350  1.2902 -0.9491
19811TIP3    H280849   2.170   4.520   4.518  0.5210  0.9480  0.0336
19812TIP3   OH280850   0.703   6.489   4.206 -0.4905  0.2152 -0.2873
19812TIP3    H180851   0.724   6.441   4.286 -0.4584 -0.6827 -0.8270
19812TIP3    H280852   0.635   6.437   4.163  0.9567 -0.4327 -1.8779
19813TIP3   OH280853   6.474   0.533   4.286  0.4513 -0.1325  0.6124
19813TIP3    H180854   6.501   0.548   4.196  2.4897  0.9506  1.3737
19813TIP3    H280855   6.435   0.446   4.285 -1.1837  0.5710 -1.6485
19814TIP3   OH280856   6.257   2.387   5.043  0.1529 -0.4914  0.3667
19814TIP3    H180857   6.223   2.353   5.125 -0.1002 -0.3605  0.3153
19814TIP3    H280858   6.208   2.340   4.975 -0.2213 -0.0019  0.2966
19815TIP3   OH280859   6.017   0.709   6.124  0.1800  0.0894  0.4066
19815TIP3    H180860   6.078   0.769   6.167  0.7448  0.4882 -0.9439
19815TIP3    H280861   6.069   0.665   6.057 -1.1765  0.9515 -1.2310
19816TIP3   OH280862   5.159   3.200   4.943 -0.2299  0.4509  0.2285
19816TIP3    H180863   5.092   3.171   5.005  1.2189  0.8617  2.0583
19816TIP3    H280864   5.144   3.148   4.865 -1.1210 -1.2641  1.4971
19817TIP3   OH280865   4.488   2.864   5.354  0.3739  0.5464  0.2054
19817TIP3    H180866   4.446   2.778   5.354 -0.4580  0.9490  0.4707
19817TIP3    H280867   4.416   2.925   5.341  1.1804  1.0919 -1.8772
19818TIP3   OH280868   5.266   1.678   3.526  0.1628  0.0209  0.0101
19818TIP3    H180869   5.209   1.605   3.499  0.8885 -1.4127  2.2237
19818TIP3    H280870   5.211   1.731   3.583  0.3839 -0.1748  0.4068
19819TIP3   OH280871   5.530   5.472   4.690  0.2235 -0.3250 -0.2637
19819TIP3    H180872   5.610   5.525   4.692  0.1713 -0.1980 -1.2018
19819TIP3    H280873   5.523   5.435   4.778 -0.8060  2.8276  1.0669
19820TIP3   OH280874   5.225   6.686   4.874  0.0921  0.2097 -0.8619
19820TIP3    H180875   5.163   6.749   4.909  1.0606  1.6744 -1.7402
19820TIP3    H280876   5.173   6.608   4.855 -0.7616  0.0378  2.0787
19821TIP3   OH280877   1.317   0.630   5.190 -0.2022  0.2239 -0.3666
19821TIP3    H180878   1.360   0.575   5.125  0.6135 -1.3831  1.5055
19821TIP3    H280879   1.339   0.591   5.275  0.7148  3.6415  1.0667
19822TIP3   OH280880   0.496   0.420   4.611  0.1271  0.7532 -0.1688
19822TIP3    H180881   0.586   0.438   4.584  0.5332  2.3558  2.0556
19822TIP3    H280882   0.491   0.454   4.701 -2.6928  0.6879 -0.2565
19823TIP3   OH280883   0.080   1.101   3.206  0.4403 -0.1877 -0.2530
19823TIP3    H180884   0.067   1.028   3.266  1.5738  1.3517  1.9638
19823TIP3    H280885  -0.008   1.136   3.191  0.2867  0.4625  1.9393
19824TIP3   OH280886   0.403   3.389   6.276 -0.0520  0.3161 -0.2277
19824TIP3    H180887   0.346   3.392   6.353  0.4581 -0.2495  0.1799
19824TIP3    H280888   0.385   3.304   6.236 -1.3333  1.1830 -1.5283
19825TIP3   OH280889   0.870   1.314   1.942  0.2592 -0.9538 -0.0988
19825TIP3    H180890   0.805   1.371   1.901  0.3405 -0.7772  0.0158
19825TIP3    H280891   0.863   1.231   1.895 -1.9777 -1.8494  1.7326
19826TIP3   OH280892   5.792   3.191   5.581  0.4743  0.1409  0.2430
19826TIP3    H180893   5.876   3.165   5.544  0.4541  0.3504  0.0507
19826TIP3    H280894   5.764   3.266   5.528  0.4231  0.4120  0.6468
19827TIP3   OH280895   0.359   2.299   5.772  0.1482 -0.4109  0.3354
19827TIP3    H180896   0.452   2.322   5.774 -0.3011  1.5235 -0.2581
19827TIP3    H280897   0.321   2.348   5.845 -0.4404 -0.9931  0.4163
19828TIP3   OH280898   4.534   3.530   5.137  0.0257 -0.1307  0.0738
19828TIP3    H180899   4.526   3.573   5.222 -0.2463 -1.1271  0.5521
19828TIP3    H280900   4.455   3.556   5.089  0.7009  1.3204 -0.2918
19829TIP3   OH280901   5.985   4.192   4.667 -0.0594 -0.3382 -0.0043
19829TIP3    H180902   6.063   4.149   4.701  0.2496  0.0343 -0.2350
19829TIP3    H280903   6.019   4.256   4.605 -0.5664 -0.4084 -0.3569
19830TIP3   OH280904   1.176   6.550   4.124 -0.7622 -0.2917 -0.2926
19830TIP3    H180905   1.198   6.565   4.216 -1.2763  1.3318 -0.4237
19830TIP3    H280906   1.117   6.475   4.125  0.8461 -1.5738  0.5114
19831TIP3   OH280907   0.748   3.173   6.318  0.1503 -0.1333 -0.6592
19831TIP3    H180908   0.696   3.094   6.335  1.1233 -0.3229  1.7296
19831TIP3    H280909   0.702   3.242   6.365  0.8944  0.1192 -0.2987
19832TIP3   OH280910   6.295   1.870   5.682 -0.3925  0.3696  0.0281
19832TIP3    H180911   6.262   1.844   5.597  1.6659 -0.0306 -0.6674
19832TIP3    H280912   6.264   1.802   5.742 -0.8972  0.0635 -0.5758
19833TIP3   OH280913   1.764   2.619   5.408  0.1152 -0.0614  0.0221
19833TIP3    H180914   1.738   2.554   5.473  1.4123 -0.2362  0.3858
19833TIP3    H280915   1.687   2.673   5.396 -0.6767 -1.0843  0.4295
19834TIP3   OH280916   7.099   2.892   4.473  1.0971  0.1573  0.3964
19834TIP3    H180917   7.187   2.854   4.468  1.0382  0.0839 -0.0867
19834TIP3    H280918   7.070   2.872   4.562  0.3167 -2.5886 -0.4107
19835TIP3   OH280919   5.111   3.339   4.502  0.5375 -0.0457  0.3798
19835TIP3    H180920   5.142   3.427   4.482 -0.6966  0.5572  1.0826
19835TIP3    H280921   5.038   3.352   4.562 -1.8048 -1.3337 -2.0782
19836TIP3   OH280922   1.156   3.674   3.536 -0.0620  0.6365  0.2353
19836TIP3    H180923   1.214   3.647   3.465  0.2538  0.5149  0.5402
19836TIP3    H280924   1.100   3.598   3.552  0.9159  0.1082  1.1844
19837TIP3   OH280925   5.844   2.169   5.055 -1.4965 -0.0505  0.1634
19837TIP3    H180926   5.764   2.122   5.031 -1.2164  0.2916 -1.4633
19837TIP3    H280927   5.866   2.219   4.977  0.3394 -0.1761  0.5969
19838TIP3   OH280928   5.744   0.644   1.448  0.0651 -0.4522 -0.0468
19838TIP3    H180929   5.827   0.640   1.496 -0.6390 -1.8176  1.1117
19838TIP3    H280930   5.755   0.715   1.385  1.3049  0.8873  1.6416
19839TIP3   OH280931   6.935   1.342   5.057 -1.0565 -0.2173  0.0957
19839TIP3    H180932   6.902   1.380   5.138 -0.6947  0.3152 -0.0065
19839TIP3    H280933   7.008   1.287   5.084 -0.2711  0.7821  0.0177
19840TIP3   OH280934   1.040   4.223   5.766  0.1194  0.5423 -0.3139
19840TIP3    H180935   0.966   4.169   5.738  0.2147  1.1934 -1.8752
19840TIP3    H280936   1.112   4.161   5.775  0.1244  0.3135 -1.7028
19841TIP3   OH280937   6.331   3.330   5.196  0.4195  0.4471  0.5389
19841TIP3    H180938   6.325   3.307   5.289 -0.9717  0.4135  0.4476
19841TIP3    H280939   6.415   3.375   5.188  2.4537 -3.0482  1.0691
19842TIP3   OH280940   1.662   2.681   5.665 -0.7498 -0.0407 -0.0368
19842TIP3    H180941   1.603   2.739   5.712 -0.7443 -1.0764  1.2663
19842TIP3    H280942   1.735   2.665   5.725 -0.0563 -0.2758 -0.9146
19843TIP3   OH280943   2.516   6.491   5.899 -0.1752 -0.0014 -0.3706
19843TIP3    H180944   2.448   6.545   5.857 -1.0531 -1.7760 -1.2714
19843TIP3    H280945   2.469   6.414   5.931  1.1387 -0.4309  0.5521
19844TIP3   OH280946   1.127   2.085   5.824  0.3449  0.0624  0.9103
19844TIP3    H180947   1.206   2.086   5.879  1.9606  1.7802 -1.3511
19844TIP3    H280948   1.135   2.003   5.775 -0.0907 -0.5197  1.7991
19845TIP3   OH280949   0.384   3.411   6.016 -0.1436 -0.3594 -0.0867
19845TIP3    H180950   0.388   3.433   6.109 -0.7710  0.5863 -0.2755
19845TIP3    H280951   0.341   3.326   6.012  0.7544 -0.8479  0.5473
19846TIP3   OH280952   0.145   6.631   4.316 -0.3348  0.0171 -0.5222
19846TIP3    H180953   0.142   6.709   4.371 -0.4187 -0.0690 -0.4068
19846TIP3    H280954   0.205   6.654   4.245 -1.2046  0.5760 -1.0837
19847TIP3   OH280955   3.865   2.852   2.484  0.1261  0.1760 -0.0390
19847TIP3    H180956   3.922   2.903   2.541  1.2310  0.6316 -1.5187
19847TIP3    H280957   3.870   2.896   2.399 -0.7977 -0.9870 -0.7197
19848TIP3   OH280958   3.054   1.847   6.175 -0.0075  0.0518  0.3404
19848TIP3    H180959   3.112   1.786   6.130  0.6359  0.4700  0.5924
19848TIP3    H280960   3.112   1.899   6.231 -0.2278  2.3224 -1.4437
19849TIP3   OH280961   3.918   3.358   3.751  0.2945  0.0848  0.4015
19849TIP3    H180962   3.966   3.308   3.817  0.1767  0.9568  1.1713
19849TIP3    H280963   3.829   3.324   3.755  0.6194 -0.8745 -0.3518
19850TIP3   OH280964   4.210   2.030   3.193 -0.3703  0.1035 -0.1972
19850TIP3    H180965   4.173   2.067   3.273  0.0824  1.7096 -0.7202
19850TIP3    H280966   4.141   1.972   3.159 -0.6856 -0.3207  1.1691
19851TIP3   OH280967   2.875   0.824   3.384  0.2945  0.7381 -0.3918
19851TIP3    H180968   2.893   0.878   3.306 -1.4840  3.2539  0.8440
19851TIP3    H280969   2.806   0.764   3.356  1.2361  0.1034 -1.3755
19852TIP3   OH280970   0.618   7.034   3.578  0.1593 -0.4116 -0.3752
19852TIP3    H180971   0.582   7.020   3.491  1.8804 -0.5074 -1.0804
19852TIP3    H280972   0.645   6.947   3.608  0.9086 -0.1713 -0.3450
19853TIP3   OH280973   3.010   1.657   4.619  0.0838  0.1242 -0.2391
19853TIP3    H180974   2.928   1.702   4.640 -0.0683 -0.7173  1.0439
19853TIP3    H280975   3.076   1.726   4.616 -0.7890  0.9125 -2.0505
19854TIP3   OH280976   2.638   1.542   3.881  0.4469  0.2857  0.1634
19854TIP3    H180977   2.585   1.482   3.828  0.8110 -0.3158  0.4810
19854TIP3    H280978   2.718   1.553   3.830 -0.0111  1.2747 -0.3655
19855TIP3   OH280979   3.559   2.487   6.072 -0.1039  0.5981  0.0041
19855TIP3    H180980   3.646   2.453   6.096  0.1145 -0.0753 -1.6199
19855TIP3    H280981   3.555   2.574   6.111  0.8617  0.1844  1.0471
19856TIP3   OH280982   2.635   2.450   4.048 -0.0346 -1.0468 -0.1767
19856TIP3    H180983   2.640   2.358   4.021 -1.0917 -0.9195 -0.8607
19856TIP3    H280984   2.676   2.498   3.976  0.6982 -0.9951  0.2728
19857TIP3   OH280985   3.202   5.851   3.576 -0.2998  0.4063 -0.0419
19857TIP3    H180986   3.273   5.813   3.628 -0.6478 -0.0960  0.0723
19857TIP3    H280987   3.225   5.831   3.486  1.5373  3.3497 -0.2948
19858TIP3   OH280988   4.894   2.075   5.302  0.4848  0.4909  0.6942
19858TIP3    H180989   4.985   2.046   5.310  0.9595  1.2651 -1.6491
19858TIP3    H280990   4.858   2.065   5.390  2.9231  0.4866  1.7211
19859TIP3   OH280991   5.366   4.600   4.721  0.0364 -0.0495  0.3696
19859TIP3    H180992   5.332   4.511   4.712  0.2667  0.1423 -2.6195
19859TIP3    H280993   5.460   4.588   4.735 -0.1391 -0.3071  1.3824
19860TIP3   OH280994   4.822   4.711   4.098  0.0330  0.3641  0.1935
19860TIP3    H180995   4.804   4.643   4.163  1.7305 -0.8885 -0.6189
19860TIP3    H280996   4.903   4.752   4.128 -1.1760  2.2888  0.8721
19861TIP3   OH280997   5.854   3.481   3.675 -0.2919  0.5097  0.2726
19861TIP3    H180998   5.885   3.432   3.599  1.6446 -0.5580  1.6966
19861TIP3    H280999   5.931   3.531   3.704 -1.1962  1.4308  1.1297
19862TIP3   OH281000   6.795   2.857   2.585  0.6072 -0.1650 -0.3435
19862TIP3    H181001   6.879   2.883   2.623  0.9291 -1.1945 -0.3346
19862TIP3    H281002   6.799   2.886   2.494  0.3296  1.1983  0.0620
19863TIP3   OH281003   3.714   5.621   4.624 -0.0060 -0.3321  0.2766
19863TIP3    H181004   3.643   5.685   4.622  0.5351  0.2287 -1.3702
19863TIP3    H281005   3.767   5.647   4.700  0.1324  1.0895 -0.2968
19864TIP3   OH281006   1.248   2.525   4.597 -0.3845  0.5556  0.0990
19864TIP3    H181007   1.303   2.601   4.581  1.5190 -0.2908  2.2644
19864TIP3    H281008   1.302   2.451   4.569 -1.2624 -0.1402  0.2369
19865TIP3   OH281009   4.838   3.683   5.924  0.4970 -0.3551  0.1543
19865TIP3    H181010   4.821   3.758   5.867  1.4993  0.3925  0.8188
19865TIP3    H281011   4.819   3.716   6.012  1.0650 -0.8407  0.4593
19866TIP3   OH281012   4.683   0.776   4.343  0.0216 -0.9872 -1.0889
19866TIP3    H181013   4.614   0.754   4.281 -0.3974 -0.2881 -0.8726
19866TIP3    H281014   4.717   0.692   4.373 -1.9972 -1.3503  0.2346
19867TIP3   OH281015   5.453   1.280   3.939  0.0206  0.1255 -0.0046
19867TIP3    H181016   5.512   1.344   3.899  0.5741  0.1692  0.8796
19867TIP3    H281017   5.507   1.201   3.949  0.0321  0.2759  1.1320
19868TIP3   OH281018   1.826   4.744   4.521 -0.1368  0.1938  0.3101
19868TIP3    H181019   1.838   4.829   4.479 -2.8644  1.1563  1.3967
19868TIP3    H281020   1.823   4.764   4.615  0.6419 -1.2993  0.6676
19869TIP3   OH281021   3.149   0.869   5.002 -0.0819 -0.4132 -0.2271
19869TIP3    H181022   3.085   0.916   4.950  0.0307 -1.1576 -1.0433
19869TIP3    H281023   3.133   0.776   4.982 -0.1000 -0.7169  1.1169
19870TIP3   OH281024   3.068   1.535   4.860  0.0339 -0.1464 -0.4347
19870TIP3    H181025   3.056   1.581   4.777 -0.5390  1.4529  0.5094
19870TIP3    H281026   2.992   1.560   4.912  0.5556 -0.8700  0.6872
19871TIP3   OH281027   6.610   2.703   6.088  0.0615 -0.3252 -0.5155
19871TIP3    H181028   6.614   2.629   6.027  0.0656 -0.0204 -0.8852
19871TIP3    H281029   6.518   2.709   6.113 -0.6775  1.9550 -3.4775
19872TIP3   OH281030   6.040   1.437   3.528 -0.5362 -0.1788 -0.2191
19872TIP3    H181031   6.115   1.409   3.581 -1.0557  1.3060  1.3893
19872TIP3    H281032   6.078   1.469   3.447  0.2623 -2.7793 -0.9119
19873TIP3   OH281033   0.493   2.502   3.489 -0.0413 -0.1165 -0.0501
19873TIP3    H181034   0.543   2.581   3.468  2.9686 -2.4699 -2.1246
19873TIP3    H281035   0.492   2.499   3.585  2.9739  0.5435  0.0484
19874TIP3   OH281036   0.483   3.823   4.744  0.0839 -0.6588  0.3527
19874TIP3    H181037   0.558   3.867   4.703  1.3533 -2.0956  1.0833
19874TIP3    H281038   0.496   3.730   4.724 -0.9324 -1.0309  1.3961
19875TIP3   OH281039   0.241   3.219   1.249 -0.6039  0.0569  0.0604
19875TIP3    H181040   0.264   3.131   1.219 -0.1754  0.4338 -0.7313
19875TIP3    H281041   0.315   3.245   1.304 -0.5037  0.1188 -0.1049
19876TIP3   OH281042   3.754   6.668   3.903  0.0293 -0.1814 -0.1585
19876TIP3    H181043   3.671   6.664   3.951 -0.2641 -1.5346 -0.7695
19876TIP3    H281044   3.807   6.597   3.940  1.2208  1.1440  0.7519
19877TIP3   OH281045   4.082   0.611   3.568 -0.1078 -0.0968  0.4660
19877TIP3    H181046   4.024   0.687   3.570  0.8504  0.6887 -0.8169
19877TIP3    H281047   4.167   0.647   3.544  0.4642 -1.5225  0.3140
19878TIP3   OH281048   6.613   2.941   1.654 -0.9398 -0.3277 -0.1136
19878TIP3    H181049   6.701   2.978   1.642 -0.5487 -1.1194  0.2409
19878TIP3    H281050   6.626   2.847   1.643 -1.5489 -0.5584  1.1037
19879TIP3   OH281051   6.455   2.302  14.565  0.4742 -0.3575 -0.2303
19879TIP3    H181052   6.411   2.340  14.489 -1.8055 -1.9698  0.2309
19879TIP3    H281053   6.536   2.353  14.574 -0.5905  1.7286 -1.9886
19880TIP3   OH281054   5.849   1.267   4.289 -0.6304  0.4896  0.1764
19880TIP3    H181055   5.786   1.290   4.221 -1.1288  0.8070  0.7436
19880TIP3    H281056   5.816   1.309   4.369 -0.0970  0.0577  0.6348
19881TIP3   OH281057   4.159   5.476   4.252 -1.3077 -0.1210  0.2551
19881TIP3    H181058   4.254   5.490   4.245 -1.9221  2.8928 -4.1050
19881TIP3    H281059   4.144   5.390   4.214 -0.5413  0.4822 -1.4479
19882TIP3   OH281060   6.498   3.606   4.493  0.1458  0.4228  0.0995
19882TIP3    H181061   6.518   3.663   4.567  3.5192 -0.8451  0.2483
19882TIP3    H281062   6.416   3.563   4.516  1.3881 -0.3071  3.3532
19883TIP3   OH281063   6.488   3.945   5.777  0.2122 -0.5157  0.1043
19883TIP3    H181064   6.574   3.982   5.761  0.1402 -0.8727 -1.1243
19883TIP3    H281065   6.427   4.017   5.762  0.2946 -0.1959  1.2135
19884TIP3   OH281066   6.142   2.946   1.111  0.1206 -0.3395 -0.0464
19884TIP3    H181067   6.138   2.959   1.206  1.1020 -1.7214  0.2032
19884TIP3    H281068   6.057   2.976   1.079 -0.1429  0.3275  1.2416
19885TIP3   OH281069   5.959   6.790   1.537 -0.0920 -0.3772 -0.4907
19885TIP3    H181070   5.904   6.725   1.581 -0.6768 -0.5220 -1.4262
19885TIP3    H281071   5.953   6.868   1.592 -0.3838 -0.7196 -0.0309
19886TIP3   OH281072   4.594   2.004   3.666  0.2470  0.1980  0.2473
19886TIP3    H181073   4.593   1.986   3.572  2.0268  1.8301 -0.0981
19886TIP3    H281074   4.687   2.010   3.688 -0.1884  2.7941  1.5088
19887TIP3   OH281075   3.440   1.615   4.841  0.1656  0.2152  0.0738
19887TIP3    H181076   3.366   1.556   4.833  1.1002 -0.9652  0.0068
19887TIP3    H281077   3.506   1.579   4.783  0.7138  1.3989 -0.0660
19888TIP3   OH281078   6.400   3.866  15.557  0.0435  0.2717  0.3616
19888TIP3    H181079   6.391   3.954  15.593 -0.5212 -0.1588  1.2788
19888TIP3    H281080   6.443   3.816  15.627  3.0385  0.5227 -1.2196
19889TIP3   OH281081   1.560   1.607   3.283 -0.0437 -0.5158  0.0805
19889TIP3    H181082   1.571   1.587   3.190 -0.6699 -2.4115  0.3855
19889TIP3    H281083   1.648   1.599   3.319 -0.1077 -1.8651 -0.0032
19890TIP3   OH281084   4.934   2.951   5.657 -0.1115 -0.2678  0.7531
19890TIP3    H181085   4.902   2.874   5.705 -0.0206 -0.2034  0.9168
19890TIP3    H281086   4.860   2.976   5.601 -0.0521 -0.6304  0.5112
19891TIP3   OH281087   1.271   4.352   5.122  0.1128 -0.3174  0.0965
19891TIP3    H181088   1.237   4.324   5.036 -0.0083  0.1447 -0.0066
19891TIP3    H281089   1.223   4.298   5.185 -2.3727  1.7542  0.0849
19892TIP3   OH281090   1.093   5.552   5.512 -0.1624  0.5659 -0.0284
19892TIP3    H181091   1.046   5.488   5.566 -2.6332 -0.1282 -2.8358
19892TIP3    H281092   1.160   5.501   5.466 -2.3415 -0.2048 -2.5133
19893TIP3   OH281093   6.121   4.957   2.478 -0.3175 -0.0173 -0.0112
19893TIP3    H181094   6.112   4.899   2.554  1.8621 -1.7417 -1.0025
19893TIP3    H281095   6.031   4.968   2.446 -0.9031 -1.9836  0.8589
19894TIP3   OH281096   4.343   2.739   3.949 -0.2088 -0.1475 -0.3841
19894TIP3    H181097   4.379   2.667   4.001  0.6021  0.3245 -0.2796
19894TIP3    H281098   4.249   2.720   3.943 -0.1483 -0.7290  0.4097
19895TIP3   OH281099   2.576   0.922   4.297  0.3298  0.2693 -0.0842
19895TIP3    H181100   2.548   0.856   4.361  1.5485 -1.4129 -1.2645
19895TIP3    H281101   2.670   0.907   4.287  1.0290  3.4488  1.0517
19896TIP3   OH281102   4.121   6.243   4.677 -0.2044 -0.3707  0.1523
19896TIP3    H181103   4.104   6.335   4.697 -1.3829 -1.0992  2.6501
19896TIP3    H281104   4.082   6.230   4.591  1.4307  1.8543 -0.9980
19897TIP3   OH281105   0.844   4.421   5.498  0.0709  0.1940 -0.0960
19897TIP3    H181106   0.756   4.392   5.473 -0.0495  0.2231  0.2947
19897TIP3    H281107   0.885   4.344   5.535 -0.2301  0.4958  0.8904
19898TIP3   OH281108   6.941   3.350   4.125 -0.1273  0.4872 -0.0178
19898TIP3    H181109   7.010   3.385   4.069 -1.0813  0.1611 -1.4013
19898TIP3    H281110   6.950   3.255   4.119 -1.0078  0.4369 -0.5930
19899TIP3   OH281111   0.213   2.816   4.379 -0.0559  0.3677  0.4663
19899TIP3    H181112   0.181   2.786   4.293 -0.7147 -1.1313  1.2243
19899TIP3    H281113   0.284   2.756   4.401  0.7278  1.3127  0.5778
19900TIP3   OH281114   7.145   2.296   2.847  1.0315  0.1170 -0.3342
19900TIP3    H181115   7.148   2.389   2.865 -1.6263  0.0386  0.8053
19900TIP3    H281116   7.199   2.256   2.914 -1.2428  0.5570  1.8358
19901TIP3   OH281117   5.021   4.814   6.384  0.5271 -0.0660  0.5139
19901TIP3    H181118   5.065   4.737   6.421 -1.4259 -0.9770  0.9958
19901TIP3    H281119   4.943   4.825   6.439 -0.6448  0.6080 -1.2589
19902TIP3   OH281120   2.167   4.300   5.013  0.0183 -0.1963 -0.0664
19902TIP3    H181121   2.095   4.278   5.071  0.4635 -1.5073  0.0070
19902TIP3    H281122   2.201   4.383   5.047 -1.8768  0.7808 -0.5227
19903TIP3   OH281123   4.233   3.836   3.511 -0.3550  0.2158 -0.0240
19903TIP3    H181124   4.199   3.828   3.600 -2.9489 -0.3201 -1.0127
19903TIP3    H281125   4.313   3.782   3.511  1.0294  2.1285  2.5649
19904TIP3   OH281126   2.547   3.745   2.032  0.1601  0.5206  0.3953
19904TIP3    H181127   2.638   3.734   2.006 -0.4487  0.1888 -1.7715
19904TIP3    H281128   2.541   3.708   2.120  1.7947 -0.8580 -0.0514
19905TIP3   OH281129   3.382   2.452   5.444 -0.5631 -0.3683 -0.4287
19905TIP3    H181130   3.416   2.392   5.378 -1.4738 -0.0806 -1.1776
19905TIP3    H281131   3.314   2.502   5.398 -2.7298 -1.6506  1.3046
19906TIP3   OH281132   3.544   2.778   5.116  0.5609  0.2529 -0.1833
19906TIP3    H181133   3.499   2.804   5.196 -0.3201 -1.2744 -0.1544
19906TIP3    H281134   3.637   2.787   5.137  0.3578 -0.6367  1.2058
19907TIP3   OH281135   2.489   2.326   4.812 -0.0605 -0.2216 -0.0254
19907TIP3    H181136   2.517   2.268   4.882  0.3377 -1.5490 -1.2578
19907TIP3    H281137   2.511   2.279   4.732 -1.9734  0.5693 -1.0442
19908TIP3   OH281138   2.043   3.726   3.471 -0.7007 -0.1904  0.4353
19908TIP3    H181139   2.117   3.704   3.527 -1.5256 -0.6251  1.3645
19908TIP3    H281140   2.066   3.811   3.432  0.5627 -0.6381  0.2156
19909TIP3   OH281141   7.062   3.423   2.258 -0.5617 -0.1412  0.2376
19909TIP3    H181142   6.993   3.470   2.211 -0.3554 -0.8624 -0.8044
19909TIP3    H281143   7.015   3.367   2.321 -0.9143 -0.3911 -0.2459
19910TIP3   OH281144   2.563   1.583   5.230  0.2022  0.9774  0.2812
19910TIP3    H181145   2.544   1.587   5.324 -0.1491 -0.2709  0.2742
19910TIP3    H281146   2.558   1.490   5.208  0.7772  1.2041 -0.8781
19911TIP3   OH281147   0.392   3.340   3.912  0.5091 -0.6899 -0.2568
19911TIP3    H181148   0.447   3.266   3.939  1.0997 -0.9150 -1.9977
19911TIP3    H281149   0.443   3.418   3.935 -0.2367 -0.8051  1.8392
19912TIP3   OH281150   0.410   3.588   5.150  0.2494 -0.1484  0.0096
19912TIP3    H181151   0.461   3.651   5.099  0.3375  0.7626  1.1851
19912TIP3    H281152   0.410   3.624   5.239  0.0203 -1.6555  0.6363
19913TIP3   OH281153   5.673   4.618   5.959  0.2690 -0.0810 -0.0488
19913TIP3    H181154   5.656   4.642   6.050  1.2059  1.4475 -0.2613
19913TIP3    H281155   5.597   4.651   5.911  0.6037  0.6913 -0.0565
19914TIP3   OH281156   4.385   4.528   6.010  0.1440 -0.9232 -0.0189
19914TIP3    H181157   4.443   4.593   6.050 -0.1976 -1.1078  0.7849
19914TIP3    H281158   4.302   4.575   5.997  0.2233 -0.8936 -0.4100
19915TIP3   OH281159   4.589   5.163   6.085  0.0144 -0.0911  0.5392
19915TIP3    H181160   4.521   5.107   6.047  2.3659 -3.1084  0.5980
19915TIP3    H281161   4.628   5.207   6.009 -1.9250  1.6555  0.5054
19916TIP3   OH281162   2.628   4.816   4.080  0.2801 -0.4635 -0.0008
19916TIP3    H181163   2.641   4.902   4.120 -0.5178 -0.8973  1.2457
19916TIP3    H281164   2.650   4.754   4.150 -0.8480 -1.2524 -0.3242
19917TIP3   OH281165   0.910   5.086   3.700 -0.3965 -0.3071  0.2769
19917TIP3    H181166   0.868   5.122   3.779 -1.0828  0.9710 -0.6519
19917TIP3    H281167   0.946   5.163   3.655 -2.1157 -0.7317 -1.8931
19918TIP3   OH281168   4.589   6.405   4.041 -0.5989  0.1019  0.0318
19918TIP3    H181169   4.519   6.467   4.065  0.5784  1.1676  0.7773
19918TIP3    H281170   4.581   6.334   4.105 -1.9236 -0.5021 -0.7908
19919TIP3   OH281171   6.828   2.494   4.183  0.7229  0.3470 -0.5803
19919TIP3    H181172   6.812   2.583   4.151  0.3923  0.5773  0.2223
19919TIP3    H281173   6.809   2.498   4.276  1.6146 -0.3450 -0.3571
19920TIP3   OH281174   4.702   4.050   5.114  0.0554  0.4306 -0.0835
19920TIP3    H181175   4.779   4.051   5.057 -1.1640  0.2119 -1.7554
19920TIP3    H281176   4.734   4.086   5.197  1.8316  0.8342 -0.9078
19921TIP3   OH281177   2.709   4.883   4.476  0.2491 -0.3030 -0.1598
19921TIP3    H181178   2.748   4.797   4.490 -1.1007 -1.0074 -0.6151
19921TIP3    H281179   2.626   4.880   4.524  0.6530  1.1032  0.6425
19922TIP3   OH281180   4.387   5.498   2.403  0.6290  0.3605 -0.1899
19922TIP3    H181181   4.431   5.436   2.462  1.5693 -0.2365 -1.5065
19922TIP3    H281182   4.420   5.584   2.431  1.1686  0.0732  0.0822
19923TIP3   OH281183   3.649   3.768   6.155  0.3143 -0.0871 -0.0486
19923TIP3    H181184   3.645   3.690   6.100  0.8676 -1.1427  1.3796
19923TIP3    H281185   3.570   3.817   6.132  0.1629 -0.8554 -1.2461
19924TIP3   OH281186   4.773   3.289   3.718  0.2044 -0.3010 -0.0132
19924TIP3    H181187   4.773   3.365   3.777 -1.3090 -0.3437  0.0412
19924TIP3    H281188   4.853   3.300   3.667  0.7505  0.5606  0.9891
19925TIP3   OH281189   5.533   3.373   0.286 -0.0608  0.8277 -0.1878
19925TIP3    H181190   5.620   3.385   0.322  0.0615  2.2381 -0.9337
19925TIP3    H281191   5.497   3.462   0.277 -1.2571  0.3198 -0.6248
19926TIP3   OH281192   6.937   5.023   5.140 -0.2977 -0.4693 -0.2869
19926TIP3    H181193   6.896   4.966   5.204  1.2041  1.3201  2.3720
19926TIP3    H281194   6.869   5.087   5.117  0.3460  1.3991  2.7386
19927TIP3   OH281195   5.365   6.869   3.611  0.3277 -0.1823 -0.7618
19927TIP3    H181196   5.351   6.782   3.650 -1.0065 -0.4059 -1.6871
19927TIP3    H281197   5.456   6.890   3.631  0.3729 -1.3573  0.3411
19928TIP3   OH281198   5.914   4.212   5.081 -0.2620  0.2287  0.2701
19928TIP3    H181199   5.971   4.261   5.141 -2.3726  1.0591  1.6304
19928TIP3    H281200   5.856   4.162   5.138  0.2013 -1.9387 -1.1208
19929TIP3   OH281201   2.500   3.625   2.960 -0.6471 -0.1521  0.4428
19929TIP3    H181202   2.479   3.585   2.875 -0.8862 -2.1951  1.4210
19929TIP3    H281203   2.459   3.567   3.024 -0.2443  1.2225  1.9690
19930TIP3   OH281204   3.454   6.576   1.510  0.8157 -0.2581 -0.6054
19930TIP3    H181205   3.428   6.583   1.602 -0.8300 -1.2968 -0.9688
19930TIP3    H281206   3.494   6.660   1.490  0.8598  0.1156  0.9667
19931TIP3   OH281207   5.792   2.455   3.063 -0.1431  0.0136  0.3337
19931TIP3    H181208   5.842   2.392   3.115 -0.5753  0.3159  1.1295
19931TIP3    H281209   5.794   2.420   2.974  0.7760 -0.4097  0.5109
19932TIP3   OH281210   2.664   1.161   2.288  0.3576 -0.0020 -0.1036
19932TIP3    H181211   2.642   1.165   2.195  0.7393  0.4279 -0.1750
19932TIP3    H281212   2.721   1.237   2.303  0.9373 -0.5164  0.3082
19933TIP3   OH281213   0.936   1.473   1.108  0.0260 -0.2376  0.5183
19933TIP3    H181214   0.906   1.471   1.199  1.1538  0.2447  0.9142
19933TIP3    H281215   0.867   1.429   1.059 -0.9691  0.2039  1.5003
19934TIP3   OH281216   4.275   0.566   1.392  0.1111  1.1206 -0.4732
19934TIP3    H181217   4.292   0.477   1.422 -1.4116  1.2833  0.9309
19934TIP3    H281218   4.361   0.600   1.367  0.8152 -0.4484 -0.2100
19935TIP3   OH281219   1.662   2.758   1.004 -0.2852  0.0164 -0.3031
19935TIP3    H181220   1.636   2.741   1.094 -0.5635  0.5508 -0.2833
19935TIP3    H281221   1.686   2.672   0.970  1.1187 -0.0069  0.6887
19936TIP3   OH281222   5.161   1.434   3.429  0.6851 -0.3579 -0.1305
19936TIP3    H181223   5.096   1.372   3.396 -0.4239  0.5931  0.2523
19936TIP3    H281224   5.179   1.405   3.518 -0.9787  0.7513  0.5904
19937TIP3   OH281225   5.122   3.991   5.728 -0.4060 -0.0387  0.1400
19937TIP3    H181226   5.098   3.944   5.649 -0.0119  0.9016 -0.5490
19937TIP3    H281227   5.176   3.929   5.778 -1.0573 -0.7967 -0.0919
19938TIP3   OH281228   5.563   5.781   3.561 -0.0932  0.6316  0.0990
19938TIP3    H181229   5.517   5.746   3.638 -0.2938  0.4135 -0.1219
19938TIP3    H281230   5.503   5.846   3.525 -1.3049 -1.3585 -1.6116
19939TIP3   OH281231   6.661   3.777   6.223  0.0172  0.0179  0.3135
19939TIP3    H181232   6.719   3.817   6.158 -0.1551 -0.9937 -0.4688
19939TIP3    H281233   6.718   3.762   6.299 -0.2780  3.1887  1.2068
19940TIP3   OH281234   3.201   3.108   5.283 -0.6362 -0.2222  0.3304
19940TIP3    H181235   3.269   3.160   5.239 -1.1627 -0.3903 -0.6867
19940TIP3    H281236   3.151   3.172   5.334 -0.2886  0.0344  0.3517
19941TIP3   OH281237   6.173   5.454   5.904 -0.1076  0.2992  0.0614
19941TIP3    H181238   6.111   5.487   5.970  1.1713 -0.9938  1.9341
19941TIP3    H281239   6.237   5.525   5.894  0.1401  0.1848  0.8028
19942TIP3   OH281240   1.338   6.724   4.455  0.5327  1.2308  0.0736
19942TIP3    H181241   1.335   6.718   4.550 -0.9459 -1.6038 -0.0997
19942TIP3    H281242   1.391   6.649   4.428 -0.8936  0.7311 -1.4135
19943TIP3   OH281243   1.449   0.322   6.250  0.6360  0.0453  0.1257
19943TIP3    H181244   1.387   0.388   6.220 -0.5308 -1.1581 -0.1210
19943TIP3    H281245   1.397   0.259   6.298  1.5623 -1.2821 -0.5588
19944TIP3   OH281246   0.315   4.813   2.122  0.5314 -0.0927 -0.0910
19944TIP3    H181247   0.302   4.894   2.072 -1.7391  0.9380  2.0923
19944TIP3    H281248   0.401   4.824   2.162  0.8005  0.6563 -0.8503
19945TIP3   OH281249   0.431   0.304   5.166  0.5800  0.1069  0.1686
19945TIP3    H181250   0.429   0.326   5.259  1.7208 -1.8813  0.6876
19945TIP3    H281251   0.378   0.224   5.159  4.1547 -2.3190 -0.1190
19946TIP3   OH281252   0.585   0.154   5.865  0.0557 -0.0480  0.4133
19946TIP3    H181253   0.503   0.201   5.878 -0.7650 -0.9518 -1.3800
19946TIP3    H281254   0.568   0.066   5.897 -0.2685 -0.7470 -1.6036
19947TIP3   OH281255   2.833   5.956   5.056  0.9880 -0.0830  0.2039
19947TIP3    H181256   2.776   5.943   5.132  0.4718 -1.0624 -0.3476
19947TIP3    H281257   2.893   5.882   5.058  0.1061 -0.8355 -1.1162
19948TIP3   OH281258   6.873   3.428   5.002  0.0489 -0.0690  0.4422
19948TIP3    H181259   6.925   3.507   4.982  0.3687 -0.6268 -1.0192
19948TIP3    H281260   6.804   3.428   4.935 -0.9693 -0.1150  1.4895
19949TIP3   OH281261   2.316   4.490   5.161 -0.2183 -0.8294 -0.9977
19949TIP3    H181262   2.228   4.518   5.188 -0.8938 -2.2341 -1.6402
19949TIP3    H281263   2.352   4.445   5.237 -0.0240 -0.1891 -0.7099
19950TIP3   OH281264   1.147   7.039   4.601 -0.0425  0.2858 -0.0303
19950TIP3    H181265   1.173   6.993   4.521 -3.6769  2.8439 -2.8129
19950TIP3    H281266   1.227   7.084   4.629  1.8812 -2.4827 -0.8503
19951TIP3   OH281267   2.180   5.530   5.231  0.3470  0.2275  0.2743
19951TIP3    H181268   2.097   5.493   5.262  0.9452  0.7119  2.6070
19951TIP3    H281269   2.164   5.551   5.139 -1.3033 -1.9942  0.0036
19952TIP3   OH281270   0.002   2.049   5.834  0.3278 -0.3783  0.8778
19952TIP3    H181271   0.024   1.961   5.804  0.8458 -0.0499  0.2700
19952TIP3    H281272   0.067   2.068   5.902 -1.0148 -1.2284  2.4388
19953TIP3   OH281273   6.896   7.125   5.159  0.4384 -0.2920  0.2349
19953TIP3    H181274   6.886   7.127   5.064  0.5636 -0.8432  0.2112
19953TIP3    H281275   6.954   7.052   5.176  0.3598 -0.2400  0.7443
19954TIP3   OH281276   0.324   5.587   5.761  0.2083 -0.6748 -0.1932
19954TIP3    H181277   0.261   5.621   5.825 -0.6962 -0.3485 -1.2578
19954TIP3    H281278   0.400   5.646   5.771 -0.9708  1.0891 -1.3205
19955TIP3   OH281279   4.749   4.725   3.520 -0.2854  0.6252  0.2083
19955TIP3    H181280   4.774   4.697   3.608 -2.2265  0.4731  0.7407
19955TIP3    H281281   4.831   4.732   3.472  0.5685 -2.2114  1.1610
19956TIP3   OH281282   1.236   2.983   4.376  0.1121  0.1853 -0.6402
19956TIP3    H181283   1.289   3.040   4.321 -0.4535  0.2961 -1.0795
19956TIP3    H281284   1.259   2.894   4.347 -0.7593  0.2615 -1.6114
19957TIP3   OH281285   5.218   2.281   2.697 -0.2770  0.5289 -0.0801
19957TIP3    H181286   5.271   2.359   2.679  1.5956 -0.4833  0.8868
19957TIP3    H281287   5.138   2.316   2.736  0.8127  1.9536  0.9451
19958TIP3   OH281288   2.779   6.435   6.024 -0.3701 -0.7592  0.0237
19958TIP3    H181289   2.695   6.464   5.987  1.1405  1.6231 -1.6995
19958TIP3    H281290   2.835   6.420   5.948  1.4630 -0.1014  1.2073
19959TIP3   OH281291   3.090   0.642   5.712  0.2235 -0.4706  0.2675
19959TIP3    H181292   3.061   0.693   5.788 -0.2563 -1.6739  0.9169
19959TIP3    H281293   3.017   0.646   5.651  0.3732  0.0066  0.1161
19960TIP3   OH281294   2.433   0.163   2.133  0.2348 -0.0999  0.2253
19960TIP3    H181295   2.400   0.243   2.174  1.1834  1.3245 -1.6806
19960TIP3    H281296   2.437   0.184   2.039  0.3182 -2.4552 -0.3368
19961TIP3   OH281297   5.710   0.695   3.632 -0.0065 -0.0981  0.3503
19961TIP3    H181298   5.697   0.605   3.663 -0.5543  0.2015  0.9922
19961TIP3    H281299   5.741   0.742   3.709  0.1568  0.2887  0.0438
19962TIP3   OH281300   3.722   6.878   5.869  0.0868  0.7159 -0.0824
19962TIP3    H181301   3.627   6.880   5.861 -0.0168 -1.3001  0.2753
19962TIP3    H281302   3.742   6.787   5.894  2.0457  1.2813  0.5062
19963TIP3   OH281303   0.038   3.101   3.855 -0.0403 -0.0819 -0.0809
19963TIP3    H181304   0.067   3.172   3.797 -2.0037 -0.9173 -2.1765
19963TIP3    H281305   0.115   3.044   3.862  0.6240  0.6941 -0.8799
19964TIP3   OH281306   2.059   0.084   5.170 -0.0113  0.1432  0.4147
19964TIP3    H181307   2.114   0.068   5.093 -1.4086  0.6773 -0.7282
19964TIP3    H281308   2.107   0.149   5.221  0.1961  0.9986 -0.8267
19965TIP3   OH281309   6.148   5.135   2.833 -0.1841 -0.0865 -0.4610
19965TIP3    H181310   6.208   5.181   2.892  0.5485  0.9882 -2.0109
19965TIP3    H281311   6.170   5.042   2.844 -1.3229 -0.0589  2.3127
19966TIP3   OH281312   3.301   6.892   3.695  0.2083 -0.6541 -0.3120
19966TIP3    H181313   3.207   6.880   3.712  0.1622 -0.3523 -0.3586
19966TIP3    H281314   3.319   6.834   3.621  0.1637 -1.0879  0.0140
19967TIP3   OH281315   3.214   0.069   5.783 -0.0658 -0.4638 -0.1884
19967TIP3    H181316   3.259  -0.008   5.817 -0.1968  0.2178  1.5688
19967TIP3    H281317   3.122   0.046   5.786 -0.1106 -0.2015  0.4258
19968TIP3   OH281318   0.722   0.832   5.331  0.0722 -0.1050 -0.0432
19968TIP3    H181319   0.709   0.910   5.385  0.2113  0.6493 -1.0662
19968TIP3    H281320   0.636   0.816   5.292  0.6554  1.2289 -2.0137
19969TIP3   OH281321   1.612   3.407   5.003  0.5188 -0.2597 -0.3552
19969TIP3    H181322   1.562   3.399   5.085  1.5461  0.3245  0.3408
19969TIP3    H281323   1.630   3.500   4.995  0.4651 -0.3265 -1.2246
19970TIP3   OH281324   5.283   6.452   4.534 -0.0452  0.2257 -0.2164
19970TIP3    H181325   5.376   6.461   4.558  0.6473  1.5817 -3.1736
19970TIP3    H281326   5.236   6.488   4.609  1.8627  0.9532  0.6802
19971TIP3   OH281327   5.204   4.412   6.107 -0.3907  0.0723 -0.4693
19971TIP3    H181328   5.124   4.447   6.068  0.2492  0.9922 -0.9690
19971TIP3    H281329   5.232   4.480   6.168  0.7783  0.3851 -1.3429
19972TIP3   OH281330   6.665   3.259   2.547 -0.4939  0.2109 -0.4101
19972TIP3    H181331   6.589   3.218   2.505 -0.8277  0.1351  0.2574
19972TIP3    H281332   6.672   3.215   2.631 -0.8503  1.5260  0.3217
19973TIP3   OH281333   1.602   5.058   6.206 -0.2303 -0.0858  0.7331
19973TIP3    H181334   1.647   5.080   6.124  0.5368  0.7675  1.3702
19973TIP3    H281335   1.522   5.014   6.178 -0.7121  1.5369 -0.5426
19974TIP3   OH281336   7.160   1.398   4.832 -0.1663  0.4052 -0.1602
19974TIP3    H181337   7.174   1.413   4.926  4.7280 -1.2176 -0.5430
19974TIP3    H281338   7.196   1.476   4.790  0.9989 -0.5023 -0.8521
19975TIP3   OH281339   3.552   6.995   5.406  0.4702  0.2266 -0.7786
19975TIP3    H181340   3.473   6.940   5.412  1.6492 -1.3893  0.3066
19975TIP3    H281341   3.543   7.057   5.479 -0.3892  0.8494 -1.4075
19976TIP3   OH281342   5.357   4.014   4.876 -0.4779  0.5730 -0.1230
19976TIP3    H181343   5.442   4.050   4.852  0.0882 -0.7704 -0.2012
19976TIP3    H281344   5.331   4.063   4.954  0.0679  1.4216 -0.4721
19977TIP3   OH281345   3.870   5.773   4.840  0.2588  0.3730  0.2566
19977TIP3    H181346   3.924   5.697   4.866 -0.8067 -0.3688  0.3288
19977TIP3    H281347   3.931   5.846   4.841  1.1206 -0.3326  1.0420
19978TIP3   OH281348   5.269   5.580   4.938 -0.1807  0.0851 -0.3767
19978TIP3    H181349   5.357   5.578   4.975 -1.0084 -1.0613  1.6377
19978TIP3    H281350   5.256   5.671   4.912  1.9763  0.0576 -1.6960
19979TIP3   OH281351   4.976   6.828   1.781  0.5145  0.6922 -0.1265
19979TIP3    H181352   5.060   6.874   1.785  0.5460  0.7212 -1.0431
19979TIP3    H281353   4.959   6.817   1.688 -1.2502  2.0445  0.0012
19980TIP3   OH281354   5.220   0.017   3.565  0.0800  0.3628  1.3410
19980TIP3    H181355   5.298   0.052   3.522  0.0269  2.1387  2.6271
19980TIP3    H281356   5.175  -0.033   3.496  1.2124  1.1482 -0.0053
19981TIP3   OH281357   6.047   4.887   4.985 -0.4287 -0.2245  0.3805
19981TIP3    H181358   5.957   4.919   4.971  0.1263  1.5780  0.7983
19981TIP3    H281359   6.057   4.884   5.080 -0.1950 -0.8742  0.3361
19982TIP3   OH281360   5.197   5.509   5.629 -0.1063 -0.1505 -0.1103
19982TIP3    H181361   5.153   5.425   5.623 -0.3139 -0.1011  0.6412
19982TIP3    H281362   5.269   5.495   5.690 -0.0320  0.1668 -0.1209
19983TIP3   OH281363   4.453   6.607   5.423  0.2830  0.5141 -0.3805
19983TIP3    H181364   4.501   6.563   5.352 -1.1894 -0.1157 -1.0031
19983TIP3    H281365   4.518   6.663   5.464  1.2039  0.7823 -2.1483
19984TIP3   OH281366   6.715   2.373   1.458  0.2269  0.6137 -0.4734
19984TIP3    H181367   6.727   2.428   1.381  0.5500  1.2054 -0.0155
19984TIP3    H281368   6.801   2.334   1.473 -0.0256 -0.0972 -0.8521
19985TIP3   OH281369   0.578   6.886   5.746 -0.0792 -0.4991  0.0816
19985TIP3    H181370   0.572   6.912   5.838  1.8535  3.7003 -0.8430
19985TIP3    H281371   0.648   6.941   5.711 -1.0581 -1.7224 -3.9991
19986TIP3   OH281372   5.396   5.534   2.253 -0.7415  0.2406  0.0040
19986TIP3    H181373   5.490   5.526   2.271 -0.6666 -0.2059 -0.5543
19986TIP3    H281374   5.390   5.598   2.182 -0.7746 -0.4886 -0.6614
19987TIP3   OH281375   0.364   6.747   5.599  0.3801  0.1216  0.2554
19987TIP3    H181376   0.426   6.806   5.642  0.7406 -1.0917  1.4258
19987TIP3    H281377   0.287   6.747   5.656 -0.6995  1.5813 -1.1656
19988TIP3   OH281378   6.129   7.002   4.956  0.1382  0.5833 -0.4570
19988TIP3    H181379   6.164   7.079   4.911 -1.6864  2.2704  0.9208
19988TIP3    H281380   6.143   7.020   5.049 -0.9290 -0.4295 -0.0809
19989TIP3   OH281381   1.348   3.678   0.862 -0.6368  0.0948 -0.1904
19989TIP3    H181382   1.340   3.683   0.767 -1.2875  1.8333 -0.0668
19989TIP3    H281383   1.354   3.585   0.881  1.1312 -0.1988 -2.0562
19990TIP3   OH281384   3.224   0.036   3.672  0.3277  0.1338  0.8788
19990TIP3    H181385   3.251  -0.045   3.629  1.5631  1.1610 -0.3234
19990TIP3    H281386   3.134   0.019   3.700 -0.0180 -1.0630 -0.8591
19991TIP3   OH281387   0.877   0.737   4.137  0.7080  0.2028 -0.6165
19991TIP3    H181388   0.938   0.786   4.191  0.7452 -0.5788  0.0617
19991TIP3    H281389   0.851   0.662   4.192  0.2468 -0.2404 -1.4301
19992TIP3   OH281390   5.898   6.132   2.853 -0.1026 -0.1220 -0.3024
19992TIP3    H181391   5.907   6.041   2.880  0.1678 -0.5514 -1.8279
19992TIP3    H281392   5.809   6.139   2.820 -0.3994  0.3826  0.5828
19993TIP3   OH281393   7.068   1.800   3.805 -0.6425  0.2129 -0.5919
19993TIP3    H181394   7.106   1.846   3.730  0.0268 -0.2216 -0.5293
19993TIP3    H281395   7.109   1.843   3.881 -0.6810  0.0943 -0.5043
19994TIP3   OH281396   6.119   6.708   5.744 -0.0716 -0.1957  0.0428
19994TIP3    H181397   6.072   6.627   5.724  0.6247 -0.4462 -0.6171
19994TIP3    H281398   6.058   6.759   5.796 -1.5152 -0.0186 -1.7787
19995TIP3   OH281399   6.399   0.001   5.277  0.3312 -0.0188  0.0399
19995TIP3    H181400   6.317   0.039   5.309  0.6576  0.4711  0.3070
19995TIP3    H281401   6.460   0.013   5.349  0.6664 -0.2846 -0.2005
19996TIP3   OH281402   6.692   6.825   4.970  0.3472  0.0070  0.0755
19996TIP3    H181403   6.630   6.889   5.006  0.9874  0.6417  0.0679
19996TIP3    H281404   6.695   6.845   4.877 -1.0857 -1.4474 -0.3216
   7.16275   7.16275  15.55780
